;
;   File gromacs.top  was generated
;   By user: mlynsky (1001)
;   On host: xerxes
;   At date: Mon. March  1 09:36:03 2025
;
;   This is a standalone topology file
;
;   Created by:
;   ParmEd:       parmed, VERSION 3.0.0+57.g74a84d30
;   Executable:   parmed
;   Library dir:  /usr/local/gromacs/share/gromacs/top
;   Command line:
;     /usr/local/programs/common/Ambers/amber18/bin/parmed -e
;

[ defaults ] 
; nbfunc        comb-rule       gen-pairs       fudgeLJ fudgeQQ
1               2               yes             0.5          0.83333333   

[ atomtypes ] 
; name    at.num    mass    charge ptype  sigma      epsilon
HO 1 3.024000 0.00000000 A 0 0 
HO_ HO 3.024000 0.00000000 A 0 0  ; scaled
OH 8 13.984000 0.00000000 A 0.30664734 0.8803136 
OH_ OH 13.984000 0.00000000 A 0.306647 0.635898  ; scaled
CI 6 7.978000 0.00000000 A 0.33996695 0.4577296 
CI_ CI 7.978000 0.00000000 A 0.339967 0.330643  ; scaled
H1 1 3.024000 0.00000000 A 0.2471353 0.0656888 
H1_ H1 3.024000 0.00000000 A 0.247135 0.0474506  ; scaled
CT 6 9.994000 0.00000000 A 0.33996695 0.4577296 
CT_ CT 9.994000 0.00000000 A 0.339967 0.330643  ; scaled
OS 8 16.000000 0.00000000 A 0.30000123 0.71128 
OS_ OS 16.000000 0.00000000 A 0.300001 0.513796  ; scaled
H2 1 3.024000 0.00000000 A 0.22931733 0.0656888 
H2_ H2 3.024000 0.00000000 A 0.229317 0.0474506  ; scaled
N* 7 14.010000 0.00000000 A 0.32499985 0.71128 
N*_ N* 14.010000 0.00000000 A 0.325 0.513796  ; scaled
CP 6 9.994000 0.00000000 A 0.33996695 0.359824 
CP_ CP 9.994000 0.00000000 A 0.339967 0.25992  ; scaled
H5 1 3.024000 0.00000000 A 0.24214627 0.06276 
H5_ H5 3.024000 0.00000000 A 0.242146 0.0453349  ; scaled
NB 7 14.010000 0.00000000 A 0.32499985 0.71128 
NB_ NB 14.010000 0.00000000 A 0.325 0.513796  ; scaled
CB 6 12.010000 0.00000000 A 0.33996695 0.359824 
CB_ CB 12.010000 0.00000000 A 0.339967 0.25992  ; scaled
C 6 12.010000 0.00000000 A 0.33996695 0.359824 
C_ C 12.010000 0.00000000 A 0.339967 0.25992  ; scaled
O 8 16.000000 0.00000000 A 0.29599219 0.87864 
O_ O 16.000000 0.00000000 A 0.295992 0.634689  ; scaled
NA 7 11.994000 0.00000000 A 0.32499985 0.71128 
NA_ NA 11.994000 0.00000000 A 0.325 0.513796  ; scaled
H 1 3.024000 0.00000000 A 0.10690785 0.0656888 
H_ H 3.024000 0.00000000 A 0.106908 0.0474506  ; scaled
CA 6 12.010000 0.00000000 A 0.33996695 0.359824 
CA_ CA 12.010000 0.00000000 A 0.339967 0.25992  ; scaled
N2 7 9.978000 0.00000000 A 0.32499985 0.71128 
N2_ N2 9.978000 0.00000000 A 0.325 0.513796  ; scaled
NC 7 14.010000 0.00000000 A 0.32499985 0.71128 
NC_ NC 14.010000 0.00000000 A 0.325 0.513796  ; scaled
P 15 30.970000 0.00000000 A 0.37417746 0.8368 
P_ P 30.970000 0.00000000 A 0.374177 0.604466  ; scaled
O2 8 16.000000 0.00000000 A 0.29599219 0.87864 
O2_ O2 16.000000 0.00000000 A 0.295992 0.634689  ; scaled
CS 6 9.994000 0.00000000 A 0.33996695 0.359824 
CS_ CS 9.994000 0.00000000 A 0.339967 0.25992  ; scaled
H4 1 3.024000 0.00000000 A 0.25105526 0.06276 
H4_ H4 3.024000 0.00000000 A 0.251055 0.0453349  ; scaled
HA 1 3.024000 0.00000000 A 0.25996425 0.06276 
HA_ HA 3.024000 0.00000000 A 0.259964 0.0453349  ; scaled
C5 6 9.994000 0.00000000 A 0.33996695 0.359824 
C5_ C5 9.994000 0.00000000 A 0.339967 0.25992  ; scaled
CQ 6 9.994000 0.00000000 A 0.33996695 0.359824 
CQ_ CQ 9.994000 0.00000000 A 0.339967 0.25992  ; scaled
Cl- 17 35.450000 0.00000000 A 0.48304528 0.05349244 
Cl-_ Cl- 35.450000 0.00000000 A 0.483045 0.0386405  ; scaled
K+ 19 39.100000 0.00000000 A 0.28384033 1.7978874 
K+_ K+ 39.100000 0.00000000 A 0.28384 1.29871  ; scaled
OW 8 16.000000 0.00000000 A 0.31657195 0.6497752 
OW_ OW 16.000000 0.00000000 A 0.316572 0.469368  ; scaled
HW 1 1.008000 0.00000000 A 0 0 
HW_ HW 1.008000 0.00000000 A 0 0  ; scaled


[ moleculetype ] 
; Name            nrexcl
system1          3 

[ atoms ] 
;   nr       type  resnr residue  atom   cgnr    charge       mass  typeB    chargeB      massB
; residue    1 G5 rtp G5 q -0.3
1 HO_ 1 G5 HO5' 1 0.365038 3.024000 ; qtot 0.429500
2 OH_ 1 G5 O5' 2 -0.528902 13.984000 ; qtot -0.192800
3 CI_ 1 G5 C5' 3 0.0474252 7.978000 ; qtot -0.137000
4 H1_ 1 G5 H5' 4 0.0577092 3.024000 ; qtot -0.069100
5 H1_ 1 G5 H5'' 5 0.0577092 3.024000 ; qtot -0.001200
6 CT_ 1 G5 C4' 6 0.0905159 9.994000 ; qtot 0.105300
7 H1_ 1 G5 H4' 7 0.0997799 3.024000 ; qtot 0.222700
8 OS_ 1 G5 O4' 8 -0.30155 16.000000 ; qtot -0.132100
9 CT_ 1 G5 C1' 9 0.0162334 9.994000 ; qtot -0.113000
10 H2_ 1 G5 H1' 10 0.170493 3.024000 ; qtot 0.087600
11 N*_ 1 G5 N9 11 0.0418158 14.010000 ; qtot 0.136800
12 CP_ 1 G5 C8 12 0.116778 9.994000 ; qtot 0.274200
13 H5_ 1 G5 H8 13 0.139386 3.024000 ; qtot 0.438200
14 NB_ 1 G5 N7 14 -0.485216 14.010000 ; qtot -0.132700
15 CB_ 1 G5 C5 15 0.148225 12.010000 ; qtot 0.041700
16 C_ 1 G5 C6 16 0.405409 12.010000 ; qtot 0.518700
17 O_ 1 G5 O6 17 -0.475697 16.000000 ; qtot -0.041000
18 NA_ 1 G5 N1 18 -0.406854 11.994000 ; qtot -0.519700
19 H_ 1 G5 H1 19 0.291011 3.024000 ; qtot -0.177300
20 CA_ 1 G5 C2 20 0.650779 12.010000 ; qtot 0.588400
21 N2_ 1 G5 N2 21 -0.822037 9.978000 ; qtot -0.378800
22 H_ 1 G5 H21 22 0.370903 3.024000 ; qtot 0.057600
23 H_ 1 G5 H22 23 0.370903 3.024000 ; qtot 0.494000
24 NC_ 1 G5 N3 24 -0.537401 14.010000 ; qtot -0.138300
25 CB_ 1 G5 C4 25 0.10386 12.010000 ; qtot -0.016100
26 CT_ 1 G5 C3' 26 0.171853 9.994000 ; qtot 0.186100
27 H1_ 1 G5 H3' 27 0.0522697 3.024000 ; qtot 0.247600
28 CT_ 1 G5 C2' 28 0.0569442 9.994000 ; qtot 0.314600
29 H1_ 1 G5 H2' 29 0.0826117 3.024000 ; qtot 0.411800
30 OH_ 1 G5 O2' 30 -0.521762 13.984000 ; qtot -0.202100
31 HO_ 1 G5 HO2' 31 0.355774 3.024000 ; qtot 0.216500
32 OS_ 1 G5 O3' 32 -0.445865 16.000000 ; qtot -0.308100
; residue    2 G_rtp G q -1.0
33 P_ 2 G P 33 0.99117 30.970000 ; qtot 0.858100
34 O2_ 2 G OP1 34 -0.659533 16.000000 ; qtot 0.082100
35 O2_ 2 G OP2 35 -0.659533 16.000000 ; qtot -0.693900
36 OS_ 2 G O5' 36 -0.424022 16.000000 ; qtot -1.192800
37 CI_ 2 G C5' 37 0.0474252 7.978000 ; qtot -1.137000
38 H1_ 2 G H5' 38 0.0577092 3.024000 ; qtot -1.069100
39 H1_ 2 G H5'' 39 0.0577092 3.024000 ; qtot -1.001200
40 CT_ 2 G C4' 40 0.0905159 9.994000 ; qtot -0.894700
41 H1_ 2 G H4' 41 0.0997799 3.024000 ; qtot -0.777300
42 OS_ 2 G O4' 42 -0.30155 16.000000 ; qtot -1.132100
43 CT_ 2 G C1' 43 0.0162334 9.994000 ; qtot -1.113000
44 H2_ 2 G H1' 44 0.170493 3.024000 ; qtot -0.912400
45 N*_ 2 G N9 45 0.0418158 14.010000 ; qtot -0.863200
46 CP_ 2 G C8 46 0.116778 9.994000 ; qtot -0.725800
47 H5_ 2 G H8 47 0.139386 3.024000 ; qtot -0.561800
48 NB_ 2 G N7 48 -0.485216 14.010000 ; qtot -1.132700
49 CB_ 2 G C5 49 0.148225 12.010000 ; qtot -0.958300
50 C_ 2 G C6 50 0.405409 12.010000 ; qtot -0.481300
51 O_ 2 G O6 51 -0.475697 16.000000 ; qtot -1.041000
52 NA_ 2 G N1 52 -0.406854 11.994000 ; qtot -1.519700
53 H_ 2 G H1 53 0.291011 3.024000 ; qtot -1.177300
54 CA_ 2 G C2 54 0.650779 12.010000 ; qtot -0.411600
55 N2_ 2 G N2 55 -0.822037 9.978000 ; qtot -1.378800
56 H_ 2 G H21 56 0.370903 3.024000 ; qtot -0.942400
57 H_ 2 G H22 57 0.370903 3.024000 ; qtot -0.506000
58 NC_ 2 G N3 58 -0.537401 14.010000 ; qtot -1.138300
59 CB_ 2 G C4 59 0.10386 12.010000 ; qtot -1.016100
60 CT_ 2 G C3' 60 0.171853 9.994000 ; qtot -0.813900
61 H1_ 2 G H3' 61 0.0522697 3.024000 ; qtot -0.752400
62 CT_ 2 G C2' 62 0.0569442 9.994000 ; qtot -0.685400
63 H1_ 2 G H2' 63 0.0826117 3.024000 ; qtot -0.588200
64 OH_ 2 G O2' 64 -0.521762 13.984000 ; qtot -1.202100
65 HO_ 2 G HO2' 65 0.355774 3.024000 ; qtot -0.783500
66 OS_ 2 G O3' 66 -0.445865 16.000000 ; qtot -1.308100
; residue    3 G_rtp G q -1.0
67 P_ 3 G P 67 0.99117 30.970000 ; qtot -0.141900
68 O2_ 3 G OP1 68 -0.659533 16.000000 ; qtot -0.917900
69 O2_ 3 G OP2 69 -0.659533 16.000000 ; qtot -1.693900
70 OS_ 3 G O5' 70 -0.424022 16.000000 ; qtot -2.192800
71 CI_ 3 G C5' 71 0.0474252 7.978000 ; qtot -2.137000
72 H1_ 3 G H5' 72 0.0577092 3.024000 ; qtot -2.069100
73 H1_ 3 G H5'' 73 0.0577092 3.024000 ; qtot -2.001200
74 CT_ 3 G C4' 74 0.0905159 9.994000 ; qtot -1.894700
75 H1_ 3 G H4' 75 0.0997799 3.024000 ; qtot -1.777300
76 OS_ 3 G O4' 76 -0.30155 16.000000 ; qtot -2.132100
77 CT_ 3 G C1' 77 0.0162334 9.994000 ; qtot -2.113000
78 H2_ 3 G H1' 78 0.170493 3.024000 ; qtot -1.912400
79 N*_ 3 G N9 79 0.0418158 14.010000 ; qtot -1.863200
80 CP_ 3 G C8 80 0.116778 9.994000 ; qtot -1.725800
81 H5_ 3 G H8 81 0.139386 3.024000 ; qtot -1.561800
82 NB_ 3 G N7 82 -0.485216 14.010000 ; qtot -2.132700
83 CB_ 3 G C5 83 0.148225 12.010000 ; qtot -1.958300
84 C_ 3 G C6 84 0.405409 12.010000 ; qtot -1.481300
85 O_ 3 G O6 85 -0.475697 16.000000 ; qtot -2.041000
86 NA_ 3 G N1 86 -0.406854 11.994000 ; qtot -2.519700
87 H_ 3 G H1 87 0.291011 3.024000 ; qtot -2.177300
88 CA_ 3 G C2 88 0.650779 12.010000 ; qtot -1.411600
89 N2_ 3 G N2 89 -0.822037 9.978000 ; qtot -2.378800
90 H_ 3 G H21 90 0.370903 3.024000 ; qtot -1.942400
91 H_ 3 G H22 91 0.370903 3.024000 ; qtot -1.506000
92 NC_ 3 G N3 92 -0.537401 14.010000 ; qtot -2.138300
93 CB_ 3 G C4 93 0.10386 12.010000 ; qtot -2.016100
94 CT_ 3 G C3' 94 0.171853 9.994000 ; qtot -1.813900
95 H1_ 3 G H3' 95 0.0522697 3.024000 ; qtot -1.752400
96 CT_ 3 G C2' 96 0.0569442 9.994000 ; qtot -1.685400
97 H1_ 3 G H2' 97 0.0826117 3.024000 ; qtot -1.588200
98 OH_ 3 G O2' 98 -0.521762 13.984000 ; qtot -2.202100
99 HO_ 3 G HO2' 99 0.355774 3.024000 ; qtot -1.783500
100 OS_ 3 G O3' 100 -0.445865 16.000000 ; qtot -2.308100
; residue    4 U_rtp U q -1.0
101 P_ 4 U P 101 0.99117 30.970000 ; qtot -1.141900
102 O2_ 4 U OP1 102 -0.659533 16.000000 ; qtot -1.917900
103 O2_ 4 U OP2 103 -0.659533 16.000000 ; qtot -2.693900
104 OS_ 4 U O5' 104 -0.424022 16.000000 ; qtot -3.192800
105 CI_ 4 U C5' 105 0.0474252 7.978000 ; qtot -3.137000
106 H1_ 4 U H5' 106 0.0577092 3.024000 ; qtot -3.069100
107 H1_ 4 U H5'' 107 0.0577092 3.024000 ; qtot -3.001200
108 CT_ 4 U C4' 108 0.0905159 9.994000 ; qtot -2.894700
109 H1_ 4 U H4' 109 0.0997799 3.024000 ; qtot -2.777300
110 OS_ 4 U O4' 110 -0.30155 16.000000 ; qtot -3.132100
111 CT_ 4 U C1' 111 0.0572842 9.994000 ; qtot -3.064700
112 H2_ 4 U H1' 112 0.155024 3.024000 ; qtot -2.882300
113 N*_ 4 U N1 113 0.0355264 14.010000 ; qtot -2.840500
114 CS_ 4 U C6 114 -0.0957003 9.994000 ; qtot -2.953100
115 H4_ 4 U H6 115 0.185961 3.024000 ; qtot -2.734300
116 CS_ 4 U C5 116 -0.308944 9.994000 ; qtot -3.097800
117 HA_ 4 U H5 117 0.153919 3.024000 ; qtot -2.916700
118 C_ 4 U C4 118 0.505869 12.010000 ; qtot -2.321500
119 O_ 4 U O4 119 -0.489636 16.000000 ; qtot -2.897600
120 NA_ 4 U N3 120 -0.301635 11.994000 ; qtot -3.252500
121 H_ 4 U H3 121 0.268063 3.024000 ; qtot -2.937100
122 C_ 4 U C2 122 0.398355 12.010000 ; qtot -2.468400
123 O_ 4 U O2 123 -0.465498 16.000000 ; qtot -3.016100
124 CT_ 4 U C3' 124 0.171853 9.994000 ; qtot -2.813900
125 H1_ 4 U H3' 125 0.0522697 3.024000 ; qtot -2.752400
126 CT_ 4 U C2' 126 0.0569442 9.994000 ; qtot -2.685400
127 H1_ 4 U H2' 127 0.0826117 3.024000 ; qtot -2.588200
128 OH_ 4 U O2' 128 -0.521762 13.984000 ; qtot -3.202100
129 HO_ 4 U HO2' 129 0.355774 3.024000 ; qtot -2.783500
130 OS_ 4 U O3' 130 -0.445865 16.000000 ; qtot -3.308100
; residue    5 U_rtp U q -1.0
131 P_ 5 U P 131 0.99117 30.970000 ; qtot -2.141900
132 O2_ 5 U OP1 132 -0.659533 16.000000 ; qtot -2.917900
133 O2_ 5 U OP2 133 -0.659533 16.000000 ; qtot -3.693900
134 OS_ 5 U O5' 134 -0.424022 16.000000 ; qtot -4.192800
135 CI_ 5 U C5' 135 0.0474252 7.978000 ; qtot -4.137000
136 H1_ 5 U H5' 136 0.0577092 3.024000 ; qtot -4.069100
137 H1_ 5 U H5'' 137 0.0577092 3.024000 ; qtot -4.001200
138 CT_ 5 U C4' 138 0.0905159 9.994000 ; qtot -3.894700
139 H1_ 5 U H4' 139 0.0997799 3.024000 ; qtot -3.777300
140 OS_ 5 U O4' 140 -0.30155 16.000000 ; qtot -4.132100
141 CT_ 5 U C1' 141 0.0572842 9.994000 ; qtot -4.064700
142 H2_ 5 U H1' 142 0.155024 3.024000 ; qtot -3.882300
143 N*_ 5 U N1 143 0.0355264 14.010000 ; qtot -3.840500
144 CS_ 5 U C6 144 -0.0957003 9.994000 ; qtot -3.953100
145 H4_ 5 U H6 145 0.185961 3.024000 ; qtot -3.734300
146 CS_ 5 U C5 146 -0.308944 9.994000 ; qtot -4.097800
147 HA_ 5 U H5 147 0.153919 3.024000 ; qtot -3.916700
148 C_ 5 U C4 148 0.505869 12.010000 ; qtot -3.321500
149 O_ 5 U O4 149 -0.489636 16.000000 ; qtot -3.897600
150 NA_ 5 U N3 150 -0.301635 11.994000 ; qtot -4.252500
151 H_ 5 U H3 151 0.268063 3.024000 ; qtot -3.937100
152 C_ 5 U C2 152 0.398355 12.010000 ; qtot -3.468400
153 O_ 5 U O2 153 -0.465498 16.000000 ; qtot -4.016100
154 CT_ 5 U C3' 154 0.171853 9.994000 ; qtot -3.813900
155 H1_ 5 U H3' 155 0.0522697 3.024000 ; qtot -3.752400
156 CT_ 5 U C2' 156 0.0569442 9.994000 ; qtot -3.685400
157 H1_ 5 U H2' 157 0.0826117 3.024000 ; qtot -3.588200
158 OH_ 5 U O2' 158 -0.521762 13.984000 ; qtot -4.202100
159 HO_ 5 U HO2' 159 0.355774 3.024000 ; qtot -3.783500
160 OS_ 5 U O3' 160 -0.445865 16.000000 ; qtot -4.308100
; residue    6 A_rtp A q -1.0
161 P_ 6 A P 161 0.99117 30.970000 ; qtot -3.141900
162 O2_ 6 A OP1 162 -0.659533 16.000000 ; qtot -3.917900
163 O2_ 6 A OP2 163 -0.659533 16.000000 ; qtot -4.693900
164 OS_ 6 A O5' 164 -0.424022 16.000000 ; qtot -5.192800
165 CI_ 6 A C5' 165 0.0474252 7.978000 ; qtot -5.137000
166 H1_ 6 A H5' 166 0.0577092 3.024000 ; qtot -5.069100
167 H1_ 6 A H5'' 167 0.0577092 3.024000 ; qtot -5.001200
168 CT_ 6 A C4' 168 0.0905159 9.994000 ; qtot -4.894700
169 H1_ 6 A H4' 169 0.0997799 3.024000 ; qtot -4.777300
170 OS_ 6 A O4' 170 -0.30155 16.000000 ; qtot -5.132100
171 CT_ 6 A C1' 171 0.0334866 9.994000 ; qtot -5.092700
172 H2_ 6 A H1' 172 0.170578 3.024000 ; qtot -4.892000
173 N*_ 6 A N9 173 -0.0213328 14.010000 ; qtot -4.917100
174 C5_ 6 A C8 174 0.170493 9.994000 ; qtot -4.716500
175 H5_ 6 A H8 175 0.131992 3.024000 ; qtot -4.561200
176 NB_ 6 A N7 176 -0.516153 14.010000 ; qtot -5.168500
177 CB_ 6 A C5 177 0.0437706 12.010000 ; qtot -5.117000
178 CA_ 6 A C6 178 0.595705 12.010000 ; qtot -4.416100
179 N2_ 6 A N6 179 -0.766538 9.978000 ; qtot -5.318000
180 H_ 6 A H61 180 0.34974 3.024000 ; qtot -4.906500
181 H_ 6 A H62 181 0.34974 3.024000 ; qtot -4.495000
182 NC_ 6 A N1 182 -0.64721 14.010000 ; qtot -5.256500
183 CQ_ 6 A C2 183 0.499325 9.994000 ; qtot -4.669000
184 H5_ 6 A H2 184 0.0402009 3.024000 ; qtot -4.621700
185 NC_ 6 A N3 185 -0.594685 14.010000 ; qtot -5.321400
186 CB_ 6 A C4 186 0.259479 12.010000 ; qtot -5.016100
187 CT_ 6 A C3' 187 0.171853 9.994000 ; qtot -4.813900
188 H1_ 6 A H3' 188 0.0522697 3.024000 ; qtot -4.752400
189 CT_ 6 A C2' 189 0.0569442 9.994000 ; qtot -4.685400
190 H1_ 6 A H2' 190 0.0826117 3.024000 ; qtot -4.588200
191 OH_ 6 A O2' 191 -0.521762 13.984000 ; qtot -5.202100
192 HO_ 6 A HO2' 192 0.355774 3.024000 ; qtot -4.783500
193 OS_ 6 A O3' 193 -0.445865 16.000000 ; qtot -5.308100
; residue    7 G_rtp G q -1.0
194 P_ 7 G P 194 0.99117 30.970000 ; qtot -4.141900
195 O2_ 7 G OP1 195 -0.659533 16.000000 ; qtot -4.917900
196 O2_ 7 G OP2 196 -0.659533 16.000000 ; qtot -5.693900
197 OS_ 7 G O5' 197 -0.424022 16.000000 ; qtot -6.192800
198 CI_ 7 G C5' 198 0.0474252 7.978000 ; qtot -6.137000
199 H1_ 7 G H5' 199 0.0577092 3.024000 ; qtot -6.069100
200 H1_ 7 G H5'' 200 0.0577092 3.024000 ; qtot -6.001200
201 CT_ 7 G C4' 201 0.0905159 9.994000 ; qtot -5.894700
202 H1_ 7 G H4' 202 0.0997799 3.024000 ; qtot -5.777300
203 OS_ 7 G O4' 203 -0.30155 16.000000 ; qtot -6.132100
204 CT_ 7 G C1' 204 0.0162334 9.994000 ; qtot -6.113000
205 H2_ 7 G H1' 205 0.170493 3.024000 ; qtot -5.912400
206 N*_ 7 G N9 206 0.0418158 14.010000 ; qtot -5.863200
207 CP_ 7 G C8 207 0.116778 9.994000 ; qtot -5.725800
208 H5_ 7 G H8 208 0.139386 3.024000 ; qtot -5.561800
209 NB_ 7 G N7 209 -0.485216 14.010000 ; qtot -6.132700
210 CB_ 7 G C5 210 0.148225 12.010000 ; qtot -5.958300
211 C_ 7 G C6 211 0.405409 12.010000 ; qtot -5.481300
212 O_ 7 G O6 212 -0.475697 16.000000 ; qtot -6.041000
213 NA_ 7 G N1 213 -0.406854 11.994000 ; qtot -6.519700
214 H_ 7 G H1 214 0.291011 3.024000 ; qtot -6.177300
215 CA_ 7 G C2 215 0.650779 12.010000 ; qtot -5.411600
216 N2_ 7 G N2 216 -0.822037 9.978000 ; qtot -6.378800
217 H_ 7 G H21 217 0.370903 3.024000 ; qtot -5.942400
218 H_ 7 G H22 218 0.370903 3.024000 ; qtot -5.506000
219 NC_ 7 G N3 219 -0.537401 14.010000 ; qtot -6.138300
220 CB_ 7 G C4 220 0.10386 12.010000 ; qtot -6.016100
221 CT_ 7 G C3' 221 0.171853 9.994000 ; qtot -5.813900
222 H1_ 7 G H3' 222 0.0522697 3.024000 ; qtot -5.752400
223 CT_ 7 G C2' 223 0.0569442 9.994000 ; qtot -5.685400
224 H1_ 7 G H2' 224 0.0826117 3.024000 ; qtot -5.588200
225 OH_ 7 G O2' 225 -0.521762 13.984000 ; qtot -6.202100
226 HO_ 7 G HO2' 226 0.355774 3.024000 ; qtot -5.783500
227 OS_ 7 G O3' 227 -0.445865 16.000000 ; qtot -6.308100
; residue    8 G_rtp G q -1.0
228 P_ 8 G P 228 0.99117 30.970000 ; qtot -5.141900
229 O2_ 8 G OP1 229 -0.659533 16.000000 ; qtot -5.917900
230 O2_ 8 G OP2 230 -0.659533 16.000000 ; qtot -6.693900
231 OS_ 8 G O5' 231 -0.424022 16.000000 ; qtot -7.192800
232 CI_ 8 G C5' 232 0.0474252 7.978000 ; qtot -7.137000
233 H1_ 8 G H5' 233 0.0577092 3.024000 ; qtot -7.069100
234 H1_ 8 G H5'' 234 0.0577092 3.024000 ; qtot -7.001200
235 CT_ 8 G C4' 235 0.0905159 9.994000 ; qtot -6.894700
236 H1_ 8 G H4' 236 0.0997799 3.024000 ; qtot -6.777300
237 OS_ 8 G O4' 237 -0.30155 16.000000 ; qtot -7.132100
238 CT_ 8 G C1' 238 0.0162334 9.994000 ; qtot -7.113000
239 H2_ 8 G H1' 239 0.170493 3.024000 ; qtot -6.912400
240 N*_ 8 G N9 240 0.0418158 14.010000 ; qtot -6.863200
241 CP_ 8 G C8 241 0.116778 9.994000 ; qtot -6.725800
242 H5_ 8 G H8 242 0.139386 3.024000 ; qtot -6.561800
243 NB_ 8 G N7 243 -0.485216 14.010000 ; qtot -7.132700
244 CB_ 8 G C5 244 0.148225 12.010000 ; qtot -6.958300
245 C_ 8 G C6 245 0.405409 12.010000 ; qtot -6.481300
246 O_ 8 G O6 246 -0.475697 16.000000 ; qtot -7.041000
247 NA_ 8 G N1 247 -0.406854 11.994000 ; qtot -7.519700
248 H_ 8 G H1 248 0.291011 3.024000 ; qtot -7.177300
249 CA_ 8 G C2 249 0.650779 12.010000 ; qtot -6.411600
250 N2_ 8 G N2 250 -0.822037 9.978000 ; qtot -7.378800
251 H_ 8 G H21 251 0.370903 3.024000 ; qtot -6.942400
252 H_ 8 G H22 252 0.370903 3.024000 ; qtot -6.506000
253 NC_ 8 G N3 253 -0.537401 14.010000 ; qtot -7.138300
254 CB_ 8 G C4 254 0.10386 12.010000 ; qtot -7.016100
255 CT_ 8 G C3' 255 0.171853 9.994000 ; qtot -6.813900
256 H1_ 8 G H3' 256 0.0522697 3.024000 ; qtot -6.752400
257 CT_ 8 G C2' 257 0.0569442 9.994000 ; qtot -6.685400
258 H1_ 8 G H2' 258 0.0826117 3.024000 ; qtot -6.588200
259 OH_ 8 G O2' 259 -0.521762 13.984000 ; qtot -7.202100
260 HO_ 8 G HO2' 260 0.355774 3.024000 ; qtot -6.783500
261 OS_ 8 G O3' 261 -0.445865 16.000000 ; qtot -7.308100
; residue    9 G_rtp G q -1.0
262 P_ 9 G P 262 0.99117 30.970000 ; qtot -6.141900
263 O2_ 9 G OP1 263 -0.659533 16.000000 ; qtot -6.917900
264 O2_ 9 G OP2 264 -0.659533 16.000000 ; qtot -7.693900
265 OS_ 9 G O5' 265 -0.424022 16.000000 ; qtot -8.192800
266 CI_ 9 G C5' 266 0.0474252 7.978000 ; qtot -8.137000
267 H1_ 9 G H5' 267 0.0577092 3.024000 ; qtot -8.069100
268 H1_ 9 G H5'' 268 0.0577092 3.024000 ; qtot -8.001200
269 CT_ 9 G C4' 269 0.0905159 9.994000 ; qtot -7.894700
270 H1_ 9 G H4' 270 0.0997799 3.024000 ; qtot -7.777300
271 OS_ 9 G O4' 271 -0.30155 16.000000 ; qtot -8.132100
272 CT_ 9 G C1' 272 0.0162334 9.994000 ; qtot -8.113000
273 H2_ 9 G H1' 273 0.170493 3.024000 ; qtot -7.912400
274 N*_ 9 G N9 274 0.0418158 14.010000 ; qtot -7.863200
275 CP_ 9 G C8 275 0.116778 9.994000 ; qtot -7.725800
276 H5_ 9 G H8 276 0.139386 3.024000 ; qtot -7.561800
277 NB_ 9 G N7 277 -0.485216 14.010000 ; qtot -8.132700
278 CB_ 9 G C5 278 0.148225 12.010000 ; qtot -7.958300
279 C_ 9 G C6 279 0.405409 12.010000 ; qtot -7.481300
280 O_ 9 G O6 280 -0.475697 16.000000 ; qtot -8.041000
281 NA_ 9 G N1 281 -0.406854 11.994000 ; qtot -8.519700
282 H_ 9 G H1 282 0.291011 3.024000 ; qtot -8.177300
283 CA_ 9 G C2 283 0.650779 12.010000 ; qtot -7.411600
284 N2_ 9 G N2 284 -0.822037 9.978000 ; qtot -8.378800
285 H_ 9 G H21 285 0.370903 3.024000 ; qtot -7.942400
286 H_ 9 G H22 286 0.370903 3.024000 ; qtot -7.506000
287 NC_ 9 G N3 287 -0.537401 14.010000 ; qtot -8.138300
288 CB_ 9 G C4 288 0.10386 12.010000 ; qtot -8.016100
289 CT_ 9 G C3' 289 0.171853 9.994000 ; qtot -7.813900
290 H1_ 9 G H3' 290 0.0522697 3.024000 ; qtot -7.752400
291 CT_ 9 G C2' 291 0.0569442 9.994000 ; qtot -7.685400
292 H1_ 9 G H2' 292 0.0826117 3.024000 ; qtot -7.588200
293 OH_ 9 G O2' 293 -0.521762 13.984000 ; qtot -8.202100
294 HO_ 9 G HO2' 294 0.355774 3.024000 ; qtot -7.783500
295 OS_ 9 G O3' 295 -0.445865 16.000000 ; qtot -8.308100
; residue   10 U_rtp U q -1.0
296 P_ 10 U P 296 0.99117 30.970000 ; qtot -7.141900
297 O2_ 10 U OP1 297 -0.659533 16.000000 ; qtot -7.917900
298 O2_ 10 U OP2 298 -0.659533 16.000000 ; qtot -8.693900
299 OS_ 10 U O5' 299 -0.424022 16.000000 ; qtot -9.192800
300 CI_ 10 U C5' 300 0.0474252 7.978000 ; qtot -9.137000
301 H1_ 10 U H5' 301 0.0577092 3.024000 ; qtot -9.069100
302 H1_ 10 U H5'' 302 0.0577092 3.024000 ; qtot -9.001200
303 CT_ 10 U C4' 303 0.0905159 9.994000 ; qtot -8.894700
304 H1_ 10 U H4' 304 0.0997799 3.024000 ; qtot -8.777300
305 OS_ 10 U O4' 305 -0.30155 16.000000 ; qtot -9.132100
306 CT_ 10 U C1' 306 0.0572842 9.994000 ; qtot -9.064700
307 H2_ 10 U H1' 307 0.155024 3.024000 ; qtot -8.882300
308 N*_ 10 U N1 308 0.0355264 14.010000 ; qtot -8.840500
309 CS_ 10 U C6 309 -0.0957003 9.994000 ; qtot -8.953100
310 H4_ 10 U H6 310 0.185961 3.024000 ; qtot -8.734300
311 CS_ 10 U C5 311 -0.308944 9.994000 ; qtot -9.097800
312 HA_ 10 U H5 312 0.153919 3.024000 ; qtot -8.916700
313 C_ 10 U C4 313 0.505869 12.010000 ; qtot -8.321500
314 O_ 10 U O4 314 -0.489636 16.000000 ; qtot -8.897600
315 NA_ 10 U N3 315 -0.301635 11.994000 ; qtot -9.252500
316 H_ 10 U H3 316 0.268063 3.024000 ; qtot -8.937100
317 C_ 10 U C2 317 0.398355 12.010000 ; qtot -8.468400
318 O_ 10 U O2 318 -0.465498 16.000000 ; qtot -9.016100
319 CT_ 10 U C3' 319 0.171853 9.994000 ; qtot -8.813900
320 H1_ 10 U H3' 320 0.0522697 3.024000 ; qtot -8.752400
321 CT_ 10 U C2' 321 0.0569442 9.994000 ; qtot -8.685400
322 H1_ 10 U H2' 322 0.0826117 3.024000 ; qtot -8.588200
323 OH_ 10 U O2' 323 -0.521762 13.984000 ; qtot -9.202100
324 HO_ 10 U HO2' 324 0.355774 3.024000 ; qtot -8.783500
325 OS_ 10 U O3' 325 -0.445865 16.000000 ; qtot -9.308100
; residue   11 U_rtp U q -1.0
326 P_ 11 U P 326 0.99117 30.970000 ; qtot -8.141900
327 O2_ 11 U OP1 327 -0.659533 16.000000 ; qtot -8.917900
328 O2_ 11 U OP2 328 -0.659533 16.000000 ; qtot -9.693900
329 OS_ 11 U O5' 329 -0.424022 16.000000 ; qtot -10.192800
330 CI_ 11 U C5' 330 0.0474252 7.978000 ; qtot -10.137000
331 H1_ 11 U H5' 331 0.0577092 3.024000 ; qtot -10.069100
332 H1_ 11 U H5'' 332 0.0577092 3.024000 ; qtot -10.001200
333 CT_ 11 U C4' 333 0.0905159 9.994000 ; qtot -9.894700
334 H1_ 11 U H4' 334 0.0997799 3.024000 ; qtot -9.777300
335 OS_ 11 U O4' 335 -0.30155 16.000000 ; qtot -10.132100
336 CT_ 11 U C1' 336 0.0572842 9.994000 ; qtot -10.064700
337 H2_ 11 U H1' 337 0.155024 3.024000 ; qtot -9.882300
338 N*_ 11 U N1 338 0.0355264 14.010000 ; qtot -9.840500
339 CS_ 11 U C6 339 -0.0957003 9.994000 ; qtot -9.953100
340 H4_ 11 U H6 340 0.185961 3.024000 ; qtot -9.734300
341 CS_ 11 U C5 341 -0.308944 9.994000 ; qtot -10.097800
342 HA_ 11 U H5 342 0.153919 3.024000 ; qtot -9.916700
343 C_ 11 U C4 343 0.505869 12.010000 ; qtot -9.321500
344 O_ 11 U O4 344 -0.489636 16.000000 ; qtot -9.897600
345 NA_ 11 U N3 345 -0.301635 11.994000 ; qtot -10.252500
346 H_ 11 U H3 346 0.268063 3.024000 ; qtot -9.937100
347 C_ 11 U C2 347 0.398355 12.010000 ; qtot -9.468400
348 O_ 11 U O2 348 -0.465498 16.000000 ; qtot -10.016100
349 CT_ 11 U C3' 349 0.171853 9.994000 ; qtot -9.813900
350 H1_ 11 U H3' 350 0.0522697 3.024000 ; qtot -9.752400
351 CT_ 11 U C2' 351 0.0569442 9.994000 ; qtot -9.685400
352 H1_ 11 U H2' 352 0.0826117 3.024000 ; qtot -9.588200
353 OH_ 11 U O2' 353 -0.521762 13.984000 ; qtot -10.202100
354 HO_ 11 U HO2' 354 0.355774 3.024000 ; qtot -9.783500
355 OS_ 11 U O3' 355 -0.445865 16.000000 ; qtot -10.308100
; residue   12 A_rtp A q -1.0
356 P_ 12 A P 356 0.99117 30.970000 ; qtot -9.141900
357 O2_ 12 A OP1 357 -0.659533 16.000000 ; qtot -9.917900
358 O2_ 12 A OP2 358 -0.659533 16.000000 ; qtot -10.693900
359 OS_ 12 A O5' 359 -0.424022 16.000000 ; qtot -11.192800
360 CI_ 12 A C5' 360 0.0474252 7.978000 ; qtot -11.137000
361 H1_ 12 A H5' 361 0.0577092 3.024000 ; qtot -11.069100
362 H1_ 12 A H5'' 362 0.0577092 3.024000 ; qtot -11.001200
363 CT_ 12 A C4' 363 0.0905159 9.994000 ; qtot -10.894700
364 H1_ 12 A H4' 364 0.0997799 3.024000 ; qtot -10.777300
365 OS_ 12 A O4' 365 -0.30155 16.000000 ; qtot -11.132100
366 CT_ 12 A C1' 366 0.0334866 9.994000 ; qtot -11.092700
367 H2_ 12 A H1' 367 0.170578 3.024000 ; qtot -10.892000
368 N*_ 12 A N9 368 -0.0213328 14.010000 ; qtot -10.917100
369 C5_ 12 A C8 369 0.170493 9.994000 ; qtot -10.716500
370 H5_ 12 A H8 370 0.131992 3.024000 ; qtot -10.561200
371 NB_ 12 A N7 371 -0.516153 14.010000 ; qtot -11.168500
372 CB_ 12 A C5 372 0.0437706 12.010000 ; qtot -11.117000
373 CA_ 12 A C6 373 0.595705 12.010000 ; qtot -10.416100
374 N2_ 12 A N6 374 -0.766538 9.978000 ; qtot -11.318000
375 H_ 12 A H61 375 0.34974 3.024000 ; qtot -10.906500
376 H_ 12 A H62 376 0.34974 3.024000 ; qtot -10.495000
377 NC_ 12 A N1 377 -0.64721 14.010000 ; qtot -11.256500
378 CQ_ 12 A C2 378 0.499325 9.994000 ; qtot -10.669000
379 H5_ 12 A H2 379 0.0402009 3.024000 ; qtot -10.621700
380 NC_ 12 A N3 380 -0.594685 14.010000 ; qtot -11.321400
381 CB_ 12 A C4 381 0.259479 12.010000 ; qtot -11.016100
382 CT_ 12 A C3' 382 0.171853 9.994000 ; qtot -10.813900
383 H1_ 12 A H3' 383 0.0522697 3.024000 ; qtot -10.752400
384 CT_ 12 A C2' 384 0.0569442 9.994000 ; qtot -10.685400
385 H1_ 12 A H2' 385 0.0826117 3.024000 ; qtot -10.588200
386 OH_ 12 A O2' 386 -0.521762 13.984000 ; qtot -11.202100
387 HO_ 12 A HO2' 387 0.355774 3.024000 ; qtot -10.783500
388 OS_ 12 A O3' 388 -0.445865 16.000000 ; qtot -11.308100
; residue   13 G_rtp G q -1.0
389 P_ 13 G P 389 0.99117 30.970000 ; qtot -10.141900
390 O2_ 13 G OP1 390 -0.659533 16.000000 ; qtot -10.917900
391 O2_ 13 G OP2 391 -0.659533 16.000000 ; qtot -11.693900
392 OS_ 13 G O5' 392 -0.424022 16.000000 ; qtot -12.192800
393 CI_ 13 G C5' 393 0.0474252 7.978000 ; qtot -12.137000
394 H1_ 13 G H5' 394 0.0577092 3.024000 ; qtot -12.069100
395 H1_ 13 G H5'' 395 0.0577092 3.024000 ; qtot -12.001200
396 CT_ 13 G C4' 396 0.0905159 9.994000 ; qtot -11.894700
397 H1_ 13 G H4' 397 0.0997799 3.024000 ; qtot -11.777300
398 OS_ 13 G O4' 398 -0.30155 16.000000 ; qtot -12.132100
399 CT_ 13 G C1' 399 0.0162334 9.994000 ; qtot -12.113000
400 H2_ 13 G H1' 400 0.170493 3.024000 ; qtot -11.912400
401 N*_ 13 G N9 401 0.0418158 14.010000 ; qtot -11.863200
402 CP_ 13 G C8 402 0.116778 9.994000 ; qtot -11.725800
403 H5_ 13 G H8 403 0.139386 3.024000 ; qtot -11.561800
404 NB_ 13 G N7 404 -0.485216 14.010000 ; qtot -12.132700
405 CB_ 13 G C5 405 0.148225 12.010000 ; qtot -11.958300
406 C_ 13 G C6 406 0.405409 12.010000 ; qtot -11.481300
407 O_ 13 G O6 407 -0.475697 16.000000 ; qtot -12.041000
408 NA_ 13 G N1 408 -0.406854 11.994000 ; qtot -12.519700
409 H_ 13 G H1 409 0.291011 3.024000 ; qtot -12.177300
410 CA_ 13 G C2 410 0.650779 12.010000 ; qtot -11.411600
411 N2_ 13 G N2 411 -0.822037 9.978000 ; qtot -12.378800
412 H_ 13 G H21 412 0.370903 3.024000 ; qtot -11.942400
413 H_ 13 G H22 413 0.370903 3.024000 ; qtot -11.506000
414 NC_ 13 G N3 414 -0.537401 14.010000 ; qtot -12.138300
415 CB_ 13 G C4 415 0.10386 12.010000 ; qtot -12.016100
416 CT_ 13 G C3' 416 0.171853 9.994000 ; qtot -11.813900
417 H1_ 13 G H3' 417 0.0522697 3.024000 ; qtot -11.752400
418 CT_ 13 G C2' 418 0.0569442 9.994000 ; qtot -11.685400
419 H1_ 13 G H2' 419 0.0826117 3.024000 ; qtot -11.588200
420 OH_ 13 G O2' 420 -0.521762 13.984000 ; qtot -12.202100
421 HO_ 13 G HO2' 421 0.355774 3.024000 ; qtot -11.783500
422 OS_ 13 G O3' 422 -0.445865 16.000000 ; qtot -12.308100
; residue   14 G_rtp G q -1.0
423 P_ 14 G P 423 0.99117 30.970000 ; qtot -11.141900
424 O2_ 14 G OP1 424 -0.659533 16.000000 ; qtot -11.917900
425 O2_ 14 G OP2 425 -0.659533 16.000000 ; qtot -12.693900
426 OS_ 14 G O5' 426 -0.424022 16.000000 ; qtot -13.192800
427 CI_ 14 G C5' 427 0.0474252 7.978000 ; qtot -13.137000
428 H1_ 14 G H5' 428 0.0577092 3.024000 ; qtot -13.069100
429 H1_ 14 G H5'' 429 0.0577092 3.024000 ; qtot -13.001200
430 CT_ 14 G C4' 430 0.0905159 9.994000 ; qtot -12.894700
431 H1_ 14 G H4' 431 0.0997799 3.024000 ; qtot -12.777300
432 OS_ 14 G O4' 432 -0.30155 16.000000 ; qtot -13.132100
433 CT_ 14 G C1' 433 0.0162334 9.994000 ; qtot -13.113000
434 H2_ 14 G H1' 434 0.170493 3.024000 ; qtot -12.912400
435 N*_ 14 G N9 435 0.0418158 14.010000 ; qtot -12.863200
436 CP_ 14 G C8 436 0.116778 9.994000 ; qtot -12.725800
437 H5_ 14 G H8 437 0.139386 3.024000 ; qtot -12.561800
438 NB_ 14 G N7 438 -0.485216 14.010000 ; qtot -13.132700
439 CB_ 14 G C5 439 0.148225 12.010000 ; qtot -12.958300
440 C_ 14 G C6 440 0.405409 12.010000 ; qtot -12.481300
441 O_ 14 G O6 441 -0.475697 16.000000 ; qtot -13.041000
442 NA_ 14 G N1 442 -0.406854 11.994000 ; qtot -13.519700
443 H_ 14 G H1 443 0.291011 3.024000 ; qtot -13.177300
444 CA_ 14 G C2 444 0.650779 12.010000 ; qtot -12.411600
445 N2_ 14 G N2 445 -0.822037 9.978000 ; qtot -13.378800
446 H_ 14 G H21 446 0.370903 3.024000 ; qtot -12.942400
447 H_ 14 G H22 447 0.370903 3.024000 ; qtot -12.506000
448 NC_ 14 G N3 448 -0.537401 14.010000 ; qtot -13.138300
449 CB_ 14 G C4 449 0.10386 12.010000 ; qtot -13.016100
450 CT_ 14 G C3' 450 0.171853 9.994000 ; qtot -12.813900
451 H1_ 14 G H3' 451 0.0522697 3.024000 ; qtot -12.752400
452 CT_ 14 G C2' 452 0.0569442 9.994000 ; qtot -12.685400
453 H1_ 14 G H2' 453 0.0826117 3.024000 ; qtot -12.588200
454 OH_ 14 G O2' 454 -0.521762 13.984000 ; qtot -13.202100
455 HO_ 14 G HO2' 455 0.355774 3.024000 ; qtot -12.783500
456 OS_ 14 G O3' 456 -0.445865 16.000000 ; qtot -13.308100
; residue   15 G_rtp G q -1.0
457 P_ 15 G P 457 0.99117 30.970000 ; qtot -12.141900
458 O2_ 15 G OP1 458 -0.659533 16.000000 ; qtot -12.917900
459 O2_ 15 G OP2 459 -0.659533 16.000000 ; qtot -13.693900
460 OS_ 15 G O5' 460 -0.424022 16.000000 ; qtot -14.192800
461 CI_ 15 G C5' 461 0.0474252 7.978000 ; qtot -14.137000
462 H1_ 15 G H5' 462 0.0577092 3.024000 ; qtot -14.069100
463 H1_ 15 G H5'' 463 0.0577092 3.024000 ; qtot -14.001200
464 CT_ 15 G C4' 464 0.0905159 9.994000 ; qtot -13.894700
465 H1_ 15 G H4' 465 0.0997799 3.024000 ; qtot -13.777300
466 OS_ 15 G O4' 466 -0.30155 16.000000 ; qtot -14.132100
467 CT_ 15 G C1' 467 0.0162334 9.994000 ; qtot -14.113000
468 H2_ 15 G H1' 468 0.170493 3.024000 ; qtot -13.912400
469 N*_ 15 G N9 469 0.0418158 14.010000 ; qtot -13.863200
470 CP_ 15 G C8 470 0.116778 9.994000 ; qtot -13.725800
471 H5_ 15 G H8 471 0.139386 3.024000 ; qtot -13.561800
472 NB_ 15 G N7 472 -0.485216 14.010000 ; qtot -14.132700
473 CB_ 15 G C5 473 0.148225 12.010000 ; qtot -13.958300
474 C_ 15 G C6 474 0.405409 12.010000 ; qtot -13.481300
475 O_ 15 G O6 475 -0.475697 16.000000 ; qtot -14.041000
476 NA_ 15 G N1 476 -0.406854 11.994000 ; qtot -14.519700
477 H_ 15 G H1 477 0.291011 3.024000 ; qtot -14.177300
478 CA_ 15 G C2 478 0.650779 12.010000 ; qtot -13.411600
479 N2_ 15 G N2 479 -0.822037 9.978000 ; qtot -14.378800
480 H_ 15 G H21 480 0.370903 3.024000 ; qtot -13.942400
481 H_ 15 G H22 481 0.370903 3.024000 ; qtot -13.506000
482 NC_ 15 G N3 482 -0.537401 14.010000 ; qtot -14.138300
483 CB_ 15 G C4 483 0.10386 12.010000 ; qtot -14.016100
484 CT_ 15 G C3' 484 0.171853 9.994000 ; qtot -13.813900
485 H1_ 15 G H3' 485 0.0522697 3.024000 ; qtot -13.752400
486 CT_ 15 G C2' 486 0.0569442 9.994000 ; qtot -13.685400
487 H1_ 15 G H2' 487 0.0826117 3.024000 ; qtot -13.588200
488 OH_ 15 G O2' 488 -0.521762 13.984000 ; qtot -14.202100
489 HO_ 15 G HO2' 489 0.355774 3.024000 ; qtot -13.783500
490 OS_ 15 G O3' 490 -0.445865 16.000000 ; qtot -14.308100
; residue   16 U_rtp U q -1.0
491 P_ 16 U P 491 0.99117 30.970000 ; qtot -13.141900
492 O2_ 16 U OP1 492 -0.659533 16.000000 ; qtot -13.917900
493 O2_ 16 U OP2 493 -0.659533 16.000000 ; qtot -14.693900
494 OS_ 16 U O5' 494 -0.424022 16.000000 ; qtot -15.192800
495 CI_ 16 U C5' 495 0.0474252 7.978000 ; qtot -15.137000
496 H1_ 16 U H5' 496 0.0577092 3.024000 ; qtot -15.069100
497 H1_ 16 U H5'' 497 0.0577092 3.024000 ; qtot -15.001200
498 CT_ 16 U C4' 498 0.0905159 9.994000 ; qtot -14.894700
499 H1_ 16 U H4' 499 0.0997799 3.024000 ; qtot -14.777300
500 OS_ 16 U O4' 500 -0.30155 16.000000 ; qtot -15.132100
501 CT_ 16 U C1' 501 0.0572842 9.994000 ; qtot -15.064700
502 H2_ 16 U H1' 502 0.155024 3.024000 ; qtot -14.882300
503 N*_ 16 U N1 503 0.0355264 14.010000 ; qtot -14.840500
504 CS_ 16 U C6 504 -0.0957003 9.994000 ; qtot -14.953100
505 H4_ 16 U H6 505 0.185961 3.024000 ; qtot -14.734300
506 CS_ 16 U C5 506 -0.308944 9.994000 ; qtot -15.097800
507 HA_ 16 U H5 507 0.153919 3.024000 ; qtot -14.916700
508 C_ 16 U C4 508 0.505869 12.010000 ; qtot -14.321500
509 O_ 16 U O4 509 -0.489636 16.000000 ; qtot -14.897600
510 NA_ 16 U N3 510 -0.301635 11.994000 ; qtot -15.252500
511 H_ 16 U H3 511 0.268063 3.024000 ; qtot -14.937100
512 C_ 16 U C2 512 0.398355 12.010000 ; qtot -14.468400
513 O_ 16 U O2 513 -0.465498 16.000000 ; qtot -15.016100
514 CT_ 16 U C3' 514 0.171853 9.994000 ; qtot -14.813900
515 H1_ 16 U H3' 515 0.0522697 3.024000 ; qtot -14.752400
516 CT_ 16 U C2' 516 0.0569442 9.994000 ; qtot -14.685400
517 H1_ 16 U H2' 517 0.0826117 3.024000 ; qtot -14.588200
518 OH_ 16 U O2' 518 -0.521762 13.984000 ; qtot -15.202100
519 HO_ 16 U HO2' 519 0.355774 3.024000 ; qtot -14.783500
520 OS_ 16 U O3' 520 -0.445865 16.000000 ; qtot -15.308100
; residue   17 U_rtp U q -1.0
521 P_ 17 U P 521 0.99117 30.970000 ; qtot -14.141900
522 O2_ 17 U OP1 522 -0.659533 16.000000 ; qtot -14.917900
523 O2_ 17 U OP2 523 -0.659533 16.000000 ; qtot -15.693900
524 OS_ 17 U O5' 524 -0.424022 16.000000 ; qtot -16.192800
525 CI_ 17 U C5' 525 0.0474252 7.978000 ; qtot -16.137000
526 H1_ 17 U H5' 526 0.0577092 3.024000 ; qtot -16.069100
527 H1_ 17 U H5'' 527 0.0577092 3.024000 ; qtot -16.001200
528 CT_ 17 U C4' 528 0.0905159 9.994000 ; qtot -15.894700
529 H1_ 17 U H4' 529 0.0997799 3.024000 ; qtot -15.777300
530 OS_ 17 U O4' 530 -0.30155 16.000000 ; qtot -16.132100
531 CT_ 17 U C1' 531 0.0572842 9.994000 ; qtot -16.064700
532 H2_ 17 U H1' 532 0.155024 3.024000 ; qtot -15.882300
533 N*_ 17 U N1 533 0.0355264 14.010000 ; qtot -15.840500
534 CS_ 17 U C6 534 -0.0957003 9.994000 ; qtot -15.953100
535 H4_ 17 U H6 535 0.185961 3.024000 ; qtot -15.734300
536 CS_ 17 U C5 536 -0.308944 9.994000 ; qtot -16.097800
537 HA_ 17 U H5 537 0.153919 3.024000 ; qtot -15.916700
538 C_ 17 U C4 538 0.505869 12.010000 ; qtot -15.321500
539 O_ 17 U O4 539 -0.489636 16.000000 ; qtot -15.897600
540 NA_ 17 U N3 540 -0.301635 11.994000 ; qtot -16.252500
541 H_ 17 U H3 541 0.268063 3.024000 ; qtot -15.937100
542 C_ 17 U C2 542 0.398355 12.010000 ; qtot -15.468400
543 O_ 17 U O2 543 -0.465498 16.000000 ; qtot -16.016100
544 CT_ 17 U C3' 544 0.171853 9.994000 ; qtot -15.813900
545 H1_ 17 U H3' 545 0.0522697 3.024000 ; qtot -15.752400
546 CT_ 17 U C2' 546 0.0569442 9.994000 ; qtot -15.685400
547 H1_ 17 U H2' 547 0.0826117 3.024000 ; qtot -15.588200
548 OH_ 17 U O2' 548 -0.521762 13.984000 ; qtot -16.202100
549 HO_ 17 U HO2' 549 0.355774 3.024000 ; qtot -15.783500
550 OS_ 17 U O3' 550 -0.445865 16.000000 ; qtot -16.308100
; residue   18 A_rtp A q -1.0
551 P_ 18 A P 551 0.99117 30.970000 ; qtot -15.141900
552 O2_ 18 A OP1 552 -0.659533 16.000000 ; qtot -15.917900
553 O2_ 18 A OP2 553 -0.659533 16.000000 ; qtot -16.693900
554 OS_ 18 A O5' 554 -0.424022 16.000000 ; qtot -17.192800
555 CI_ 18 A C5' 555 0.0474252 7.978000 ; qtot -17.137000
556 H1_ 18 A H5' 556 0.0577092 3.024000 ; qtot -17.069100
557 H1_ 18 A H5'' 557 0.0577092 3.024000 ; qtot -17.001200
558 CT_ 18 A C4' 558 0.0905159 9.994000 ; qtot -16.894700
559 H1_ 18 A H4' 559 0.0997799 3.024000 ; qtot -16.777300
560 OS_ 18 A O4' 560 -0.30155 16.000000 ; qtot -17.132100
561 CT_ 18 A C1' 561 0.0334866 9.994000 ; qtot -17.092700
562 H2_ 18 A H1' 562 0.170578 3.024000 ; qtot -16.892000
563 N*_ 18 A N9 563 -0.0213328 14.010000 ; qtot -16.917100
564 C5_ 18 A C8 564 0.170493 9.994000 ; qtot -16.716500
565 H5_ 18 A H8 565 0.131992 3.024000 ; qtot -16.561200
566 NB_ 18 A N7 566 -0.516153 14.010000 ; qtot -17.168500
567 CB_ 18 A C5 567 0.0437706 12.010000 ; qtot -17.117000
568 CA_ 18 A C6 568 0.595705 12.010000 ; qtot -16.416100
569 N2_ 18 A N6 569 -0.766538 9.978000 ; qtot -17.318000
570 H_ 18 A H61 570 0.34974 3.024000 ; qtot -16.906500
571 H_ 18 A H62 571 0.34974 3.024000 ; qtot -16.495000
572 NC_ 18 A N1 572 -0.64721 14.010000 ; qtot -17.256500
573 CQ_ 18 A C2 573 0.499325 9.994000 ; qtot -16.669000
574 H5_ 18 A H2 574 0.0402009 3.024000 ; qtot -16.621700
575 NC_ 18 A N3 575 -0.594685 14.010000 ; qtot -17.321400
576 CB_ 18 A C4 576 0.259479 12.010000 ; qtot -17.016100
577 CT_ 18 A C3' 577 0.171853 9.994000 ; qtot -16.813900
578 H1_ 18 A H3' 578 0.0522697 3.024000 ; qtot -16.752400
579 CT_ 18 A C2' 579 0.0569442 9.994000 ; qtot -16.685400
580 H1_ 18 A H2' 580 0.0826117 3.024000 ; qtot -16.588200
581 OH_ 18 A O2' 581 -0.521762 13.984000 ; qtot -17.202100
582 HO_ 18 A HO2' 582 0.355774 3.024000 ; qtot -16.783500
583 OS_ 18 A O3' 583 -0.445865 16.000000 ; qtot -17.308100
; residue   19 G_rtp G q -1.0
584 P_ 19 G P 584 0.99117 30.970000 ; qtot -16.141900
585 O2_ 19 G OP1 585 -0.659533 16.000000 ; qtot -16.917900
586 O2_ 19 G OP2 586 -0.659533 16.000000 ; qtot -17.693900
587 OS_ 19 G O5' 587 -0.424022 16.000000 ; qtot -18.192800
588 CI_ 19 G C5' 588 0.0474252 7.978000 ; qtot -18.137000
589 H1_ 19 G H5' 589 0.0577092 3.024000 ; qtot -18.069100
590 H1_ 19 G H5'' 590 0.0577092 3.024000 ; qtot -18.001200
591 CT_ 19 G C4' 591 0.0905159 9.994000 ; qtot -17.894700
592 H1_ 19 G H4' 592 0.0997799 3.024000 ; qtot -17.777300
593 OS_ 19 G O4' 593 -0.30155 16.000000 ; qtot -18.132100
594 CT_ 19 G C1' 594 0.0162334 9.994000 ; qtot -18.113000
595 H2_ 19 G H1' 595 0.170493 3.024000 ; qtot -17.912400
596 N*_ 19 G N9 596 0.0418158 14.010000 ; qtot -17.863200
597 CP_ 19 G C8 597 0.116778 9.994000 ; qtot -17.725800
598 H5_ 19 G H8 598 0.139386 3.024000 ; qtot -17.561800
599 NB_ 19 G N7 599 -0.485216 14.010000 ; qtot -18.132700
600 CB_ 19 G C5 600 0.148225 12.010000 ; qtot -17.958300
601 C_ 19 G C6 601 0.405409 12.010000 ; qtot -17.481300
602 O_ 19 G O6 602 -0.475697 16.000000 ; qtot -18.041000
603 NA_ 19 G N1 603 -0.406854 11.994000 ; qtot -18.519700
604 H_ 19 G H1 604 0.291011 3.024000 ; qtot -18.177300
605 CA_ 19 G C2 605 0.650779 12.010000 ; qtot -17.411600
606 N2_ 19 G N2 606 -0.822037 9.978000 ; qtot -18.378800
607 H_ 19 G H21 607 0.370903 3.024000 ; qtot -17.942400
608 H_ 19 G H22 608 0.370903 3.024000 ; qtot -17.506000
609 NC_ 19 G N3 609 -0.537401 14.010000 ; qtot -18.138300
610 CB_ 19 G C4 610 0.10386 12.010000 ; qtot -18.016100
611 CT_ 19 G C3' 611 0.171853 9.994000 ; qtot -17.813900
612 H1_ 19 G H3' 612 0.0522697 3.024000 ; qtot -17.752400
613 CT_ 19 G C2' 613 0.0569442 9.994000 ; qtot -17.685400
614 H1_ 19 G H2' 614 0.0826117 3.024000 ; qtot -17.588200
615 OH_ 19 G O2' 615 -0.521762 13.984000 ; qtot -18.202100
616 HO_ 19 G HO2' 616 0.355774 3.024000 ; qtot -17.783500
617 OS_ 19 G O3' 617 -0.445865 16.000000 ; qtot -18.308100
; residue   20 G_rtp G q -1.0
618 P_ 20 G P 618 0.99117 30.970000 ; qtot -17.141900
619 O2_ 20 G OP1 619 -0.659533 16.000000 ; qtot -17.917900
620 O2_ 20 G OP2 620 -0.659533 16.000000 ; qtot -18.693900
621 OS_ 20 G O5' 621 -0.424022 16.000000 ; qtot -19.192800
622 CI_ 20 G C5' 622 0.0474252 7.978000 ; qtot -19.137000
623 H1_ 20 G H5' 623 0.0577092 3.024000 ; qtot -19.069100
624 H1_ 20 G H5'' 624 0.0577092 3.024000 ; qtot -19.001200
625 CT_ 20 G C4' 625 0.0905159 9.994000 ; qtot -18.894700
626 H1_ 20 G H4' 626 0.0997799 3.024000 ; qtot -18.777300
627 OS_ 20 G O4' 627 -0.30155 16.000000 ; qtot -19.132100
628 CT_ 20 G C1' 628 0.0162334 9.994000 ; qtot -19.113000
629 H2_ 20 G H1' 629 0.170493 3.024000 ; qtot -18.912400
630 N*_ 20 G N9 630 0.0418158 14.010000 ; qtot -18.863200
631 CP_ 20 G C8 631 0.116778 9.994000 ; qtot -18.725800
632 H5_ 20 G H8 632 0.139386 3.024000 ; qtot -18.561800
633 NB_ 20 G N7 633 -0.485216 14.010000 ; qtot -19.132700
634 CB_ 20 G C5 634 0.148225 12.010000 ; qtot -18.958300
635 C_ 20 G C6 635 0.405409 12.010000 ; qtot -18.481300
636 O_ 20 G O6 636 -0.475697 16.000000 ; qtot -19.041000
637 NA_ 20 G N1 637 -0.406854 11.994000 ; qtot -19.519700
638 H_ 20 G H1 638 0.291011 3.024000 ; qtot -19.177300
639 CA_ 20 G C2 639 0.650779 12.010000 ; qtot -18.411600
640 N2_ 20 G N2 640 -0.822037 9.978000 ; qtot -19.378800
641 H_ 20 G H21 641 0.370903 3.024000 ; qtot -18.942400
642 H_ 20 G H22 642 0.370903 3.024000 ; qtot -18.506000
643 NC_ 20 G N3 643 -0.537401 14.010000 ; qtot -19.138300
644 CB_ 20 G C4 644 0.10386 12.010000 ; qtot -19.016100
645 CT_ 20 G C3' 645 0.171853 9.994000 ; qtot -18.813900
646 H1_ 20 G H3' 646 0.0522697 3.024000 ; qtot -18.752400
647 CT_ 20 G C2' 647 0.0569442 9.994000 ; qtot -18.685400
648 H1_ 20 G H2' 648 0.0826117 3.024000 ; qtot -18.588200
649 OH_ 20 G O2' 649 -0.521762 13.984000 ; qtot -19.202100
650 HO_ 20 G HO2' 650 0.355774 3.024000 ; qtot -18.783500
651 OS_ 20 G O3' 651 -0.445865 16.000000 ; qtot -19.308100
; residue   21 G_ rtp G3 q -0.7
652 P_ 21 G3 P 652 0.99117 30.970000 ; qtot -18.141900
653 O2_ 21 G3 OP1 653 -0.659533 16.000000 ; qtot -18.917900
654 O2_ 21 G3 OP2 654 -0.659533 16.000000 ; qtot -19.693900
655 OS_ 21 G3 O5' 655 -0.424022 16.000000 ; qtot -20.192800
656 CI_ 21 G3 C5' 656 0.0474252 7.978000 ; qtot -20.137000
657 H1_ 21 G3 H5' 657 0.0577092 3.024000 ; qtot -20.069100
658 H1_ 21 G3 H5'' 658 0.0577092 3.024000 ; qtot -20.001200
659 CT_ 21 G3 C4' 659 0.0905159 9.994000 ; qtot -19.894700
660 H1_ 21 G3 H4' 660 0.0997799 3.024000 ; qtot -19.777300
661 OS_ 21 G3 O4' 661 -0.30155 16.000000 ; qtot -20.132100
662 CT_ 21 G3 C1' 662 0.0162334 9.994000 ; qtot -20.113000
663 H2_ 21 G3 H1' 663 0.170493 3.024000 ; qtot -19.912400
664 N*_ 21 G3 N9 664 0.0418158 14.010000 ; qtot -19.863200
665 CP_ 21 G3 C8 665 0.116778 9.994000 ; qtot -19.725800
666 H5_ 21 G3 H8 666 0.139386 3.024000 ; qtot -19.561800
667 NB_ 21 G3 N7 667 -0.485216 14.010000 ; qtot -20.132700
668 CB_ 21 G3 C5 668 0.148225 12.010000 ; qtot -19.958300
669 C_ 21 G3 C6 669 0.405409 12.010000 ; qtot -19.481300
670 O_ 21 G3 O6 670 -0.475697 16.000000 ; qtot -20.041000
671 NA_ 21 G3 N1 671 -0.406854 11.994000 ; qtot -20.519700
672 H_ 21 G3 H1 672 0.291011 3.024000 ; qtot -20.177300
673 CA_ 21 G3 C2 673 0.650779 12.010000 ; qtot -19.411600
674 N2_ 21 G3 N2 674 -0.822037 9.978000 ; qtot -20.378800
675 H_ 21 G3 H21 675 0.370903 3.024000 ; qtot -19.942400
676 H_ 21 G3 H22 676 0.370903 3.024000 ; qtot -19.506000
677 NC_ 21 G3 N3 677 -0.537401 14.010000 ; qtot -20.138300
678 CB_ 21 G3 C4 678 0.10386 12.010000 ; qtot -20.016100
679 CT_ 21 G3 C3' 679 0.171853 9.994000 ; qtot -19.813900
680 H1_ 21 G3 H3' 680 0.0522697 3.024000 ; qtot -19.752400
681 CT_ 21 G3 C2' 681 0.0569442 9.994000 ; qtot -19.685400
682 H1_ 21 G3 H2' 682 0.0826117 3.024000 ; qtot -19.588200
683 OH_ 21 G3 O2' 683 -0.521762 13.984000 ; qtot -20.202100
684 HO_ 21 G3 HO2' 684 0.355774 3.024000 ; qtot -19.783500
685 OH_ 21 G3 O3' 685 -0.555929 13.984000 ; qtot -20.437600
686 HO_ 21 G3 HO3' 686 0.371922 3.024000 ; qtot -20.000000

[ bonds ] 
;    ai     aj funct         c0         c1         c2         c3
     32     33     1   0.16100 192464.000000 
     28     30     1   0.14100 267776.000000 
     26     28     1   0.15260 259408.000000 
     26     32     1   0.14100 267776.000000 
     24     25     1   0.13540 385764.800000 
     20     21     1   0.13400 402500.800000 
     20     24     1   0.13390 404174.400000 
     18     20     1   0.13810 357313.600000 
     16     17     1   0.12290 476976.000000 
     16     18     1   0.13880 349782.400000 
     15     16     1   0.14190 374049.600000 
     15     25     1   0.13700 435136.000000 
     14     15     1   0.13910 346435.200000 
     12     14     1   0.13040 442667.200000 
     11     12     1   0.13710 368192.000000 
     11     25     1   0.13740 364844.800000 
      9     11     1   0.14750 282001.600000 
      9     28     1   0.15260 259408.000000 
      8      9     1   0.14100 267776.000000 
      6      8     1   0.14100 267776.000000 
      6     26     1   0.15260 259408.000000 
      3      6     1   0.15260 259408.000000 
      2      3     1   0.14100 267776.000000 
     66     67     1   0.16100 192464.000000 
     62     64     1   0.14100 267776.000000 
     60     62     1   0.15260 259408.000000 
     60     66     1   0.14100 267776.000000 
     58     59     1   0.13540 385764.800000 
     54     55     1   0.13400 402500.800000 
     54     58     1   0.13390 404174.400000 
     52     54     1   0.13810 357313.600000 
     50     51     1   0.12290 476976.000000 
     50     52     1   0.13880 349782.400000 
     49     50     1   0.14190 374049.600000 
     49     59     1   0.13700 435136.000000 
     48     49     1   0.13910 346435.200000 
     46     48     1   0.13040 442667.200000 
     45     46     1   0.13710 368192.000000 
     45     59     1   0.13740 364844.800000 
     43     45     1   0.14750 282001.600000 
     43     62     1   0.15260 259408.000000 
     42     43     1   0.14100 267776.000000 
     40     42     1   0.14100 267776.000000 
     40     60     1   0.15260 259408.000000 
     37     40     1   0.15260 259408.000000 
     36     37     1   0.14100 267776.000000 
     33     34     1   0.14800 439320.000000 
     33     35     1   0.14800 439320.000000 
     33     36     1   0.16100 192464.000000 
    100    101     1   0.16100 192464.000000 
     96     98     1   0.14100 267776.000000 
     94     96     1   0.15260 259408.000000 
     94    100     1   0.14100 267776.000000 
     92     93     1   0.13540 385764.800000 
     88     89     1   0.13400 402500.800000 
     88     92     1   0.13390 404174.400000 
     86     88     1   0.13810 357313.600000 
     84     85     1   0.12290 476976.000000 
     84     86     1   0.13880 349782.400000 
     83     84     1   0.14190 374049.600000 
     83     93     1   0.13700 435136.000000 
     82     83     1   0.13910 346435.200000 
     80     82     1   0.13040 442667.200000 
     79     80     1   0.13710 368192.000000 
     79     93     1   0.13740 364844.800000 
     77     79     1   0.14750 282001.600000 
     77     96     1   0.15260 259408.000000 
     76     77     1   0.14100 267776.000000 
     74     76     1   0.14100 267776.000000 
     74     94     1   0.15260 259408.000000 
     71     74     1   0.15260 259408.000000 
     70     71     1   0.14100 267776.000000 
     67     68     1   0.14800 439320.000000 
     67     69     1   0.14800 439320.000000 
     67     70     1   0.16100 192464.000000 
    130    131     1   0.16100 192464.000000 
    126    128     1   0.14100 267776.000000 
    124    126     1   0.15260 259408.000000 
    124    130     1   0.14100 267776.000000 
    122    123     1   0.12290 476976.000000 
    120    122     1   0.13880 349782.400000 
    118    119     1   0.12290 476976.000000 
    118    120     1   0.13880 349782.400000 
    116    118     1   0.14440 343088.000000 
    114    116     1   0.13500 459403.200000 
    113    114     1   0.13650 374886.400000 
    113    122     1   0.13830 354803.200000 
    111    113     1   0.14750 282001.600000 
    111    126     1   0.15260 259408.000000 
    110    111     1   0.14100 267776.000000 
    108    110     1   0.14100 267776.000000 
    108    124     1   0.15260 259408.000000 
    105    108     1   0.15260 259408.000000 
    104    105     1   0.14100 267776.000000 
    101    102     1   0.14800 439320.000000 
    101    103     1   0.14800 439320.000000 
    101    104     1   0.16100 192464.000000 
    160    161     1   0.16100 192464.000000 
    156    158     1   0.14100 267776.000000 
    154    156     1   0.15260 259408.000000 
    154    160     1   0.14100 267776.000000 
    152    153     1   0.12290 476976.000000 
    150    152     1   0.13880 349782.400000 
    148    149     1   0.12290 476976.000000 
    148    150     1   0.13880 349782.400000 
    146    148     1   0.14440 343088.000000 
    144    146     1   0.13500 459403.200000 
    143    144     1   0.13650 374886.400000 
    143    152     1   0.13830 354803.200000 
    141    143     1   0.14750 282001.600000 
    141    156     1   0.15260 259408.000000 
    140    141     1   0.14100 267776.000000 
    138    140     1   0.14100 267776.000000 
    138    154     1   0.15260 259408.000000 
    135    138     1   0.15260 259408.000000 
    134    135     1   0.14100 267776.000000 
    131    132     1   0.14800 439320.000000 
    131    133     1   0.14800 439320.000000 
    131    134     1   0.16100 192464.000000 
    193    194     1   0.16100 192464.000000 
    189    191     1   0.14100 267776.000000 
    187    189     1   0.15260 259408.000000 
    187    193     1   0.14100 267776.000000 
    185    186     1   0.13540 385764.800000 
    183    185     1   0.13240 420073.600000 
    182    183     1   0.13240 420073.600000 
    178    179     1   0.13400 402500.800000 
    178    182     1   0.13390 404174.400000 
    177    178     1   0.14040 392459.200000 
    177    186     1   0.13700 435136.000000 
    176    177     1   0.13910 346435.200000 
    174    176     1   0.13040 442667.200000 
    173    174     1   0.13710 368192.000000 
    173    186     1   0.13740 364844.800000 
    171    173     1   0.14750 282001.600000 
    171    189     1   0.15260 259408.000000 
    170    171     1   0.14100 267776.000000 
    168    170     1   0.14100 267776.000000 
    168    187     1   0.15260 259408.000000 
    165    168     1   0.15260 259408.000000 
    164    165     1   0.14100 267776.000000 
    161    162     1   0.14800 439320.000000 
    161    163     1   0.14800 439320.000000 
    161    164     1   0.16100 192464.000000 
    227    228     1   0.16100 192464.000000 
    223    225     1   0.14100 267776.000000 
    221    223     1   0.15260 259408.000000 
    221    227     1   0.14100 267776.000000 
    219    220     1   0.13540 385764.800000 
    215    216     1   0.13400 402500.800000 
    215    219     1   0.13390 404174.400000 
    213    215     1   0.13810 357313.600000 
    211    212     1   0.12290 476976.000000 
    211    213     1   0.13880 349782.400000 
    210    211     1   0.14190 374049.600000 
    210    220     1   0.13700 435136.000000 
    209    210     1   0.13910 346435.200000 
    207    209     1   0.13040 442667.200000 
    206    207     1   0.13710 368192.000000 
    206    220     1   0.13740 364844.800000 
    204    206     1   0.14750 282001.600000 
    204    223     1   0.15260 259408.000000 
    203    204     1   0.14100 267776.000000 
    201    203     1   0.14100 267776.000000 
    201    221     1   0.15260 259408.000000 
    198    201     1   0.15260 259408.000000 
    197    198     1   0.14100 267776.000000 
    194    195     1   0.14800 439320.000000 
    194    196     1   0.14800 439320.000000 
    194    197     1   0.16100 192464.000000 
    261    262     1   0.16100 192464.000000 
    257    259     1   0.14100 267776.000000 
    255    257     1   0.15260 259408.000000 
    255    261     1   0.14100 267776.000000 
    253    254     1   0.13540 385764.800000 
    249    250     1   0.13400 402500.800000 
    249    253     1   0.13390 404174.400000 
    247    249     1   0.13810 357313.600000 
    245    246     1   0.12290 476976.000000 
    245    247     1   0.13880 349782.400000 
    244    245     1   0.14190 374049.600000 
    244    254     1   0.13700 435136.000000 
    243    244     1   0.13910 346435.200000 
    241    243     1   0.13040 442667.200000 
    240    241     1   0.13710 368192.000000 
    240    254     1   0.13740 364844.800000 
    238    240     1   0.14750 282001.600000 
    238    257     1   0.15260 259408.000000 
    237    238     1   0.14100 267776.000000 
    235    237     1   0.14100 267776.000000 
    235    255     1   0.15260 259408.000000 
    232    235     1   0.15260 259408.000000 
    231    232     1   0.14100 267776.000000 
    228    229     1   0.14800 439320.000000 
    228    230     1   0.14800 439320.000000 
    228    231     1   0.16100 192464.000000 
    295    296     1   0.16100 192464.000000 
    291    293     1   0.14100 267776.000000 
    289    291     1   0.15260 259408.000000 
    289    295     1   0.14100 267776.000000 
    287    288     1   0.13540 385764.800000 
    283    284     1   0.13400 402500.800000 
    283    287     1   0.13390 404174.400000 
    281    283     1   0.13810 357313.600000 
    279    280     1   0.12290 476976.000000 
    279    281     1   0.13880 349782.400000 
    278    279     1   0.14190 374049.600000 
    278    288     1   0.13700 435136.000000 
    277    278     1   0.13910 346435.200000 
    275    277     1   0.13040 442667.200000 
    274    275     1   0.13710 368192.000000 
    274    288     1   0.13740 364844.800000 
    272    274     1   0.14750 282001.600000 
    272    291     1   0.15260 259408.000000 
    271    272     1   0.14100 267776.000000 
    269    271     1   0.14100 267776.000000 
    269    289     1   0.15260 259408.000000 
    266    269     1   0.15260 259408.000000 
    265    266     1   0.14100 267776.000000 
    262    263     1   0.14800 439320.000000 
    262    264     1   0.14800 439320.000000 
    262    265     1   0.16100 192464.000000 
    325    326     1   0.16100 192464.000000 
    321    323     1   0.14100 267776.000000 
    319    321     1   0.15260 259408.000000 
    319    325     1   0.14100 267776.000000 
    317    318     1   0.12290 476976.000000 
    315    317     1   0.13880 349782.400000 
    313    314     1   0.12290 476976.000000 
    313    315     1   0.13880 349782.400000 
    311    313     1   0.14440 343088.000000 
    309    311     1   0.13500 459403.200000 
    308    309     1   0.13650 374886.400000 
    308    317     1   0.13830 354803.200000 
    306    308     1   0.14750 282001.600000 
    306    321     1   0.15260 259408.000000 
    305    306     1   0.14100 267776.000000 
    303    305     1   0.14100 267776.000000 
    303    319     1   0.15260 259408.000000 
    300    303     1   0.15260 259408.000000 
    299    300     1   0.14100 267776.000000 
    296    297     1   0.14800 439320.000000 
    296    298     1   0.14800 439320.000000 
    296    299     1   0.16100 192464.000000 
    355    356     1   0.16100 192464.000000 
    351    353     1   0.14100 267776.000000 
    349    351     1   0.15260 259408.000000 
    349    355     1   0.14100 267776.000000 
    347    348     1   0.12290 476976.000000 
    345    347     1   0.13880 349782.400000 
    343    344     1   0.12290 476976.000000 
    343    345     1   0.13880 349782.400000 
    341    343     1   0.14440 343088.000000 
    339    341     1   0.13500 459403.200000 
    338    339     1   0.13650 374886.400000 
    338    347     1   0.13830 354803.200000 
    336    338     1   0.14750 282001.600000 
    336    351     1   0.15260 259408.000000 
    335    336     1   0.14100 267776.000000 
    333    335     1   0.14100 267776.000000 
    333    349     1   0.15260 259408.000000 
    330    333     1   0.15260 259408.000000 
    329    330     1   0.14100 267776.000000 
    326    327     1   0.14800 439320.000000 
    326    328     1   0.14800 439320.000000 
    326    329     1   0.16100 192464.000000 
    388    389     1   0.16100 192464.000000 
    384    386     1   0.14100 267776.000000 
    382    384     1   0.15260 259408.000000 
    382    388     1   0.14100 267776.000000 
    380    381     1   0.13540 385764.800000 
    378    380     1   0.13240 420073.600000 
    377    378     1   0.13240 420073.600000 
    373    374     1   0.13400 402500.800000 
    373    377     1   0.13390 404174.400000 
    372    373     1   0.14040 392459.200000 
    372    381     1   0.13700 435136.000000 
    371    372     1   0.13910 346435.200000 
    369    371     1   0.13040 442667.200000 
    368    369     1   0.13710 368192.000000 
    368    381     1   0.13740 364844.800000 
    366    368     1   0.14750 282001.600000 
    366    384     1   0.15260 259408.000000 
    365    366     1   0.14100 267776.000000 
    363    365     1   0.14100 267776.000000 
    363    382     1   0.15260 259408.000000 
    360    363     1   0.15260 259408.000000 
    359    360     1   0.14100 267776.000000 
    356    357     1   0.14800 439320.000000 
    356    358     1   0.14800 439320.000000 
    356    359     1   0.16100 192464.000000 
    422    423     1   0.16100 192464.000000 
    418    420     1   0.14100 267776.000000 
    416    418     1   0.15260 259408.000000 
    416    422     1   0.14100 267776.000000 
    414    415     1   0.13540 385764.800000 
    410    411     1   0.13400 402500.800000 
    410    414     1   0.13390 404174.400000 
    408    410     1   0.13810 357313.600000 
    406    407     1   0.12290 476976.000000 
    406    408     1   0.13880 349782.400000 
    405    406     1   0.14190 374049.600000 
    405    415     1   0.13700 435136.000000 
    404    405     1   0.13910 346435.200000 
    402    404     1   0.13040 442667.200000 
    401    402     1   0.13710 368192.000000 
    401    415     1   0.13740 364844.800000 
    399    401     1   0.14750 282001.600000 
    399    418     1   0.15260 259408.000000 
    398    399     1   0.14100 267776.000000 
    396    398     1   0.14100 267776.000000 
    396    416     1   0.15260 259408.000000 
    393    396     1   0.15260 259408.000000 
    392    393     1   0.14100 267776.000000 
    389    390     1   0.14800 439320.000000 
    389    391     1   0.14800 439320.000000 
    389    392     1   0.16100 192464.000000 
    456    457     1   0.16100 192464.000000 
    452    454     1   0.14100 267776.000000 
    450    452     1   0.15260 259408.000000 
    450    456     1   0.14100 267776.000000 
    448    449     1   0.13540 385764.800000 
    444    445     1   0.13400 402500.800000 
    444    448     1   0.13390 404174.400000 
    442    444     1   0.13810 357313.600000 
    440    441     1   0.12290 476976.000000 
    440    442     1   0.13880 349782.400000 
    439    440     1   0.14190 374049.600000 
    439    449     1   0.13700 435136.000000 
    438    439     1   0.13910 346435.200000 
    436    438     1   0.13040 442667.200000 
    435    436     1   0.13710 368192.000000 
    435    449     1   0.13740 364844.800000 
    433    435     1   0.14750 282001.600000 
    433    452     1   0.15260 259408.000000 
    432    433     1   0.14100 267776.000000 
    430    432     1   0.14100 267776.000000 
    430    450     1   0.15260 259408.000000 
    427    430     1   0.15260 259408.000000 
    426    427     1   0.14100 267776.000000 
    423    424     1   0.14800 439320.000000 
    423    425     1   0.14800 439320.000000 
    423    426     1   0.16100 192464.000000 
    490    491     1   0.16100 192464.000000 
    486    488     1   0.14100 267776.000000 
    484    486     1   0.15260 259408.000000 
    484    490     1   0.14100 267776.000000 
    482    483     1   0.13540 385764.800000 
    478    479     1   0.13400 402500.800000 
    478    482     1   0.13390 404174.400000 
    476    478     1   0.13810 357313.600000 
    474    475     1   0.12290 476976.000000 
    474    476     1   0.13880 349782.400000 
    473    474     1   0.14190 374049.600000 
    473    483     1   0.13700 435136.000000 
    472    473     1   0.13910 346435.200000 
    470    472     1   0.13040 442667.200000 
    469    470     1   0.13710 368192.000000 
    469    483     1   0.13740 364844.800000 
    467    469     1   0.14750 282001.600000 
    467    486     1   0.15260 259408.000000 
    466    467     1   0.14100 267776.000000 
    464    466     1   0.14100 267776.000000 
    464    484     1   0.15260 259408.000000 
    461    464     1   0.15260 259408.000000 
    460    461     1   0.14100 267776.000000 
    457    458     1   0.14800 439320.000000 
    457    459     1   0.14800 439320.000000 
    457    460     1   0.16100 192464.000000 
    520    521     1   0.16100 192464.000000 
    516    518     1   0.14100 267776.000000 
    514    516     1   0.15260 259408.000000 
    514    520     1   0.14100 267776.000000 
    512    513     1   0.12290 476976.000000 
    510    512     1   0.13880 349782.400000 
    508    509     1   0.12290 476976.000000 
    508    510     1   0.13880 349782.400000 
    506    508     1   0.14440 343088.000000 
    504    506     1   0.13500 459403.200000 
    503    504     1   0.13650 374886.400000 
    503    512     1   0.13830 354803.200000 
    501    503     1   0.14750 282001.600000 
    501    516     1   0.15260 259408.000000 
    500    501     1   0.14100 267776.000000 
    498    500     1   0.14100 267776.000000 
    498    514     1   0.15260 259408.000000 
    495    498     1   0.15260 259408.000000 
    494    495     1   0.14100 267776.000000 
    491    492     1   0.14800 439320.000000 
    491    493     1   0.14800 439320.000000 
    491    494     1   0.16100 192464.000000 
    550    551     1   0.16100 192464.000000 
    546    548     1   0.14100 267776.000000 
    544    546     1   0.15260 259408.000000 
    544    550     1   0.14100 267776.000000 
    542    543     1   0.12290 476976.000000 
    540    542     1   0.13880 349782.400000 
    538    539     1   0.12290 476976.000000 
    538    540     1   0.13880 349782.400000 
    536    538     1   0.14440 343088.000000 
    534    536     1   0.13500 459403.200000 
    533    534     1   0.13650 374886.400000 
    533    542     1   0.13830 354803.200000 
    531    533     1   0.14750 282001.600000 
    531    546     1   0.15260 259408.000000 
    530    531     1   0.14100 267776.000000 
    528    530     1   0.14100 267776.000000 
    528    544     1   0.15260 259408.000000 
    525    528     1   0.15260 259408.000000 
    524    525     1   0.14100 267776.000000 
    521    522     1   0.14800 439320.000000 
    521    523     1   0.14800 439320.000000 
    521    524     1   0.16100 192464.000000 
    583    584     1   0.16100 192464.000000 
    579    581     1   0.14100 267776.000000 
    577    579     1   0.15260 259408.000000 
    577    583     1   0.14100 267776.000000 
    575    576     1   0.13540 385764.800000 
    573    575     1   0.13240 420073.600000 
    572    573     1   0.13240 420073.600000 
    568    569     1   0.13400 402500.800000 
    568    572     1   0.13390 404174.400000 
    567    568     1   0.14040 392459.200000 
    567    576     1   0.13700 435136.000000 
    566    567     1   0.13910 346435.200000 
    564    566     1   0.13040 442667.200000 
    563    564     1   0.13710 368192.000000 
    563    576     1   0.13740 364844.800000 
    561    563     1   0.14750 282001.600000 
    561    579     1   0.15260 259408.000000 
    560    561     1   0.14100 267776.000000 
    558    560     1   0.14100 267776.000000 
    558    577     1   0.15260 259408.000000 
    555    558     1   0.15260 259408.000000 
    554    555     1   0.14100 267776.000000 
    551    552     1   0.14800 439320.000000 
    551    553     1   0.14800 439320.000000 
    551    554     1   0.16100 192464.000000 
    617    618     1   0.16100 192464.000000 
    613    615     1   0.14100 267776.000000 
    611    613     1   0.15260 259408.000000 
    611    617     1   0.14100 267776.000000 
    609    610     1   0.13540 385764.800000 
    605    606     1   0.13400 402500.800000 
    605    609     1   0.13390 404174.400000 
    603    605     1   0.13810 357313.600000 
    601    602     1   0.12290 476976.000000 
    601    603     1   0.13880 349782.400000 
    600    601     1   0.14190 374049.600000 
    600    610     1   0.13700 435136.000000 
    599    600     1   0.13910 346435.200000 
    597    599     1   0.13040 442667.200000 
    596    597     1   0.13710 368192.000000 
    596    610     1   0.13740 364844.800000 
    594    596     1   0.14750 282001.600000 
    594    613     1   0.15260 259408.000000 
    593    594     1   0.14100 267776.000000 
    591    593     1   0.14100 267776.000000 
    591    611     1   0.15260 259408.000000 
    588    591     1   0.15260 259408.000000 
    587    588     1   0.14100 267776.000000 
    584    585     1   0.14800 439320.000000 
    584    586     1   0.14800 439320.000000 
    584    587     1   0.16100 192464.000000 
    651    652     1   0.16100 192464.000000 
    647    649     1   0.14100 267776.000000 
    645    647     1   0.15260 259408.000000 
    645    651     1   0.14100 267776.000000 
    643    644     1   0.13540 385764.800000 
    639    640     1   0.13400 402500.800000 
    639    643     1   0.13390 404174.400000 
    637    639     1   0.13810 357313.600000 
    635    636     1   0.12290 476976.000000 
    635    637     1   0.13880 349782.400000 
    634    635     1   0.14190 374049.600000 
    634    644     1   0.13700 435136.000000 
    633    634     1   0.13910 346435.200000 
    631    633     1   0.13040 442667.200000 
    630    631     1   0.13710 368192.000000 
    630    644     1   0.13740 364844.800000 
    628    630     1   0.14750 282001.600000 
    628    647     1   0.15260 259408.000000 
    627    628     1   0.14100 267776.000000 
    625    627     1   0.14100 267776.000000 
    625    645     1   0.15260 259408.000000 
    622    625     1   0.15260 259408.000000 
    621    622     1   0.14100 267776.000000 
    618    619     1   0.14800 439320.000000 
    618    620     1   0.14800 439320.000000 
    618    621     1   0.16100 192464.000000 
    681    683     1   0.14100 267776.000000 
    679    681     1   0.15260 259408.000000 
    679    685     1   0.14100 267776.000000 
    677    678     1   0.13540 385764.800000 
    673    674     1   0.13400 402500.800000 
    673    677     1   0.13390 404174.400000 
    671    673     1   0.13810 357313.600000 
    669    670     1   0.12290 476976.000000 
    669    671     1   0.13880 349782.400000 
    668    669     1   0.14190 374049.600000 
    668    678     1   0.13700 435136.000000 
    667    668     1   0.13910 346435.200000 
    665    667     1   0.13040 442667.200000 
    664    665     1   0.13710 368192.000000 
    664    678     1   0.13740 364844.800000 
    662    664     1   0.14750 282001.600000 
    662    681     1   0.15260 259408.000000 
    661    662     1   0.14100 267776.000000 
    659    661     1   0.14100 267776.000000 
    659    679     1   0.15260 259408.000000 
    656    659     1   0.15260 259408.000000 
    655    656     1   0.14100 267776.000000 
    652    653     1   0.14800 439320.000000 
    652    654     1   0.14800 439320.000000 
    652    655     1   0.16100 192464.000000 
     30     31     1   0.09600 462750.400000 
     28     29     1   0.10900 284512.000000 
     26     27     1   0.10900 284512.000000 
     21     22     1   0.10100 363171.200000 
     21     23     1   0.10100 363171.200000 
     18     19     1   0.10100 363171.200000 
     12     13     1   0.10800 307105.600000 
      9     10     1   0.10900 284512.000000 
      6      7     1   0.10900 284512.000000 
      3      4     1   0.10900 284512.000000 
      3      5     1   0.10900 284512.000000 
      1      2     1   0.09600 462750.400000 
     64     65     1   0.09600 462750.400000 
     62     63     1   0.10900 284512.000000 
     60     61     1   0.10900 284512.000000 
     55     56     1   0.10100 363171.200000 
     55     57     1   0.10100 363171.200000 
     52     53     1   0.10100 363171.200000 
     46     47     1   0.10800 307105.600000 
     43     44     1   0.10900 284512.000000 
     40     41     1   0.10900 284512.000000 
     37     38     1   0.10900 284512.000000 
     37     39     1   0.10900 284512.000000 
     98     99     1   0.09600 462750.400000 
     96     97     1   0.10900 284512.000000 
     94     95     1   0.10900 284512.000000 
     89     90     1   0.10100 363171.200000 
     89     91     1   0.10100 363171.200000 
     86     87     1   0.10100 363171.200000 
     80     81     1   0.10800 307105.600000 
     77     78     1   0.10900 284512.000000 
     74     75     1   0.10900 284512.000000 
     71     72     1   0.10900 284512.000000 
     71     73     1   0.10900 284512.000000 
    128    129     1   0.09600 462750.400000 
    126    127     1   0.10900 284512.000000 
    124    125     1   0.10900 284512.000000 
    120    121     1   0.10100 363171.200000 
    116    117     1   0.10800 307105.600000 
    114    115     1   0.10800 307105.600000 
    111    112     1   0.10900 284512.000000 
    108    109     1   0.10900 284512.000000 
    105    106     1   0.10900 284512.000000 
    105    107     1   0.10900 284512.000000 
    158    159     1   0.09600 462750.400000 
    156    157     1   0.10900 284512.000000 
    154    155     1   0.10900 284512.000000 
    150    151     1   0.10100 363171.200000 
    146    147     1   0.10800 307105.600000 
    144    145     1   0.10800 307105.600000 
    141    142     1   0.10900 284512.000000 
    138    139     1   0.10900 284512.000000 
    135    136     1   0.10900 284512.000000 
    135    137     1   0.10900 284512.000000 
    191    192     1   0.09600 462750.400000 
    189    190     1   0.10900 284512.000000 
    187    188     1   0.10900 284512.000000 
    183    184     1   0.10800 307105.600000 
    179    180     1   0.10100 363171.200000 
    179    181     1   0.10100 363171.200000 
    174    175     1   0.10800 307105.600000 
    171    172     1   0.10900 284512.000000 
    168    169     1   0.10900 284512.000000 
    165    166     1   0.10900 284512.000000 
    165    167     1   0.10900 284512.000000 
    225    226     1   0.09600 462750.400000 
    223    224     1   0.10900 284512.000000 
    221    222     1   0.10900 284512.000000 
    216    217     1   0.10100 363171.200000 
    216    218     1   0.10100 363171.200000 
    213    214     1   0.10100 363171.200000 
    207    208     1   0.10800 307105.600000 
    204    205     1   0.10900 284512.000000 
    201    202     1   0.10900 284512.000000 
    198    199     1   0.10900 284512.000000 
    198    200     1   0.10900 284512.000000 
    259    260     1   0.09600 462750.400000 
    257    258     1   0.10900 284512.000000 
    255    256     1   0.10900 284512.000000 
    250    251     1   0.10100 363171.200000 
    250    252     1   0.10100 363171.200000 
    247    248     1   0.10100 363171.200000 
    241    242     1   0.10800 307105.600000 
    238    239     1   0.10900 284512.000000 
    235    236     1   0.10900 284512.000000 
    232    233     1   0.10900 284512.000000 
    232    234     1   0.10900 284512.000000 
    293    294     1   0.09600 462750.400000 
    291    292     1   0.10900 284512.000000 
    289    290     1   0.10900 284512.000000 
    284    285     1   0.10100 363171.200000 
    284    286     1   0.10100 363171.200000 
    281    282     1   0.10100 363171.200000 
    275    276     1   0.10800 307105.600000 
    272    273     1   0.10900 284512.000000 
    269    270     1   0.10900 284512.000000 
    266    267     1   0.10900 284512.000000 
    266    268     1   0.10900 284512.000000 
    323    324     1   0.09600 462750.400000 
    321    322     1   0.10900 284512.000000 
    319    320     1   0.10900 284512.000000 
    315    316     1   0.10100 363171.200000 
    311    312     1   0.10800 307105.600000 
    309    310     1   0.10800 307105.600000 
    306    307     1   0.10900 284512.000000 
    303    304     1   0.10900 284512.000000 
    300    301     1   0.10900 284512.000000 
    300    302     1   0.10900 284512.000000 
    353    354     1   0.09600 462750.400000 
    351    352     1   0.10900 284512.000000 
    349    350     1   0.10900 284512.000000 
    345    346     1   0.10100 363171.200000 
    341    342     1   0.10800 307105.600000 
    339    340     1   0.10800 307105.600000 
    336    337     1   0.10900 284512.000000 
    333    334     1   0.10900 284512.000000 
    330    331     1   0.10900 284512.000000 
    330    332     1   0.10900 284512.000000 
    386    387     1   0.09600 462750.400000 
    384    385     1   0.10900 284512.000000 
    382    383     1   0.10900 284512.000000 
    378    379     1   0.10800 307105.600000 
    374    375     1   0.10100 363171.200000 
    374    376     1   0.10100 363171.200000 
    369    370     1   0.10800 307105.600000 
    366    367     1   0.10900 284512.000000 
    363    364     1   0.10900 284512.000000 
    360    361     1   0.10900 284512.000000 
    360    362     1   0.10900 284512.000000 
    420    421     1   0.09600 462750.400000 
    418    419     1   0.10900 284512.000000 
    416    417     1   0.10900 284512.000000 
    411    412     1   0.10100 363171.200000 
    411    413     1   0.10100 363171.200000 
    408    409     1   0.10100 363171.200000 
    402    403     1   0.10800 307105.600000 
    399    400     1   0.10900 284512.000000 
    396    397     1   0.10900 284512.000000 
    393    394     1   0.10900 284512.000000 
    393    395     1   0.10900 284512.000000 
    454    455     1   0.09600 462750.400000 
    452    453     1   0.10900 284512.000000 
    450    451     1   0.10900 284512.000000 
    445    446     1   0.10100 363171.200000 
    445    447     1   0.10100 363171.200000 
    442    443     1   0.10100 363171.200000 
    436    437     1   0.10800 307105.600000 
    433    434     1   0.10900 284512.000000 
    430    431     1   0.10900 284512.000000 
    427    428     1   0.10900 284512.000000 
    427    429     1   0.10900 284512.000000 
    488    489     1   0.09600 462750.400000 
    486    487     1   0.10900 284512.000000 
    484    485     1   0.10900 284512.000000 
    479    480     1   0.10100 363171.200000 
    479    481     1   0.10100 363171.200000 
    476    477     1   0.10100 363171.200000 
    470    471     1   0.10800 307105.600000 
    467    468     1   0.10900 284512.000000 
    464    465     1   0.10900 284512.000000 
    461    462     1   0.10900 284512.000000 
    461    463     1   0.10900 284512.000000 
    518    519     1   0.09600 462750.400000 
    516    517     1   0.10900 284512.000000 
    514    515     1   0.10900 284512.000000 
    510    511     1   0.10100 363171.200000 
    506    507     1   0.10800 307105.600000 
    504    505     1   0.10800 307105.600000 
    501    502     1   0.10900 284512.000000 
    498    499     1   0.10900 284512.000000 
    495    496     1   0.10900 284512.000000 
    495    497     1   0.10900 284512.000000 
    548    549     1   0.09600 462750.400000 
    546    547     1   0.10900 284512.000000 
    544    545     1   0.10900 284512.000000 
    540    541     1   0.10100 363171.200000 
    536    537     1   0.10800 307105.600000 
    534    535     1   0.10800 307105.600000 
    531    532     1   0.10900 284512.000000 
    528    529     1   0.10900 284512.000000 
    525    526     1   0.10900 284512.000000 
    525    527     1   0.10900 284512.000000 
    581    582     1   0.09600 462750.400000 
    579    580     1   0.10900 284512.000000 
    577    578     1   0.10900 284512.000000 
    573    574     1   0.10800 307105.600000 
    569    570     1   0.10100 363171.200000 
    569    571     1   0.10100 363171.200000 
    564    565     1   0.10800 307105.600000 
    561    562     1   0.10900 284512.000000 
    558    559     1   0.10900 284512.000000 
    555    556     1   0.10900 284512.000000 
    555    557     1   0.10900 284512.000000 
    615    616     1   0.09600 462750.400000 
    613    614     1   0.10900 284512.000000 
    611    612     1   0.10900 284512.000000 
    606    607     1   0.10100 363171.200000 
    606    608     1   0.10100 363171.200000 
    603    604     1   0.10100 363171.200000 
    597    598     1   0.10800 307105.600000 
    594    595     1   0.10900 284512.000000 
    591    592     1   0.10900 284512.000000 
    588    589     1   0.10900 284512.000000 
    588    590     1   0.10900 284512.000000 
    649    650     1   0.09600 462750.400000 
    647    648     1   0.10900 284512.000000 
    645    646     1   0.10900 284512.000000 
    640    641     1   0.10100 363171.200000 
    640    642     1   0.10100 363171.200000 
    637    638     1   0.10100 363171.200000 
    631    632     1   0.10800 307105.600000 
    628    629     1   0.10900 284512.000000 
    625    626     1   0.10900 284512.000000 
    622    623     1   0.10900 284512.000000 
    622    624     1   0.10900 284512.000000 
    685    686     1   0.09600 462750.400000 
    683    684     1   0.09600 462750.400000 
    681    682     1   0.10900 284512.000000 
    679    680     1   0.10900 284512.000000 
    674    675     1   0.10100 363171.200000 
    674    676     1   0.10100 363171.200000 
    671    672     1   0.10100 363171.200000 
    665    666     1   0.10800 307105.600000 
    662    663     1   0.10900 284512.000000 
    659    660     1   0.10900 284512.000000 
    656    657     1   0.10900 284512.000000 
    656    658     1   0.10900 284512.000000 

[ pairs ] 
;    ai     aj funct         c0         c1         c2         c3
     32     37     1 
     30     32     1 
     28     33     1 
     26     34     1 
     26     35     1 
     26     36     1 
     25     28     1 
     21     25     1 
     18     25     1 
     17     25     1 
     17     20     1 
     16     24     1 
     16     21     1 
     15     20     1 
     14     17     1 
     14     18     1 
     14     24     1 
     12     28     1 
     12     24     1 
     12     16     1 
     11     26     1 
     11     30     1 
     11     16     1 
     11     20     1 
      9     14     1 
      9     15     1 
      9     24     1 
      9     32     1 
      8     32     1 
      8     12     1 
      8     25     1 
      8     30     1 
      6     11     1 
      6     30     1 
      6     33     1 
      3      9     1 
      3     28     1 
      3     32     1 
      2      8     1 
      2     26     1 
     66     71     1 
     64     66     1 
     62     67     1 
     60     68     1 
     60     69     1 
     60     70     1 
     59     62     1 
     55     59     1 
     52     59     1 
     51     59     1 
     51     54     1 
     50     58     1 
     50     55     1 
     49     54     1 
     48     51     1 
     48     52     1 
     48     58     1 
     46     62     1 
     46     58     1 
     46     50     1 
     45     60     1 
     45     64     1 
     45     50     1 
     45     54     1 
     43     48     1 
     43     49     1 
     43     58     1 
     43     66     1 
     42     66     1 
     42     46     1 
     42     59     1 
     42     64     1 
     40     45     1 
     40     64     1 
     40     67     1 
     37     43     1 
     37     62     1 
     37     66     1 
     36     42     1 
     36     60     1 
     35     37     1 
     34     37     1 
     33     40     1 
    100    105     1 
     98    100     1 
     96    101     1 
     94    102     1 
     94    103     1 
     94    104     1 
     93     96     1 
     89     93     1 
     86     93     1 
     85     93     1 
     85     88     1 
     84     92     1 
     84     89     1 
     83     88     1 
     82     85     1 
     82     86     1 
     82     92     1 
     80     96     1 
     80     92     1 
     80     84     1 
     79     94     1 
     79     98     1 
     79     84     1 
     79     88     1 
     77     82     1 
     77     83     1 
     77     92     1 
     77    100     1 
     76    100     1 
     76     80     1 
     76     93     1 
     76     98     1 
     74     79     1 
     74     98     1 
     74    101     1 
     71     77     1 
     71     96     1 
     71    100     1 
     70     76     1 
     70     94     1 
     69     71     1 
     68     71     1 
     67     74     1 
    130    135     1 
    128    130     1 
    126    131     1 
    124    132     1 
    124    133     1 
    124    134     1 
    122    126     1 
    119    122     1 
    118    123     1 
    116    122     1 
    114    126     1 
    114    120     1 
    114    123     1 
    114    119     1 
    113    124     1 
    113    128     1 
    113    118     1 
    111    116     1 
    111    120     1 
    111    123     1 
    111    130     1 
    110    130     1 
    110    114     1 
    110    122     1 
    110    128     1 
    108    113     1 
    108    128     1 
    108    131     1 
    105    111     1 
    105    126     1 
    105    130     1 
    104    110     1 
    104    124     1 
    103    105     1 
    102    105     1 
    101    108     1 
    160    165     1 
    158    160     1 
    156    161     1 
    154    162     1 
    154    163     1 
    154    164     1 
    152    156     1 
    149    152     1 
    148    153     1 
    146    152     1 
    144    156     1 
    144    150     1 
    144    153     1 
    144    149     1 
    143    154     1 
    143    158     1 
    143    148     1 
    141    146     1 
    141    150     1 
    141    153     1 
    141    160     1 
    140    160     1 
    140    144     1 
    140    152     1 
    140    158     1 
    138    143     1 
    138    158     1 
    138    161     1 
    135    141     1 
    135    156     1 
    135    160     1 
    134    140     1 
    134    154     1 
    133    135     1 
    132    135     1 
    131    138     1 
    193    198     1 
    191    193     1 
    189    194     1 
    187    195     1 
    187    196     1 
    187    197     1 
    186    189     1 
    182    186     1 
    179    186     1 
    179    183     1 
    178    185     1 
    177    183     1 
    176    179     1 
    176    182     1 
    176    185     1 
    174    189     1 
    174    185     1 
    174    178     1 
    173    187     1 
    173    191     1 
    173    178     1 
    173    183     1 
    171    176     1 
    171    177     1 
    171    185     1 
    171    193     1 
    170    193     1 
    170    174     1 
    170    186     1 
    170    191     1 
    168    173     1 
    168    191     1 
    168    194     1 
    165    171     1 
    165    189     1 
    165    193     1 
    164    170     1 
    164    187     1 
    163    165     1 
    162    165     1 
    161    168     1 
    227    232     1 
    225    227     1 
    223    228     1 
    221    229     1 
    221    230     1 
    221    231     1 
    220    223     1 
    216    220     1 
    213    220     1 
    212    220     1 
    212    215     1 
    211    219     1 
    211    216     1 
    210    215     1 
    209    212     1 
    209    213     1 
    209    219     1 
    207    223     1 
    207    219     1 
    207    211     1 
    206    221     1 
    206    225     1 
    206    211     1 
    206    215     1 
    204    209     1 
    204    210     1 
    204    219     1 
    204    227     1 
    203    227     1 
    203    207     1 
    203    220     1 
    203    225     1 
    201    206     1 
    201    225     1 
    201    228     1 
    198    204     1 
    198    223     1 
    198    227     1 
    197    203     1 
    197    221     1 
    196    198     1 
    195    198     1 
    194    201     1 
    261    266     1 
    259    261     1 
    257    262     1 
    255    263     1 
    255    264     1 
    255    265     1 
    254    257     1 
    250    254     1 
    247    254     1 
    246    254     1 
    246    249     1 
    245    253     1 
    245    250     1 
    244    249     1 
    243    246     1 
    243    247     1 
    243    253     1 
    241    257     1 
    241    253     1 
    241    245     1 
    240    255     1 
    240    259     1 
    240    245     1 
    240    249     1 
    238    243     1 
    238    244     1 
    238    253     1 
    238    261     1 
    237    261     1 
    237    241     1 
    237    254     1 
    237    259     1 
    235    240     1 
    235    259     1 
    235    262     1 
    232    238     1 
    232    257     1 
    232    261     1 
    231    237     1 
    231    255     1 
    230    232     1 
    229    232     1 
    228    235     1 
    295    300     1 
    293    295     1 
    291    296     1 
    289    297     1 
    289    298     1 
    289    299     1 
    288    291     1 
    284    288     1 
    281    288     1 
    280    288     1 
    280    283     1 
    279    287     1 
    279    284     1 
    278    283     1 
    277    280     1 
    277    281     1 
    277    287     1 
    275    291     1 
    275    287     1 
    275    279     1 
    274    289     1 
    274    293     1 
    274    279     1 
    274    283     1 
    272    277     1 
    272    278     1 
    272    287     1 
    272    295     1 
    271    295     1 
    271    275     1 
    271    288     1 
    271    293     1 
    269    274     1 
    269    293     1 
    269    296     1 
    266    272     1 
    266    291     1 
    266    295     1 
    265    271     1 
    265    289     1 
    264    266     1 
    263    266     1 
    262    269     1 
    325    330     1 
    323    325     1 
    321    326     1 
    319    327     1 
    319    328     1 
    319    329     1 
    317    321     1 
    314    317     1 
    313    318     1 
    311    317     1 
    309    321     1 
    309    315     1 
    309    318     1 
    309    314     1 
    308    319     1 
    308    323     1 
    308    313     1 
    306    311     1 
    306    315     1 
    306    318     1 
    306    325     1 
    305    325     1 
    305    309     1 
    305    317     1 
    305    323     1 
    303    308     1 
    303    323     1 
    303    326     1 
    300    306     1 
    300    321     1 
    300    325     1 
    299    305     1 
    299    319     1 
    298    300     1 
    297    300     1 
    296    303     1 
    355    360     1 
    353    355     1 
    351    356     1 
    349    357     1 
    349    358     1 
    349    359     1 
    347    351     1 
    344    347     1 
    343    348     1 
    341    347     1 
    339    351     1 
    339    345     1 
    339    348     1 
    339    344     1 
    338    349     1 
    338    353     1 
    338    343     1 
    336    341     1 
    336    345     1 
    336    348     1 
    336    355     1 
    335    355     1 
    335    339     1 
    335    347     1 
    335    353     1 
    333    338     1 
    333    353     1 
    333    356     1 
    330    336     1 
    330    351     1 
    330    355     1 
    329    335     1 
    329    349     1 
    328    330     1 
    327    330     1 
    326    333     1 
    388    393     1 
    386    388     1 
    384    389     1 
    382    390     1 
    382    391     1 
    382    392     1 
    381    384     1 
    377    381     1 
    374    381     1 
    374    378     1 
    373    380     1 
    372    378     1 
    371    374     1 
    371    377     1 
    371    380     1 
    369    384     1 
    369    380     1 
    369    373     1 
    368    382     1 
    368    386     1 
    368    373     1 
    368    378     1 
    366    371     1 
    366    372     1 
    366    380     1 
    366    388     1 
    365    388     1 
    365    369     1 
    365    381     1 
    365    386     1 
    363    368     1 
    363    386     1 
    363    389     1 
    360    366     1 
    360    384     1 
    360    388     1 
    359    365     1 
    359    382     1 
    358    360     1 
    357    360     1 
    356    363     1 
    422    427     1 
    420    422     1 
    418    423     1 
    416    424     1 
    416    425     1 
    416    426     1 
    415    418     1 
    411    415     1 
    408    415     1 
    407    415     1 
    407    410     1 
    406    414     1 
    406    411     1 
    405    410     1 
    404    407     1 
    404    408     1 
    404    414     1 
    402    418     1 
    402    414     1 
    402    406     1 
    401    416     1 
    401    420     1 
    401    406     1 
    401    410     1 
    399    404     1 
    399    405     1 
    399    414     1 
    399    422     1 
    398    422     1 
    398    402     1 
    398    415     1 
    398    420     1 
    396    401     1 
    396    420     1 
    396    423     1 
    393    399     1 
    393    418     1 
    393    422     1 
    392    398     1 
    392    416     1 
    391    393     1 
    390    393     1 
    389    396     1 
    456    461     1 
    454    456     1 
    452    457     1 
    450    458     1 
    450    459     1 
    450    460     1 
    449    452     1 
    445    449     1 
    442    449     1 
    441    449     1 
    441    444     1 
    440    448     1 
    440    445     1 
    439    444     1 
    438    441     1 
    438    442     1 
    438    448     1 
    436    452     1 
    436    448     1 
    436    440     1 
    435    450     1 
    435    454     1 
    435    440     1 
    435    444     1 
    433    438     1 
    433    439     1 
    433    448     1 
    433    456     1 
    432    456     1 
    432    436     1 
    432    449     1 
    432    454     1 
    430    435     1 
    430    454     1 
    430    457     1 
    427    433     1 
    427    452     1 
    427    456     1 
    426    432     1 
    426    450     1 
    425    427     1 
    424    427     1 
    423    430     1 
    490    495     1 
    488    490     1 
    486    491     1 
    484    492     1 
    484    493     1 
    484    494     1 
    483    486     1 
    479    483     1 
    476    483     1 
    475    483     1 
    475    478     1 
    474    482     1 
    474    479     1 
    473    478     1 
    472    475     1 
    472    476     1 
    472    482     1 
    470    486     1 
    470    482     1 
    470    474     1 
    469    484     1 
    469    488     1 
    469    474     1 
    469    478     1 
    467    472     1 
    467    473     1 
    467    482     1 
    467    490     1 
    466    490     1 
    466    470     1 
    466    483     1 
    466    488     1 
    464    469     1 
    464    488     1 
    464    491     1 
    461    467     1 
    461    486     1 
    461    490     1 
    460    466     1 
    460    484     1 
    459    461     1 
    458    461     1 
    457    464     1 
    520    525     1 
    518    520     1 
    516    521     1 
    514    522     1 
    514    523     1 
    514    524     1 
    512    516     1 
    509    512     1 
    508    513     1 
    506    512     1 
    504    516     1 
    504    510     1 
    504    513     1 
    504    509     1 
    503    514     1 
    503    518     1 
    503    508     1 
    501    506     1 
    501    510     1 
    501    513     1 
    501    520     1 
    500    520     1 
    500    504     1 
    500    512     1 
    500    518     1 
    498    503     1 
    498    518     1 
    498    521     1 
    495    501     1 
    495    516     1 
    495    520     1 
    494    500     1 
    494    514     1 
    493    495     1 
    492    495     1 
    491    498     1 
    550    555     1 
    548    550     1 
    546    551     1 
    544    552     1 
    544    553     1 
    544    554     1 
    542    546     1 
    539    542     1 
    538    543     1 
    536    542     1 
    534    546     1 
    534    540     1 
    534    543     1 
    534    539     1 
    533    544     1 
    533    548     1 
    533    538     1 
    531    536     1 
    531    540     1 
    531    543     1 
    531    550     1 
    530    550     1 
    530    534     1 
    530    542     1 
    530    548     1 
    528    533     1 
    528    548     1 
    528    551     1 
    525    531     1 
    525    546     1 
    525    550     1 
    524    530     1 
    524    544     1 
    523    525     1 
    522    525     1 
    521    528     1 
    583    588     1 
    581    583     1 
    579    584     1 
    577    585     1 
    577    586     1 
    577    587     1 
    576    579     1 
    572    576     1 
    569    576     1 
    569    573     1 
    568    575     1 
    567    573     1 
    566    569     1 
    566    572     1 
    566    575     1 
    564    579     1 
    564    575     1 
    564    568     1 
    563    577     1 
    563    581     1 
    563    568     1 
    563    573     1 
    561    566     1 
    561    567     1 
    561    575     1 
    561    583     1 
    560    583     1 
    560    564     1 
    560    576     1 
    560    581     1 
    558    563     1 
    558    581     1 
    558    584     1 
    555    561     1 
    555    579     1 
    555    583     1 
    554    560     1 
    554    577     1 
    553    555     1 
    552    555     1 
    551    558     1 
    617    622     1 
    615    617     1 
    613    618     1 
    611    619     1 
    611    620     1 
    611    621     1 
    610    613     1 
    606    610     1 
    603    610     1 
    602    610     1 
    602    605     1 
    601    609     1 
    601    606     1 
    600    605     1 
    599    602     1 
    599    603     1 
    599    609     1 
    597    613     1 
    597    609     1 
    597    601     1 
    596    611     1 
    596    615     1 
    596    601     1 
    596    605     1 
    594    599     1 
    594    600     1 
    594    609     1 
    594    617     1 
    593    617     1 
    593    597     1 
    593    610     1 
    593    615     1 
    591    596     1 
    591    615     1 
    591    618     1 
    588    594     1 
    588    613     1 
    588    617     1 
    587    593     1 
    587    611     1 
    586    588     1 
    585    588     1 
    584    591     1 
    651    656     1 
    649    651     1 
    647    652     1 
    645    653     1 
    645    654     1 
    645    655     1 
    644    647     1 
    640    644     1 
    637    644     1 
    636    644     1 
    636    639     1 
    635    643     1 
    635    640     1 
    634    639     1 
    633    636     1 
    633    637     1 
    633    643     1 
    631    647     1 
    631    643     1 
    631    635     1 
    630    645     1 
    630    649     1 
    630    635     1 
    630    639     1 
    628    633     1 
    628    634     1 
    628    643     1 
    628    651     1 
    627    651     1 
    627    631     1 
    627    644     1 
    627    649     1 
    625    630     1 
    625    649     1 
    625    652     1 
    622    628     1 
    622    647     1 
    622    651     1 
    621    627     1 
    621    645     1 
    620    622     1 
    619    622     1 
    618    625     1 
    683    685     1 
    678    681     1 
    674    678     1 
    671    678     1 
    670    678     1 
    670    673     1 
    669    677     1 
    669    674     1 
    668    673     1 
    667    670     1 
    667    671     1 
    667    677     1 
    665    681     1 
    665    677     1 
    665    669     1 
    664    679     1 
    664    683     1 
    664    669     1 
    664    673     1 
    662    667     1 
    662    668     1 
    662    677     1 
    662    685     1 
    661    685     1 
    661    665     1 
    661    678     1 
    661    683     1 
    659    664     1 
    659    683     1 
    656    662     1 
    656    681     1 
    656    685     1 
    655    661     1 
    655    679     1 
    654    656     1 
    653    656     1 
    652    659     1 
     29     32     1 
     29     31     1 
     27     29     1 
     27     30     1 
     27     33     1 
     26     31     1 
     23     24     1 
     22     24     1 
     19     21     1 
     19     24     1 
     18     22     1 
     18     23     1 
     17     19     1 
     15     19     1 
     13     25     1 
     13     15     1 
     11     29     1 
     10     12     1 
     10     25     1 
     10     26     1 
     10     29     1 
     10     30     1 
      9     13     1 
      9     27     1 
      9     31     1 
      8     27     1 
      8     29     1 
      7      9     1 
      7     27     1 
      7     28     1 
      7     32     1 
      6     10     1 
      6     29     1 
      5      7     1 
      5      8     1 
      5     26     1 
      4      7     1 
      4      8     1 
      4     26     1 
      3     27     1 
      2      7     1 
      1      4     1 
      1      5     1 
      1      6     1 
     63     66     1 
     63     65     1 
     61     63     1 
     61     64     1 
     61     67     1 
     60     65     1 
     57     58     1 
     56     58     1 
     53     55     1 
     53     58     1 
     52     56     1 
     52     57     1 
     51     53     1 
     49     53     1 
     47     59     1 
     47     49     1 
     45     63     1 
     44     46     1 
     44     59     1 
     44     60     1 
     44     63     1 
     44     64     1 
     43     47     1 
     43     61     1 
     43     65     1 
     42     61     1 
     42     63     1 
     41     43     1 
     41     61     1 
     41     62     1 
     41     66     1 
     40     44     1 
     40     63     1 
     39     41     1 
     39     42     1 
     39     60     1 
     38     41     1 
     38     42     1 
     38     60     1 
     37     61     1 
     36     41     1 
     33     38     1 
     33     39     1 
     97    100     1 
     97     99     1 
     95     97     1 
     95     98     1 
     95    101     1 
     94     99     1 
     91     92     1 
     90     92     1 
     87     89     1 
     87     92     1 
     86     90     1 
     86     91     1 
     85     87     1 
     83     87     1 
     81     93     1 
     81     83     1 
     79     97     1 
     78     80     1 
     78     93     1 
     78     94     1 
     78     97     1 
     78     98     1 
     77     81     1 
     77     95     1 
     77     99     1 
     76     95     1 
     76     97     1 
     75     77     1 
     75     95     1 
     75     96     1 
     75    100     1 
     74     78     1 
     74     97     1 
     73     75     1 
     73     76     1 
     73     94     1 
     72     75     1 
     72     76     1 
     72     94     1 
     71     95     1 
     70     75     1 
     67     72     1 
     67     73     1 
    127    130     1 
    127    129     1 
    125    127     1 
    125    128     1 
    125    131     1 
    124    129     1 
    121    123     1 
    119    121     1 
    117    119     1 
    117    120     1 
    116    121     1 
    115    122     1 
    115    117     1 
    115    118     1 
    113    127     1 
    113    117     1 
    113    121     1 
    112    114     1 
    112    122     1 
    112    124     1 
    112    127     1 
    112    128     1 
    111    115     1 
    111    125     1 
    111    129     1 
    110    125     1 
    110    127     1 
    109    111     1 
    109    125     1 
    109    126     1 
    109    130     1 
    108    112     1 
    108    127     1 
    107    109     1 
    107    110     1 
    107    124     1 
    106    109     1 
    106    110     1 
    106    124     1 
    105    125     1 
    104    109     1 
    101    106     1 
    101    107     1 
    157    160     1 
    157    159     1 
    155    157     1 
    155    158     1 
    155    161     1 
    154    159     1 
    151    153     1 
    149    151     1 
    147    149     1 
    147    150     1 
    146    151     1 
    145    152     1 
    145    147     1 
    145    148     1 
    143    157     1 
    143    147     1 
    143    151     1 
    142    144     1 
    142    152     1 
    142    154     1 
    142    157     1 
    142    158     1 
    141    145     1 
    141    155     1 
    141    159     1 
    140    155     1 
    140    157     1 
    139    141     1 
    139    155     1 
    139    156     1 
    139    160     1 
    138    142     1 
    138    157     1 
    137    139     1 
    137    140     1 
    137    154     1 
    136    139     1 
    136    140     1 
    136    154     1 
    135    155     1 
    134    139     1 
    131    136     1 
    131    137     1 
    190    193     1 
    190    192     1 
    188    190     1 
    188    191     1 
    188    194     1 
    187    192     1 
    184    186     1 
    181    182     1 
    180    182     1 
    178    184     1 
    177    180     1 
    177    181     1 
    175    186     1 
    175    177     1 
    173    190     1 
    172    174     1 
    172    186     1 
    172    187     1 
    172    190     1 
    172    191     1 
    171    175     1 
    171    188     1 
    171    192     1 
    170    188     1 
    170    190     1 
    169    171     1 
    169    188     1 
    169    189     1 
    169    193     1 
    168    172     1 
    168    190     1 
    167    169     1 
    167    170     1 
    167    187     1 
    166    169     1 
    166    170     1 
    166    187     1 
    165    188     1 
    164    169     1 
    161    166     1 
    161    167     1 
    224    227     1 
    224    226     1 
    222    224     1 
    222    225     1 
    222    228     1 
    221    226     1 
    218    219     1 
    217    219     1 
    214    216     1 
    214    219     1 
    213    217     1 
    213    218     1 
    212    214     1 
    210    214     1 
    208    220     1 
    208    210     1 
    206    224     1 
    205    207     1 
    205    220     1 
    205    221     1 
    205    224     1 
    205    225     1 
    204    208     1 
    204    222     1 
    204    226     1 
    203    222     1 
    203    224     1 
    202    204     1 
    202    222     1 
    202    223     1 
    202    227     1 
    201    205     1 
    201    224     1 
    200    202     1 
    200    203     1 
    200    221     1 
    199    202     1 
    199    203     1 
    199    221     1 
    198    222     1 
    197    202     1 
    194    199     1 
    194    200     1 
    258    261     1 
    258    260     1 
    256    258     1 
    256    259     1 
    256    262     1 
    255    260     1 
    252    253     1 
    251    253     1 
    248    250     1 
    248    253     1 
    247    251     1 
    247    252     1 
    246    248     1 
    244    248     1 
    242    254     1 
    242    244     1 
    240    258     1 
    239    241     1 
    239    254     1 
    239    255     1 
    239    258     1 
    239    259     1 
    238    242     1 
    238    256     1 
    238    260     1 
    237    256     1 
    237    258     1 
    236    238     1 
    236    256     1 
    236    257     1 
    236    261     1 
    235    239     1 
    235    258     1 
    234    236     1 
    234    237     1 
    234    255     1 
    233    236     1 
    233    237     1 
    233    255     1 
    232    256     1 
    231    236     1 
    228    233     1 
    228    234     1 
    292    295     1 
    292    294     1 
    290    292     1 
    290    293     1 
    290    296     1 
    289    294     1 
    286    287     1 
    285    287     1 
    282    284     1 
    282    287     1 
    281    285     1 
    281    286     1 
    280    282     1 
    278    282     1 
    276    288     1 
    276    278     1 
    274    292     1 
    273    275     1 
    273    288     1 
    273    289     1 
    273    292     1 
    273    293     1 
    272    276     1 
    272    290     1 
    272    294     1 
    271    290     1 
    271    292     1 
    270    272     1 
    270    290     1 
    270    291     1 
    270    295     1 
    269    273     1 
    269    292     1 
    268    270     1 
    268    271     1 
    268    289     1 
    267    270     1 
    267    271     1 
    267    289     1 
    266    290     1 
    265    270     1 
    262    267     1 
    262    268     1 
    322    325     1 
    322    324     1 
    320    322     1 
    320    323     1 
    320    326     1 
    319    324     1 
    316    318     1 
    314    316     1 
    312    314     1 
    312    315     1 
    311    316     1 
    310    317     1 
    310    312     1 
    310    313     1 
    308    322     1 
    308    312     1 
    308    316     1 
    307    309     1 
    307    317     1 
    307    319     1 
    307    322     1 
    307    323     1 
    306    310     1 
    306    320     1 
    306    324     1 
    305    320     1 
    305    322     1 
    304    306     1 
    304    320     1 
    304    321     1 
    304    325     1 
    303    307     1 
    303    322     1 
    302    304     1 
    302    305     1 
    302    319     1 
    301    304     1 
    301    305     1 
    301    319     1 
    300    320     1 
    299    304     1 
    296    301     1 
    296    302     1 
    352    355     1 
    352    354     1 
    350    352     1 
    350    353     1 
    350    356     1 
    349    354     1 
    346    348     1 
    344    346     1 
    342    344     1 
    342    345     1 
    341    346     1 
    340    347     1 
    340    342     1 
    340    343     1 
    338    352     1 
    338    342     1 
    338    346     1 
    337    339     1 
    337    347     1 
    337    349     1 
    337    352     1 
    337    353     1 
    336    340     1 
    336    350     1 
    336    354     1 
    335    350     1 
    335    352     1 
    334    336     1 
    334    350     1 
    334    351     1 
    334    355     1 
    333    337     1 
    333    352     1 
    332    334     1 
    332    335     1 
    332    349     1 
    331    334     1 
    331    335     1 
    331    349     1 
    330    350     1 
    329    334     1 
    326    331     1 
    326    332     1 
    385    388     1 
    385    387     1 
    383    385     1 
    383    386     1 
    383    389     1 
    382    387     1 
    379    381     1 
    376    377     1 
    375    377     1 
    373    379     1 
    372    375     1 
    372    376     1 
    370    381     1 
    370    372     1 
    368    385     1 
    367    369     1 
    367    381     1 
    367    382     1 
    367    385     1 
    367    386     1 
    366    370     1 
    366    383     1 
    366    387     1 
    365    383     1 
    365    385     1 
    364    366     1 
    364    383     1 
    364    384     1 
    364    388     1 
    363    367     1 
    363    385     1 
    362    364     1 
    362    365     1 
    362    382     1 
    361    364     1 
    361    365     1 
    361    382     1 
    360    383     1 
    359    364     1 
    356    361     1 
    356    362     1 
    419    422     1 
    419    421     1 
    417    419     1 
    417    420     1 
    417    423     1 
    416    421     1 
    413    414     1 
    412    414     1 
    409    411     1 
    409    414     1 
    408    412     1 
    408    413     1 
    407    409     1 
    405    409     1 
    403    415     1 
    403    405     1 
    401    419     1 
    400    402     1 
    400    415     1 
    400    416     1 
    400    419     1 
    400    420     1 
    399    403     1 
    399    417     1 
    399    421     1 
    398    417     1 
    398    419     1 
    397    399     1 
    397    417     1 
    397    418     1 
    397    422     1 
    396    400     1 
    396    419     1 
    395    397     1 
    395    398     1 
    395    416     1 
    394    397     1 
    394    398     1 
    394    416     1 
    393    417     1 
    392    397     1 
    389    394     1 
    389    395     1 
    453    456     1 
    453    455     1 
    451    453     1 
    451    454     1 
    451    457     1 
    450    455     1 
    447    448     1 
    446    448     1 
    443    445     1 
    443    448     1 
    442    446     1 
    442    447     1 
    441    443     1 
    439    443     1 
    437    449     1 
    437    439     1 
    435    453     1 
    434    436     1 
    434    449     1 
    434    450     1 
    434    453     1 
    434    454     1 
    433    437     1 
    433    451     1 
    433    455     1 
    432    451     1 
    432    453     1 
    431    433     1 
    431    451     1 
    431    452     1 
    431    456     1 
    430    434     1 
    430    453     1 
    429    431     1 
    429    432     1 
    429    450     1 
    428    431     1 
    428    432     1 
    428    450     1 
    427    451     1 
    426    431     1 
    423    428     1 
    423    429     1 
    487    490     1 
    487    489     1 
    485    487     1 
    485    488     1 
    485    491     1 
    484    489     1 
    481    482     1 
    480    482     1 
    477    479     1 
    477    482     1 
    476    480     1 
    476    481     1 
    475    477     1 
    473    477     1 
    471    483     1 
    471    473     1 
    469    487     1 
    468    470     1 
    468    483     1 
    468    484     1 
    468    487     1 
    468    488     1 
    467    471     1 
    467    485     1 
    467    489     1 
    466    485     1 
    466    487     1 
    465    467     1 
    465    485     1 
    465    486     1 
    465    490     1 
    464    468     1 
    464    487     1 
    463    465     1 
    463    466     1 
    463    484     1 
    462    465     1 
    462    466     1 
    462    484     1 
    461    485     1 
    460    465     1 
    457    462     1 
    457    463     1 
    517    520     1 
    517    519     1 
    515    517     1 
    515    518     1 
    515    521     1 
    514    519     1 
    511    513     1 
    509    511     1 
    507    509     1 
    507    510     1 
    506    511     1 
    505    512     1 
    505    507     1 
    505    508     1 
    503    517     1 
    503    507     1 
    503    511     1 
    502    504     1 
    502    512     1 
    502    514     1 
    502    517     1 
    502    518     1 
    501    505     1 
    501    515     1 
    501    519     1 
    500    515     1 
    500    517     1 
    499    501     1 
    499    515     1 
    499    516     1 
    499    520     1 
    498    502     1 
    498    517     1 
    497    499     1 
    497    500     1 
    497    514     1 
    496    499     1 
    496    500     1 
    496    514     1 
    495    515     1 
    494    499     1 
    491    496     1 
    491    497     1 
    547    550     1 
    547    549     1 
    545    547     1 
    545    548     1 
    545    551     1 
    544    549     1 
    541    543     1 
    539    541     1 
    537    539     1 
    537    540     1 
    536    541     1 
    535    542     1 
    535    537     1 
    535    538     1 
    533    547     1 
    533    537     1 
    533    541     1 
    532    534     1 
    532    542     1 
    532    544     1 
    532    547     1 
    532    548     1 
    531    535     1 
    531    545     1 
    531    549     1 
    530    545     1 
    530    547     1 
    529    531     1 
    529    545     1 
    529    546     1 
    529    550     1 
    528    532     1 
    528    547     1 
    527    529     1 
    527    530     1 
    527    544     1 
    526    529     1 
    526    530     1 
    526    544     1 
    525    545     1 
    524    529     1 
    521    526     1 
    521    527     1 
    580    583     1 
    580    582     1 
    578    580     1 
    578    581     1 
    578    584     1 
    577    582     1 
    574    576     1 
    571    572     1 
    570    572     1 
    568    574     1 
    567    570     1 
    567    571     1 
    565    576     1 
    565    567     1 
    563    580     1 
    562    564     1 
    562    576     1 
    562    577     1 
    562    580     1 
    562    581     1 
    561    565     1 
    561    578     1 
    561    582     1 
    560    578     1 
    560    580     1 
    559    561     1 
    559    578     1 
    559    579     1 
    559    583     1 
    558    562     1 
    558    580     1 
    557    559     1 
    557    560     1 
    557    577     1 
    556    559     1 
    556    560     1 
    556    577     1 
    555    578     1 
    554    559     1 
    551    556     1 
    551    557     1 
    614    617     1 
    614    616     1 
    612    614     1 
    612    615     1 
    612    618     1 
    611    616     1 
    608    609     1 
    607    609     1 
    604    606     1 
    604    609     1 
    603    607     1 
    603    608     1 
    602    604     1 
    600    604     1 
    598    610     1 
    598    600     1 
    596    614     1 
    595    597     1 
    595    610     1 
    595    611     1 
    595    614     1 
    595    615     1 
    594    598     1 
    594    612     1 
    594    616     1 
    593    612     1 
    593    614     1 
    592    594     1 
    592    612     1 
    592    613     1 
    592    617     1 
    591    595     1 
    591    614     1 
    590    592     1 
    590    593     1 
    590    611     1 
    589    592     1 
    589    593     1 
    589    611     1 
    588    612     1 
    587    592     1 
    584    589     1 
    584    590     1 
    648    651     1 
    648    650     1 
    646    648     1 
    646    649     1 
    646    652     1 
    645    650     1 
    642    643     1 
    641    643     1 
    638    640     1 
    638    643     1 
    637    641     1 
    637    642     1 
    636    638     1 
    634    638     1 
    632    644     1 
    632    634     1 
    630    648     1 
    629    631     1 
    629    644     1 
    629    645     1 
    629    648     1 
    629    649     1 
    628    632     1 
    628    646     1 
    628    650     1 
    627    646     1 
    627    648     1 
    626    628     1 
    626    646     1 
    626    647     1 
    626    651     1 
    625    629     1 
    625    648     1 
    624    626     1 
    624    627     1 
    624    645     1 
    623    626     1 
    623    627     1 
    623    645     1 
    622    646     1 
    621    626     1 
    618    623     1 
    618    624     1 
    682    685     1 
    682    684     1 
    681    686     1 
    680    682     1 
    680    683     1 
    680    686     1 
    679    684     1 
    676    677     1 
    675    677     1 
    672    674     1 
    672    677     1 
    671    675     1 
    671    676     1 
    670    672     1 
    668    672     1 
    666    678     1 
    666    668     1 
    664    682     1 
    663    665     1 
    663    678     1 
    663    679     1 
    663    682     1 
    663    683     1 
    662    666     1 
    662    680     1 
    662    684     1 
    661    680     1 
    661    682     1 
    660    662     1 
    660    680     1 
    660    681     1 
    660    685     1 
    659    663     1 
    659    682     1 
    659    686     1 
    658    660     1 
    658    661     1 
    658    679     1 
    657    660     1 
    657    661     1 
    657    679     1 
    656    680     1 
    655    660     1 
    652    657     1 
    652    658     1 

[ angles ] 
;    ai     aj     ak funct         c0         c1         c2         c3
     32     33     34     1   108.2300464 836.800000 
     32     33     35     1   108.2300464 836.800000 
     32     33     36     1   102.6000440 376.560000 
     28     26     32     1   109.5000469 418.400000 
     26     28     30     1   109.5000469 418.400000 
     26     32     33     1   120.5000516 836.800000 
     21     20     24     1   119.3000511 585.760000 
     20     24     25     1   112.2000481 585.760000 
     18     20     21     1   116.0000497 585.760000 
     18     20     24     1   123.3000528 585.760000 
     17     16     18     1   120.6000517 669.440000 
     16     15     25     1   119.2000511 527.184000 
     16     18     20     1   125.2000537 585.760000 
     15     16     17     1   128.8000552 669.440000 
     15     16     18     1   111.3000477 585.760000 
     15     25     24     1   127.7000547 585.760000 
     14     15     16     1   130.0000557 585.760000 
     14     15     25     1   110.4000473 585.760000 
     12     11     25     1   105.4000452 585.760000 
     12     14     15     1   103.8000445 585.760000 
     11      9     28     1   109.5000469 418.400000 
     11     12     14     1   113.9000488 585.760000 
     11     25     15     1   106.2000455 585.760000 
     11     25     24     1   126.2000541 585.760000 
      9     11     12     1   128.8000552 585.760000 
      9     11     25     1   125.8000539 585.760000 
      9     28     26     1   109.5000469 334.720000 
      9     28     30     1   109.5000469 418.400000 
      8      6     26     1   109.5000469 418.400000 
      8      9     11     1   109.5000469 418.400000 
      8      9     28     1   109.5000469 418.400000 
      6      8      9     1   109.5000469 502.080000 
      6     26     28     1   109.5000469 334.720000 
      6     26     32     1   109.5000469 418.400000 
      3      6      8     1   109.5000469 418.400000 
      3      6     26     1   109.5000469 334.720000 
      2      3      6     1   109.5000469 418.400000 
     66     67     68     1   108.2300464 836.800000 
     66     67     69     1   108.2300464 836.800000 
     66     67     70     1   102.6000440 376.560000 
     62     60     66     1   109.5000469 418.400000 
     60     62     64     1   109.5000469 418.400000 
     60     66     67     1   120.5000516 836.800000 
     55     54     58     1   119.3000511 585.760000 
     54     58     59     1   112.2000481 585.760000 
     52     54     55     1   116.0000497 585.760000 
     52     54     58     1   123.3000528 585.760000 
     51     50     52     1   120.6000517 669.440000 
     50     49     59     1   119.2000511 527.184000 
     50     52     54     1   125.2000537 585.760000 
     49     50     51     1   128.8000552 669.440000 
     49     50     52     1   111.3000477 585.760000 
     49     59     58     1   127.7000547 585.760000 
     48     49     50     1   130.0000557 585.760000 
     48     49     59     1   110.4000473 585.760000 
     46     45     59     1   105.4000452 585.760000 
     46     48     49     1   103.8000445 585.760000 
     45     43     62     1   109.5000469 418.400000 
     45     46     48     1   113.9000488 585.760000 
     45     59     49     1   106.2000455 585.760000 
     45     59     58     1   126.2000541 585.760000 
     43     45     46     1   128.8000552 585.760000 
     43     45     59     1   125.8000539 585.760000 
     43     62     60     1   109.5000469 334.720000 
     43     62     64     1   109.5000469 418.400000 
     42     40     60     1   109.5000469 418.400000 
     42     43     45     1   109.5000469 418.400000 
     42     43     62     1   109.5000469 418.400000 
     40     42     43     1   109.5000469 502.080000 
     40     60     62     1   109.5000469 334.720000 
     40     60     66     1   109.5000469 418.400000 
     37     40     42     1   109.5000469 418.400000 
     37     40     60     1   109.5000469 334.720000 
     36     37     40     1   109.5000469 418.400000 
     35     33     36     1   108.2300464 836.800000 
     34     33     35     1   119.9000514 1171.520000 
     34     33     36     1   108.2300464 836.800000 
     33     36     37     1   120.5000516 836.800000 
    100    101    102     1   108.2300464 836.800000 
    100    101    103     1   108.2300464 836.800000 
    100    101    104     1   102.6000440 376.560000 
     96     94    100     1   109.5000469 418.400000 
     94     96     98     1   109.5000469 418.400000 
     94    100    101     1   120.5000516 836.800000 
     89     88     92     1   119.3000511 585.760000 
     88     92     93     1   112.2000481 585.760000 
     86     88     89     1   116.0000497 585.760000 
     86     88     92     1   123.3000528 585.760000 
     85     84     86     1   120.6000517 669.440000 
     84     83     93     1   119.2000511 527.184000 
     84     86     88     1   125.2000537 585.760000 
     83     84     85     1   128.8000552 669.440000 
     83     84     86     1   111.3000477 585.760000 
     83     93     92     1   127.7000547 585.760000 
     82     83     84     1   130.0000557 585.760000 
     82     83     93     1   110.4000473 585.760000 
     80     79     93     1   105.4000452 585.760000 
     80     82     83     1   103.8000445 585.760000 
     79     77     96     1   109.5000469 418.400000 
     79     80     82     1   113.9000488 585.760000 
     79     93     83     1   106.2000455 585.760000 
     79     93     92     1   126.2000541 585.760000 
     77     79     80     1   128.8000552 585.760000 
     77     79     93     1   125.8000539 585.760000 
     77     96     94     1   109.5000469 334.720000 
     77     96     98     1   109.5000469 418.400000 
     76     74     94     1   109.5000469 418.400000 
     76     77     79     1   109.5000469 418.400000 
     76     77     96     1   109.5000469 418.400000 
     74     76     77     1   109.5000469 502.080000 
     74     94     96     1   109.5000469 334.720000 
     74     94    100     1   109.5000469 418.400000 
     71     74     76     1   109.5000469 418.400000 
     71     74     94     1   109.5000469 334.720000 
     70     71     74     1   109.5000469 418.400000 
     69     67     70     1   108.2300464 836.800000 
     68     67     69     1   119.9000514 1171.520000 
     68     67     70     1   108.2300464 836.800000 
     67     70     71     1   120.5000516 836.800000 
    130    131    132     1   108.2300464 836.800000 
    130    131    133     1   108.2300464 836.800000 
    130    131    134     1   102.6000440 376.560000 
    126    124    130     1   109.5000469 418.400000 
    124    126    128     1   109.5000469 418.400000 
    124    130    131     1   120.5000516 836.800000 
    120    122    123     1   120.6000517 669.440000 
    119    118    120     1   120.6000517 669.440000 
    118    120    122     1   126.4000542 585.760000 
    116    118    119     1   125.3000537 669.440000 
    116    118    120     1   114.1000489 585.760000 
    114    113    122     1   121.6000521 585.760000 
    114    116    118     1   120.7000517 527.184000 
    113    111    126     1   109.5000469 418.400000 
    113    114    116     1   121.2000519 585.760000 
    113    122    120     1   115.4000495 585.760000 
    113    122    123     1   120.9000518 669.440000 
    111    113    114     1   121.2000519 585.760000 
    111    113    122     1   117.6000504 585.760000 
    111    126    124     1   109.5000469 334.720000 
    111    126    128     1   109.5000469 418.400000 
    110    108    124     1   109.5000469 418.400000 
    110    111    113     1   109.5000469 418.400000 
    110    111    126     1   109.5000469 418.400000 
    108    110    111     1   109.5000469 502.080000 
    108    124    126     1   109.5000469 334.720000 
    108    124    130     1   109.5000469 418.400000 
    105    108    110     1   109.5000469 418.400000 
    105    108    124     1   109.5000469 334.720000 
    104    105    108     1   109.5000469 418.400000 
    103    101    104     1   108.2300464 836.800000 
    102    101    103     1   119.9000514 1171.520000 
    102    101    104     1   108.2300464 836.800000 
    101    104    105     1   120.5000516 836.800000 
    160    161    162     1   108.2300464 836.800000 
    160    161    163     1   108.2300464 836.800000 
    160    161    164     1   102.6000440 376.560000 
    156    154    160     1   109.5000469 418.400000 
    154    156    158     1   109.5000469 418.400000 
    154    160    161     1   120.5000516 836.800000 
    150    152    153     1   120.6000517 669.440000 
    149    148    150     1   120.6000517 669.440000 
    148    150    152     1   126.4000542 585.760000 
    146    148    149     1   125.3000537 669.440000 
    146    148    150     1   114.1000489 585.760000 
    144    143    152     1   121.6000521 585.760000 
    144    146    148     1   120.7000517 527.184000 
    143    141    156     1   109.5000469 418.400000 
    143    144    146     1   121.2000519 585.760000 
    143    152    150     1   115.4000495 585.760000 
    143    152    153     1   120.9000518 669.440000 
    141    143    144     1   121.2000519 585.760000 
    141    143    152     1   117.6000504 585.760000 
    141    156    154     1   109.5000469 334.720000 
    141    156    158     1   109.5000469 418.400000 
    140    138    154     1   109.5000469 418.400000 
    140    141    143     1   109.5000469 418.400000 
    140    141    156     1   109.5000469 418.400000 
    138    140    141     1   109.5000469 502.080000 
    138    154    156     1   109.5000469 334.720000 
    138    154    160     1   109.5000469 418.400000 
    135    138    140     1   109.5000469 418.400000 
    135    138    154     1   109.5000469 334.720000 
    134    135    138     1   109.5000469 418.400000 
    133    131    134     1   108.2300464 836.800000 
    132    131    133     1   119.9000514 1171.520000 
    132    131    134     1   108.2300464 836.800000 
    131    134    135     1   120.5000516 836.800000 
    193    194    195     1   108.2300464 836.800000 
    193    194    196     1   108.2300464 836.800000 
    193    194    197     1   102.6000440 376.560000 
    189    187    193     1   109.5000469 418.400000 
    187    189    191     1   109.5000469 418.400000 
    187    193    194     1   120.5000516 836.800000 
    183    185    186     1   111.0000476 585.760000 
    182    183    185     1   129.1000553 585.760000 
    179    178    182     1   119.3000511 585.760000 
    178    177    186     1   117.3000503 527.184000 
    178    182    183     1   118.6000508 585.760000 
    177    178    179     1   123.5000529 585.760000 
    177    178    182     1   117.3000503 585.760000 
    177    186    185     1   127.7000547 585.760000 
    176    177    178     1   132.4000567 585.760000 
    176    177    186     1   110.4000473 585.760000 
    174    173    186     1   105.4000452 585.760000 
    174    176    177     1   103.8000445 585.760000 
    173    171    189     1   109.5000469 418.400000 
    173    174    176     1   113.9000488 585.760000 
    173    186    177     1   106.2000455 585.760000 
    173    186    185     1   126.2000541 585.760000 
    171    173    174     1   128.8000552 585.760000 
    171    173    186     1   125.8000539 585.760000 
    171    189    187     1   109.5000469 334.720000 
    171    189    191     1   109.5000469 418.400000 
    170    168    187     1   109.5000469 418.400000 
    170    171    173     1   109.5000469 418.400000 
    170    171    189     1   109.5000469 418.400000 
    168    170    171     1   109.5000469 502.080000 
    168    187    189     1   109.5000469 334.720000 
    168    187    193     1   109.5000469 418.400000 
    165    168    170     1   109.5000469 418.400000 
    165    168    187     1   109.5000469 334.720000 
    164    165    168     1   109.5000469 418.400000 
    163    161    164     1   108.2300464 836.800000 
    162    161    163     1   119.9000514 1171.520000 
    162    161    164     1   108.2300464 836.800000 
    161    164    165     1   120.5000516 836.800000 
    227    228    229     1   108.2300464 836.800000 
    227    228    230     1   108.2300464 836.800000 
    227    228    231     1   102.6000440 376.560000 
    223    221    227     1   109.5000469 418.400000 
    221    223    225     1   109.5000469 418.400000 
    221    227    228     1   120.5000516 836.800000 
    216    215    219     1   119.3000511 585.760000 
    215    219    220     1   112.2000481 585.760000 
    213    215    216     1   116.0000497 585.760000 
    213    215    219     1   123.3000528 585.760000 
    212    211    213     1   120.6000517 669.440000 
    211    210    220     1   119.2000511 527.184000 
    211    213    215     1   125.2000537 585.760000 
    210    211    212     1   128.8000552 669.440000 
    210    211    213     1   111.3000477 585.760000 
    210    220    219     1   127.7000547 585.760000 
    209    210    211     1   130.0000557 585.760000 
    209    210    220     1   110.4000473 585.760000 
    207    206    220     1   105.4000452 585.760000 
    207    209    210     1   103.8000445 585.760000 
    206    204    223     1   109.5000469 418.400000 
    206    207    209     1   113.9000488 585.760000 
    206    220    210     1   106.2000455 585.760000 
    206    220    219     1   126.2000541 585.760000 
    204    206    207     1   128.8000552 585.760000 
    204    206    220     1   125.8000539 585.760000 
    204    223    221     1   109.5000469 334.720000 
    204    223    225     1   109.5000469 418.400000 
    203    201    221     1   109.5000469 418.400000 
    203    204    206     1   109.5000469 418.400000 
    203    204    223     1   109.5000469 418.400000 
    201    203    204     1   109.5000469 502.080000 
    201    221    223     1   109.5000469 334.720000 
    201    221    227     1   109.5000469 418.400000 
    198    201    203     1   109.5000469 418.400000 
    198    201    221     1   109.5000469 334.720000 
    197    198    201     1   109.5000469 418.400000 
    196    194    197     1   108.2300464 836.800000 
    195    194    196     1   119.9000514 1171.520000 
    195    194    197     1   108.2300464 836.800000 
    194    197    198     1   120.5000516 836.800000 
    261    262    263     1   108.2300464 836.800000 
    261    262    264     1   108.2300464 836.800000 
    261    262    265     1   102.6000440 376.560000 
    257    255    261     1   109.5000469 418.400000 
    255    257    259     1   109.5000469 418.400000 
    255    261    262     1   120.5000516 836.800000 
    250    249    253     1   119.3000511 585.760000 
    249    253    254     1   112.2000481 585.760000 
    247    249    250     1   116.0000497 585.760000 
    247    249    253     1   123.3000528 585.760000 
    246    245    247     1   120.6000517 669.440000 
    245    244    254     1   119.2000511 527.184000 
    245    247    249     1   125.2000537 585.760000 
    244    245    246     1   128.8000552 669.440000 
    244    245    247     1   111.3000477 585.760000 
    244    254    253     1   127.7000547 585.760000 
    243    244    245     1   130.0000557 585.760000 
    243    244    254     1   110.4000473 585.760000 
    241    240    254     1   105.4000452 585.760000 
    241    243    244     1   103.8000445 585.760000 
    240    238    257     1   109.5000469 418.400000 
    240    241    243     1   113.9000488 585.760000 
    240    254    244     1   106.2000455 585.760000 
    240    254    253     1   126.2000541 585.760000 
    238    240    241     1   128.8000552 585.760000 
    238    240    254     1   125.8000539 585.760000 
    238    257    255     1   109.5000469 334.720000 
    238    257    259     1   109.5000469 418.400000 
    237    235    255     1   109.5000469 418.400000 
    237    238    240     1   109.5000469 418.400000 
    237    238    257     1   109.5000469 418.400000 
    235    237    238     1   109.5000469 502.080000 
    235    255    257     1   109.5000469 334.720000 
    235    255    261     1   109.5000469 418.400000 
    232    235    237     1   109.5000469 418.400000 
    232    235    255     1   109.5000469 334.720000 
    231    232    235     1   109.5000469 418.400000 
    230    228    231     1   108.2300464 836.800000 
    229    228    230     1   119.9000514 1171.520000 
    229    228    231     1   108.2300464 836.800000 
    228    231    232     1   120.5000516 836.800000 
    295    296    297     1   108.2300464 836.800000 
    295    296    298     1   108.2300464 836.800000 
    295    296    299     1   102.6000440 376.560000 
    291    289    295     1   109.5000469 418.400000 
    289    291    293     1   109.5000469 418.400000 
    289    295    296     1   120.5000516 836.800000 
    284    283    287     1   119.3000511 585.760000 
    283    287    288     1   112.2000481 585.760000 
    281    283    284     1   116.0000497 585.760000 
    281    283    287     1   123.3000528 585.760000 
    280    279    281     1   120.6000517 669.440000 
    279    278    288     1   119.2000511 527.184000 
    279    281    283     1   125.2000537 585.760000 
    278    279    280     1   128.8000552 669.440000 
    278    279    281     1   111.3000477 585.760000 
    278    288    287     1   127.7000547 585.760000 
    277    278    279     1   130.0000557 585.760000 
    277    278    288     1   110.4000473 585.760000 
    275    274    288     1   105.4000452 585.760000 
    275    277    278     1   103.8000445 585.760000 
    274    272    291     1   109.5000469 418.400000 
    274    275    277     1   113.9000488 585.760000 
    274    288    278     1   106.2000455 585.760000 
    274    288    287     1   126.2000541 585.760000 
    272    274    275     1   128.8000552 585.760000 
    272    274    288     1   125.8000539 585.760000 
    272    291    289     1   109.5000469 334.720000 
    272    291    293     1   109.5000469 418.400000 
    271    269    289     1   109.5000469 418.400000 
    271    272    274     1   109.5000469 418.400000 
    271    272    291     1   109.5000469 418.400000 
    269    271    272     1   109.5000469 502.080000 
    269    289    291     1   109.5000469 334.720000 
    269    289    295     1   109.5000469 418.400000 
    266    269    271     1   109.5000469 418.400000 
    266    269    289     1   109.5000469 334.720000 
    265    266    269     1   109.5000469 418.400000 
    264    262    265     1   108.2300464 836.800000 
    263    262    264     1   119.9000514 1171.520000 
    263    262    265     1   108.2300464 836.800000 
    262    265    266     1   120.5000516 836.800000 
    325    326    327     1   108.2300464 836.800000 
    325    326    328     1   108.2300464 836.800000 
    325    326    329     1   102.6000440 376.560000 
    321    319    325     1   109.5000469 418.400000 
    319    321    323     1   109.5000469 418.400000 
    319    325    326     1   120.5000516 836.800000 
    315    317    318     1   120.6000517 669.440000 
    314    313    315     1   120.6000517 669.440000 
    313    315    317     1   126.4000542 585.760000 
    311    313    314     1   125.3000537 669.440000 
    311    313    315     1   114.1000489 585.760000 
    309    308    317     1   121.6000521 585.760000 
    309    311    313     1   120.7000517 527.184000 
    308    306    321     1   109.5000469 418.400000 
    308    309    311     1   121.2000519 585.760000 
    308    317    315     1   115.4000495 585.760000 
    308    317    318     1   120.9000518 669.440000 
    306    308    309     1   121.2000519 585.760000 
    306    308    317     1   117.6000504 585.760000 
    306    321    319     1   109.5000469 334.720000 
    306    321    323     1   109.5000469 418.400000 
    305    303    319     1   109.5000469 418.400000 
    305    306    308     1   109.5000469 418.400000 
    305    306    321     1   109.5000469 418.400000 
    303    305    306     1   109.5000469 502.080000 
    303    319    321     1   109.5000469 334.720000 
    303    319    325     1   109.5000469 418.400000 
    300    303    305     1   109.5000469 418.400000 
    300    303    319     1   109.5000469 334.720000 
    299    300    303     1   109.5000469 418.400000 
    298    296    299     1   108.2300464 836.800000 
    297    296    298     1   119.9000514 1171.520000 
    297    296    299     1   108.2300464 836.800000 
    296    299    300     1   120.5000516 836.800000 
    355    356    357     1   108.2300464 836.800000 
    355    356    358     1   108.2300464 836.800000 
    355    356    359     1   102.6000440 376.560000 
    351    349    355     1   109.5000469 418.400000 
    349    351    353     1   109.5000469 418.400000 
    349    355    356     1   120.5000516 836.800000 
    345    347    348     1   120.6000517 669.440000 
    344    343    345     1   120.6000517 669.440000 
    343    345    347     1   126.4000542 585.760000 
    341    343    344     1   125.3000537 669.440000 
    341    343    345     1   114.1000489 585.760000 
    339    338    347     1   121.6000521 585.760000 
    339    341    343     1   120.7000517 527.184000 
    338    336    351     1   109.5000469 418.400000 
    338    339    341     1   121.2000519 585.760000 
    338    347    345     1   115.4000495 585.760000 
    338    347    348     1   120.9000518 669.440000 
    336    338    339     1   121.2000519 585.760000 
    336    338    347     1   117.6000504 585.760000 
    336    351    349     1   109.5000469 334.720000 
    336    351    353     1   109.5000469 418.400000 
    335    333    349     1   109.5000469 418.400000 
    335    336    338     1   109.5000469 418.400000 
    335    336    351     1   109.5000469 418.400000 
    333    335    336     1   109.5000469 502.080000 
    333    349    351     1   109.5000469 334.720000 
    333    349    355     1   109.5000469 418.400000 
    330    333    335     1   109.5000469 418.400000 
    330    333    349     1   109.5000469 334.720000 
    329    330    333     1   109.5000469 418.400000 
    328    326    329     1   108.2300464 836.800000 
    327    326    328     1   119.9000514 1171.520000 
    327    326    329     1   108.2300464 836.800000 
    326    329    330     1   120.5000516 836.800000 
    388    389    390     1   108.2300464 836.800000 
    388    389    391     1   108.2300464 836.800000 
    388    389    392     1   102.6000440 376.560000 
    384    382    388     1   109.5000469 418.400000 
    382    384    386     1   109.5000469 418.400000 
    382    388    389     1   120.5000516 836.800000 
    378    380    381     1   111.0000476 585.760000 
    377    378    380     1   129.1000553 585.760000 
    374    373    377     1   119.3000511 585.760000 
    373    372    381     1   117.3000503 527.184000 
    373    377    378     1   118.6000508 585.760000 
    372    373    374     1   123.5000529 585.760000 
    372    373    377     1   117.3000503 585.760000 
    372    381    380     1   127.7000547 585.760000 
    371    372    373     1   132.4000567 585.760000 
    371    372    381     1   110.4000473 585.760000 
    369    368    381     1   105.4000452 585.760000 
    369    371    372     1   103.8000445 585.760000 
    368    366    384     1   109.5000469 418.400000 
    368    369    371     1   113.9000488 585.760000 
    368    381    372     1   106.2000455 585.760000 
    368    381    380     1   126.2000541 585.760000 
    366    368    369     1   128.8000552 585.760000 
    366    368    381     1   125.8000539 585.760000 
    366    384    382     1   109.5000469 334.720000 
    366    384    386     1   109.5000469 418.400000 
    365    363    382     1   109.5000469 418.400000 
    365    366    368     1   109.5000469 418.400000 
    365    366    384     1   109.5000469 418.400000 
    363    365    366     1   109.5000469 502.080000 
    363    382    384     1   109.5000469 334.720000 
    363    382    388     1   109.5000469 418.400000 
    360    363    365     1   109.5000469 418.400000 
    360    363    382     1   109.5000469 334.720000 
    359    360    363     1   109.5000469 418.400000 
    358    356    359     1   108.2300464 836.800000 
    357    356    358     1   119.9000514 1171.520000 
    357    356    359     1   108.2300464 836.800000 
    356    359    360     1   120.5000516 836.800000 
    422    423    424     1   108.2300464 836.800000 
    422    423    425     1   108.2300464 836.800000 
    422    423    426     1   102.6000440 376.560000 
    418    416    422     1   109.5000469 418.400000 
    416    418    420     1   109.5000469 418.400000 
    416    422    423     1   120.5000516 836.800000 
    411    410    414     1   119.3000511 585.760000 
    410    414    415     1   112.2000481 585.760000 
    408    410    411     1   116.0000497 585.760000 
    408    410    414     1   123.3000528 585.760000 
    407    406    408     1   120.6000517 669.440000 
    406    405    415     1   119.2000511 527.184000 
    406    408    410     1   125.2000537 585.760000 
    405    406    407     1   128.8000552 669.440000 
    405    406    408     1   111.3000477 585.760000 
    405    415    414     1   127.7000547 585.760000 
    404    405    406     1   130.0000557 585.760000 
    404    405    415     1   110.4000473 585.760000 
    402    401    415     1   105.4000452 585.760000 
    402    404    405     1   103.8000445 585.760000 
    401    399    418     1   109.5000469 418.400000 
    401    402    404     1   113.9000488 585.760000 
    401    415    405     1   106.2000455 585.760000 
    401    415    414     1   126.2000541 585.760000 
    399    401    402     1   128.8000552 585.760000 
    399    401    415     1   125.8000539 585.760000 
    399    418    416     1   109.5000469 334.720000 
    399    418    420     1   109.5000469 418.400000 
    398    396    416     1   109.5000469 418.400000 
    398    399    401     1   109.5000469 418.400000 
    398    399    418     1   109.5000469 418.400000 
    396    398    399     1   109.5000469 502.080000 
    396    416    418     1   109.5000469 334.720000 
    396    416    422     1   109.5000469 418.400000 
    393    396    398     1   109.5000469 418.400000 
    393    396    416     1   109.5000469 334.720000 
    392    393    396     1   109.5000469 418.400000 
    391    389    392     1   108.2300464 836.800000 
    390    389    391     1   119.9000514 1171.520000 
    390    389    392     1   108.2300464 836.800000 
    389    392    393     1   120.5000516 836.800000 
    456    457    458     1   108.2300464 836.800000 
    456    457    459     1   108.2300464 836.800000 
    456    457    460     1   102.6000440 376.560000 
    452    450    456     1   109.5000469 418.400000 
    450    452    454     1   109.5000469 418.400000 
    450    456    457     1   120.5000516 836.800000 
    445    444    448     1   119.3000511 585.760000 
    444    448    449     1   112.2000481 585.760000 
    442    444    445     1   116.0000497 585.760000 
    442    444    448     1   123.3000528 585.760000 
    441    440    442     1   120.6000517 669.440000 
    440    439    449     1   119.2000511 527.184000 
    440    442    444     1   125.2000537 585.760000 
    439    440    441     1   128.8000552 669.440000 
    439    440    442     1   111.3000477 585.760000 
    439    449    448     1   127.7000547 585.760000 
    438    439    440     1   130.0000557 585.760000 
    438    439    449     1   110.4000473 585.760000 
    436    435    449     1   105.4000452 585.760000 
    436    438    439     1   103.8000445 585.760000 
    435    433    452     1   109.5000469 418.400000 
    435    436    438     1   113.9000488 585.760000 
    435    449    439     1   106.2000455 585.760000 
    435    449    448     1   126.2000541 585.760000 
    433    435    436     1   128.8000552 585.760000 
    433    435    449     1   125.8000539 585.760000 
    433    452    450     1   109.5000469 334.720000 
    433    452    454     1   109.5000469 418.400000 
    432    430    450     1   109.5000469 418.400000 
    432    433    435     1   109.5000469 418.400000 
    432    433    452     1   109.5000469 418.400000 
    430    432    433     1   109.5000469 502.080000 
    430    450    452     1   109.5000469 334.720000 
    430    450    456     1   109.5000469 418.400000 
    427    430    432     1   109.5000469 418.400000 
    427    430    450     1   109.5000469 334.720000 
    426    427    430     1   109.5000469 418.400000 
    425    423    426     1   108.2300464 836.800000 
    424    423    425     1   119.9000514 1171.520000 
    424    423    426     1   108.2300464 836.800000 
    423    426    427     1   120.5000516 836.800000 
    490    491    492     1   108.2300464 836.800000 
    490    491    493     1   108.2300464 836.800000 
    490    491    494     1   102.6000440 376.560000 
    486    484    490     1   109.5000469 418.400000 
    484    486    488     1   109.5000469 418.400000 
    484    490    491     1   120.5000516 836.800000 
    479    478    482     1   119.3000511 585.760000 
    478    482    483     1   112.2000481 585.760000 
    476    478    479     1   116.0000497 585.760000 
    476    478    482     1   123.3000528 585.760000 
    475    474    476     1   120.6000517 669.440000 
    474    473    483     1   119.2000511 527.184000 
    474    476    478     1   125.2000537 585.760000 
    473    474    475     1   128.8000552 669.440000 
    473    474    476     1   111.3000477 585.760000 
    473    483    482     1   127.7000547 585.760000 
    472    473    474     1   130.0000557 585.760000 
    472    473    483     1   110.4000473 585.760000 
    470    469    483     1   105.4000452 585.760000 
    470    472    473     1   103.8000445 585.760000 
    469    467    486     1   109.5000469 418.400000 
    469    470    472     1   113.9000488 585.760000 
    469    483    473     1   106.2000455 585.760000 
    469    483    482     1   126.2000541 585.760000 
    467    469    470     1   128.8000552 585.760000 
    467    469    483     1   125.8000539 585.760000 
    467    486    484     1   109.5000469 334.720000 
    467    486    488     1   109.5000469 418.400000 
    466    464    484     1   109.5000469 418.400000 
    466    467    469     1   109.5000469 418.400000 
    466    467    486     1   109.5000469 418.400000 
    464    466    467     1   109.5000469 502.080000 
    464    484    486     1   109.5000469 334.720000 
    464    484    490     1   109.5000469 418.400000 
    461    464    466     1   109.5000469 418.400000 
    461    464    484     1   109.5000469 334.720000 
    460    461    464     1   109.5000469 418.400000 
    459    457    460     1   108.2300464 836.800000 
    458    457    459     1   119.9000514 1171.520000 
    458    457    460     1   108.2300464 836.800000 
    457    460    461     1   120.5000516 836.800000 
    520    521    522     1   108.2300464 836.800000 
    520    521    523     1   108.2300464 836.800000 
    520    521    524     1   102.6000440 376.560000 
    516    514    520     1   109.5000469 418.400000 
    514    516    518     1   109.5000469 418.400000 
    514    520    521     1   120.5000516 836.800000 
    510    512    513     1   120.6000517 669.440000 
    509    508    510     1   120.6000517 669.440000 
    508    510    512     1   126.4000542 585.760000 
    506    508    509     1   125.3000537 669.440000 
    506    508    510     1   114.1000489 585.760000 
    504    503    512     1   121.6000521 585.760000 
    504    506    508     1   120.7000517 527.184000 
    503    501    516     1   109.5000469 418.400000 
    503    504    506     1   121.2000519 585.760000 
    503    512    510     1   115.4000495 585.760000 
    503    512    513     1   120.9000518 669.440000 
    501    503    504     1   121.2000519 585.760000 
    501    503    512     1   117.6000504 585.760000 
    501    516    514     1   109.5000469 334.720000 
    501    516    518     1   109.5000469 418.400000 
    500    498    514     1   109.5000469 418.400000 
    500    501    503     1   109.5000469 418.400000 
    500    501    516     1   109.5000469 418.400000 
    498    500    501     1   109.5000469 502.080000 
    498    514    516     1   109.5000469 334.720000 
    498    514    520     1   109.5000469 418.400000 
    495    498    500     1   109.5000469 418.400000 
    495    498    514     1   109.5000469 334.720000 
    494    495    498     1   109.5000469 418.400000 
    493    491    494     1   108.2300464 836.800000 
    492    491    493     1   119.9000514 1171.520000 
    492    491    494     1   108.2300464 836.800000 
    491    494    495     1   120.5000516 836.800000 
    550    551    552     1   108.2300464 836.800000 
    550    551    553     1   108.2300464 836.800000 
    550    551    554     1   102.6000440 376.560000 
    546    544    550     1   109.5000469 418.400000 
    544    546    548     1   109.5000469 418.400000 
    544    550    551     1   120.5000516 836.800000 
    540    542    543     1   120.6000517 669.440000 
    539    538    540     1   120.6000517 669.440000 
    538    540    542     1   126.4000542 585.760000 
    536    538    539     1   125.3000537 669.440000 
    536    538    540     1   114.1000489 585.760000 
    534    533    542     1   121.6000521 585.760000 
    534    536    538     1   120.7000517 527.184000 
    533    531    546     1   109.5000469 418.400000 
    533    534    536     1   121.2000519 585.760000 
    533    542    540     1   115.4000495 585.760000 
    533    542    543     1   120.9000518 669.440000 
    531    533    534     1   121.2000519 585.760000 
    531    533    542     1   117.6000504 585.760000 
    531    546    544     1   109.5000469 334.720000 
    531    546    548     1   109.5000469 418.400000 
    530    528    544     1   109.5000469 418.400000 
    530    531    533     1   109.5000469 418.400000 
    530    531    546     1   109.5000469 418.400000 
    528    530    531     1   109.5000469 502.080000 
    528    544    546     1   109.5000469 334.720000 
    528    544    550     1   109.5000469 418.400000 
    525    528    530     1   109.5000469 418.400000 
    525    528    544     1   109.5000469 334.720000 
    524    525    528     1   109.5000469 418.400000 
    523    521    524     1   108.2300464 836.800000 
    522    521    523     1   119.9000514 1171.520000 
    522    521    524     1   108.2300464 836.800000 
    521    524    525     1   120.5000516 836.800000 
    583    584    585     1   108.2300464 836.800000 
    583    584    586     1   108.2300464 836.800000 
    583    584    587     1   102.6000440 376.560000 
    579    577    583     1   109.5000469 418.400000 
    577    579    581     1   109.5000469 418.400000 
    577    583    584     1   120.5000516 836.800000 
    573    575    576     1   111.0000476 585.760000 
    572    573    575     1   129.1000553 585.760000 
    569    568    572     1   119.3000511 585.760000 
    568    567    576     1   117.3000503 527.184000 
    568    572    573     1   118.6000508 585.760000 
    567    568    569     1   123.5000529 585.760000 
    567    568    572     1   117.3000503 585.760000 
    567    576    575     1   127.7000547 585.760000 
    566    567    568     1   132.4000567 585.760000 
    566    567    576     1   110.4000473 585.760000 
    564    563    576     1   105.4000452 585.760000 
    564    566    567     1   103.8000445 585.760000 
    563    561    579     1   109.5000469 418.400000 
    563    564    566     1   113.9000488 585.760000 
    563    576    567     1   106.2000455 585.760000 
    563    576    575     1   126.2000541 585.760000 
    561    563    564     1   128.8000552 585.760000 
    561    563    576     1   125.8000539 585.760000 
    561    579    577     1   109.5000469 334.720000 
    561    579    581     1   109.5000469 418.400000 
    560    558    577     1   109.5000469 418.400000 
    560    561    563     1   109.5000469 418.400000 
    560    561    579     1   109.5000469 418.400000 
    558    560    561     1   109.5000469 502.080000 
    558    577    579     1   109.5000469 334.720000 
    558    577    583     1   109.5000469 418.400000 
    555    558    560     1   109.5000469 418.400000 
    555    558    577     1   109.5000469 334.720000 
    554    555    558     1   109.5000469 418.400000 
    553    551    554     1   108.2300464 836.800000 
    552    551    553     1   119.9000514 1171.520000 
    552    551    554     1   108.2300464 836.800000 
    551    554    555     1   120.5000516 836.800000 
    617    618    619     1   108.2300464 836.800000 
    617    618    620     1   108.2300464 836.800000 
    617    618    621     1   102.6000440 376.560000 
    613    611    617     1   109.5000469 418.400000 
    611    613    615     1   109.5000469 418.400000 
    611    617    618     1   120.5000516 836.800000 
    606    605    609     1   119.3000511 585.760000 
    605    609    610     1   112.2000481 585.760000 
    603    605    606     1   116.0000497 585.760000 
    603    605    609     1   123.3000528 585.760000 
    602    601    603     1   120.6000517 669.440000 
    601    600    610     1   119.2000511 527.184000 
    601    603    605     1   125.2000537 585.760000 
    600    601    602     1   128.8000552 669.440000 
    600    601    603     1   111.3000477 585.760000 
    600    610    609     1   127.7000547 585.760000 
    599    600    601     1   130.0000557 585.760000 
    599    600    610     1   110.4000473 585.760000 
    597    596    610     1   105.4000452 585.760000 
    597    599    600     1   103.8000445 585.760000 
    596    594    613     1   109.5000469 418.400000 
    596    597    599     1   113.9000488 585.760000 
    596    610    600     1   106.2000455 585.760000 
    596    610    609     1   126.2000541 585.760000 
    594    596    597     1   128.8000552 585.760000 
    594    596    610     1   125.8000539 585.760000 
    594    613    611     1   109.5000469 334.720000 
    594    613    615     1   109.5000469 418.400000 
    593    591    611     1   109.5000469 418.400000 
    593    594    596     1   109.5000469 418.400000 
    593    594    613     1   109.5000469 418.400000 
    591    593    594     1   109.5000469 502.080000 
    591    611    613     1   109.5000469 334.720000 
    591    611    617     1   109.5000469 418.400000 
    588    591    593     1   109.5000469 418.400000 
    588    591    611     1   109.5000469 334.720000 
    587    588    591     1   109.5000469 418.400000 
    586    584    587     1   108.2300464 836.800000 
    585    584    586     1   119.9000514 1171.520000 
    585    584    587     1   108.2300464 836.800000 
    584    587    588     1   120.5000516 836.800000 
    651    652    653     1   108.2300464 836.800000 
    651    652    654     1   108.2300464 836.800000 
    651    652    655     1   102.6000440 376.560000 
    647    645    651     1   109.5000469 418.400000 
    645    647    649     1   109.5000469 418.400000 
    645    651    652     1   120.5000516 836.800000 
    640    639    643     1   119.3000511 585.760000 
    639    643    644     1   112.2000481 585.760000 
    637    639    640     1   116.0000497 585.760000 
    637    639    643     1   123.3000528 585.760000 
    636    635    637     1   120.6000517 669.440000 
    635    634    644     1   119.2000511 527.184000 
    635    637    639     1   125.2000537 585.760000 
    634    635    636     1   128.8000552 669.440000 
    634    635    637     1   111.3000477 585.760000 
    634    644    643     1   127.7000547 585.760000 
    633    634    635     1   130.0000557 585.760000 
    633    634    644     1   110.4000473 585.760000 
    631    630    644     1   105.4000452 585.760000 
    631    633    634     1   103.8000445 585.760000 
    630    628    647     1   109.5000469 418.400000 
    630    631    633     1   113.9000488 585.760000 
    630    644    634     1   106.2000455 585.760000 
    630    644    643     1   126.2000541 585.760000 
    628    630    631     1   128.8000552 585.760000 
    628    630    644     1   125.8000539 585.760000 
    628    647    645     1   109.5000469 334.720000 
    628    647    649     1   109.5000469 418.400000 
    627    625    645     1   109.5000469 418.400000 
    627    628    630     1   109.5000469 418.400000 
    627    628    647     1   109.5000469 418.400000 
    625    627    628     1   109.5000469 502.080000 
    625    645    647     1   109.5000469 334.720000 
    625    645    651     1   109.5000469 418.400000 
    622    625    627     1   109.5000469 418.400000 
    622    625    645     1   109.5000469 334.720000 
    621    622    625     1   109.5000469 418.400000 
    620    618    621     1   108.2300464 836.800000 
    619    618    620     1   119.9000514 1171.520000 
    619    618    621     1   108.2300464 836.800000 
    618    621    622     1   120.5000516 836.800000 
    681    679    685     1   109.5000469 418.400000 
    679    681    683     1   109.5000469 418.400000 
    674    673    677     1   119.3000511 585.760000 
    673    677    678     1   112.2000481 585.760000 
    671    673    674     1   116.0000497 585.760000 
    671    673    677     1   123.3000528 585.760000 
    670    669    671     1   120.6000517 669.440000 
    669    668    678     1   119.2000511 527.184000 
    669    671    673     1   125.2000537 585.760000 
    668    669    670     1   128.8000552 669.440000 
    668    669    671     1   111.3000477 585.760000 
    668    678    677     1   127.7000547 585.760000 
    667    668    669     1   130.0000557 585.760000 
    667    668    678     1   110.4000473 585.760000 
    665    664    678     1   105.4000452 585.760000 
    665    667    668     1   103.8000445 585.760000 
    664    662    681     1   109.5000469 418.400000 
    664    665    667     1   113.9000488 585.760000 
    664    678    668     1   106.2000455 585.760000 
    664    678    677     1   126.2000541 585.760000 
    662    664    665     1   128.8000552 585.760000 
    662    664    678     1   125.8000539 585.760000 
    662    681    679     1   109.5000469 334.720000 
    662    681    683     1   109.5000469 418.400000 
    661    659    679     1   109.5000469 418.400000 
    661    662    664     1   109.5000469 418.400000 
    661    662    681     1   109.5000469 418.400000 
    659    661    662     1   109.5000469 502.080000 
    659    679    681     1   109.5000469 334.720000 
    659    679    685     1   109.5000469 418.400000 
    656    659    661     1   109.5000469 418.400000 
    656    659    679     1   109.5000469 334.720000 
    655    656    659     1   109.5000469 418.400000 
    654    652    655     1   108.2300464 836.800000 
    653    652    654     1   119.9000514 1171.520000 
    653    652    655     1   108.2300464 836.800000 
    652    655    656     1   120.5000516 836.800000 
     29     28     30     1   109.5000469 418.400000 
     28     30     31     1   108.5000465 460.240000 
     27     26     28     1   109.5000469 418.400000 
     27     26     32     1   109.5000469 418.400000 
     26     28     29     1   109.5000469 418.400000 
     22     21     23     1   120.0000514 292.880000 
     20     21     22     1   120.0000514 418.400000 
     20     21     23     1   120.0000514 418.400000 
     19     18     20     1   118.0000506 418.400000 
     16     18     19     1   116.8000501 418.400000 
     13     12     14     1   123.0500530 418.400000 
     11     12     13     1   123.0500530 418.400000 
     10      9     11     1   109.5000469 418.400000 
     10      9     28     1   109.5000469 418.400000 
      9     28     29     1   109.5000469 418.400000 
      8      9     10     1   109.5000469 418.400000 
      7      6      8     1   109.5000469 418.400000 
      7      6     26     1   109.5000469 418.400000 
      6     26     27     1   109.5000469 418.400000 
      5      3      6     1   109.5000469 418.400000 
      4      3      5     1   109.5000469 292.880000 
      4      3      6     1   109.5000469 418.400000 
      3      6      7     1   109.5000469 418.400000 
      2      3      4     1   109.5000469 418.400000 
      2      3      5     1   109.5000469 418.400000 
      1      2      3     1   108.5000465 460.240000 
     63     62     64     1   109.5000469 418.400000 
     62     64     65     1   108.5000465 460.240000 
     61     60     62     1   109.5000469 418.400000 
     61     60     66     1   109.5000469 418.400000 
     60     62     63     1   109.5000469 418.400000 
     56     55     57     1   120.0000514 292.880000 
     54     55     56     1   120.0000514 418.400000 
     54     55     57     1   120.0000514 418.400000 
     53     52     54     1   118.0000506 418.400000 
     50     52     53     1   116.8000501 418.400000 
     47     46     48     1   123.0500530 418.400000 
     45     46     47     1   123.0500530 418.400000 
     44     43     45     1   109.5000469 418.400000 
     44     43     62     1   109.5000469 418.400000 
     43     62     63     1   109.5000469 418.400000 
     42     43     44     1   109.5000469 418.400000 
     41     40     42     1   109.5000469 418.400000 
     41     40     60     1   109.5000469 418.400000 
     40     60     61     1   109.5000469 418.400000 
     39     37     40     1   109.5000469 418.400000 
     38     37     39     1   109.5000469 292.880000 
     38     37     40     1   109.5000469 418.400000 
     37     40     41     1   109.5000469 418.400000 
     36     37     38     1   109.5000469 418.400000 
     36     37     39     1   109.5000469 418.400000 
     97     96     98     1   109.5000469 418.400000 
     96     98     99     1   108.5000465 460.240000 
     95     94     96     1   109.5000469 418.400000 
     95     94    100     1   109.5000469 418.400000 
     94     96     97     1   109.5000469 418.400000 
     90     89     91     1   120.0000514 292.880000 
     88     89     90     1   120.0000514 418.400000 
     88     89     91     1   120.0000514 418.400000 
     87     86     88     1   118.0000506 418.400000 
     84     86     87     1   116.8000501 418.400000 
     81     80     82     1   123.0500530 418.400000 
     79     80     81     1   123.0500530 418.400000 
     78     77     79     1   109.5000469 418.400000 
     78     77     96     1   109.5000469 418.400000 
     77     96     97     1   109.5000469 418.400000 
     76     77     78     1   109.5000469 418.400000 
     75     74     76     1   109.5000469 418.400000 
     75     74     94     1   109.5000469 418.400000 
     74     94     95     1   109.5000469 418.400000 
     73     71     74     1   109.5000469 418.400000 
     72     71     73     1   109.5000469 292.880000 
     72     71     74     1   109.5000469 418.400000 
     71     74     75     1   109.5000469 418.400000 
     70     71     72     1   109.5000469 418.400000 
     70     71     73     1   109.5000469 418.400000 
    127    126    128     1   109.5000469 418.400000 
    126    128    129     1   108.5000465 460.240000 
    125    124    126     1   109.5000469 418.400000 
    125    124    130     1   109.5000469 418.400000 
    124    126    127     1   109.5000469 418.400000 
    121    120    122     1   116.8000501 418.400000 
    118    120    121     1   116.8000501 418.400000 
    117    116    118     1   119.7000513 418.400000 
    115    114    116     1   119.7000513 418.400000 
    114    116    117     1   119.7000513 418.400000 
    113    114    115     1   119.1000510 418.400000 
    112    111    113     1   109.5000469 418.400000 
    112    111    126     1   109.5000469 418.400000 
    111    126    127     1   109.5000469 418.400000 
    110    111    112     1   109.5000469 418.400000 
    109    108    110     1   109.5000469 418.400000 
    109    108    124     1   109.5000469 418.400000 
    108    124    125     1   109.5000469 418.400000 
    107    105    108     1   109.5000469 418.400000 
    106    105    107     1   109.5000469 292.880000 
    106    105    108     1   109.5000469 418.400000 
    105    108    109     1   109.5000469 418.400000 
    104    105    106     1   109.5000469 418.400000 
    104    105    107     1   109.5000469 418.400000 
    157    156    158     1   109.5000469 418.400000 
    156    158    159     1   108.5000465 460.240000 
    155    154    156     1   109.5000469 418.400000 
    155    154    160     1   109.5000469 418.400000 
    154    156    157     1   109.5000469 418.400000 
    151    150    152     1   116.8000501 418.400000 
    148    150    151     1   116.8000501 418.400000 
    147    146    148     1   119.7000513 418.400000 
    145    144    146     1   119.7000513 418.400000 
    144    146    147     1   119.7000513 418.400000 
    143    144    145     1   119.1000510 418.400000 
    142    141    143     1   109.5000469 418.400000 
    142    141    156     1   109.5000469 418.400000 
    141    156    157     1   109.5000469 418.400000 
    140    141    142     1   109.5000469 418.400000 
    139    138    140     1   109.5000469 418.400000 
    139    138    154     1   109.5000469 418.400000 
    138    154    155     1   109.5000469 418.400000 
    137    135    138     1   109.5000469 418.400000 
    136    135    137     1   109.5000469 292.880000 
    136    135    138     1   109.5000469 418.400000 
    135    138    139     1   109.5000469 418.400000 
    134    135    136     1   109.5000469 418.400000 
    134    135    137     1   109.5000469 418.400000 
    190    189    191     1   109.5000469 418.400000 
    189    191    192     1   108.5000465 460.240000 
    188    187    189     1   109.5000469 418.400000 
    188    187    193     1   109.5000469 418.400000 
    187    189    190     1   109.5000469 418.400000 
    184    183    185     1   115.4500498 418.400000 
    182    183    184     1   115.4500498 418.400000 
    180    179    181     1   120.0000514 292.880000 
    178    179    180     1   120.0000514 418.400000 
    178    179    181     1   120.0000514 418.400000 
    175    174    176     1   123.0500530 418.400000 
    173    174    175     1   123.0500530 418.400000 
    172    171    173     1   109.5000469 418.400000 
    172    171    189     1   109.5000469 418.400000 
    171    189    190     1   109.5000469 418.400000 
    170    171    172     1   109.5000469 418.400000 
    169    168    170     1   109.5000469 418.400000 
    169    168    187     1   109.5000469 418.400000 
    168    187    188     1   109.5000469 418.400000 
    167    165    168     1   109.5000469 418.400000 
    166    165    167     1   109.5000469 292.880000 
    166    165    168     1   109.5000469 418.400000 
    165    168    169     1   109.5000469 418.400000 
    164    165    166     1   109.5000469 418.400000 
    164    165    167     1   109.5000469 418.400000 
    224    223    225     1   109.5000469 418.400000 
    223    225    226     1   108.5000465 460.240000 
    222    221    223     1   109.5000469 418.400000 
    222    221    227     1   109.5000469 418.400000 
    221    223    224     1   109.5000469 418.400000 
    217    216    218     1   120.0000514 292.880000 
    215    216    217     1   120.0000514 418.400000 
    215    216    218     1   120.0000514 418.400000 
    214    213    215     1   118.0000506 418.400000 
    211    213    214     1   116.8000501 418.400000 
    208    207    209     1   123.0500530 418.400000 
    206    207    208     1   123.0500530 418.400000 
    205    204    206     1   109.5000469 418.400000 
    205    204    223     1   109.5000469 418.400000 
    204    223    224     1   109.5000469 418.400000 
    203    204    205     1   109.5000469 418.400000 
    202    201    203     1   109.5000469 418.400000 
    202    201    221     1   109.5000469 418.400000 
    201    221    222     1   109.5000469 418.400000 
    200    198    201     1   109.5000469 418.400000 
    199    198    200     1   109.5000469 292.880000 
    199    198    201     1   109.5000469 418.400000 
    198    201    202     1   109.5000469 418.400000 
    197    198    199     1   109.5000469 418.400000 
    197    198    200     1   109.5000469 418.400000 
    258    257    259     1   109.5000469 418.400000 
    257    259    260     1   108.5000465 460.240000 
    256    255    257     1   109.5000469 418.400000 
    256    255    261     1   109.5000469 418.400000 
    255    257    258     1   109.5000469 418.400000 
    251    250    252     1   120.0000514 292.880000 
    249    250    251     1   120.0000514 418.400000 
    249    250    252     1   120.0000514 418.400000 
    248    247    249     1   118.0000506 418.400000 
    245    247    248     1   116.8000501 418.400000 
    242    241    243     1   123.0500530 418.400000 
    240    241    242     1   123.0500530 418.400000 
    239    238    240     1   109.5000469 418.400000 
    239    238    257     1   109.5000469 418.400000 
    238    257    258     1   109.5000469 418.400000 
    237    238    239     1   109.5000469 418.400000 
    236    235    237     1   109.5000469 418.400000 
    236    235    255     1   109.5000469 418.400000 
    235    255    256     1   109.5000469 418.400000 
    234    232    235     1   109.5000469 418.400000 
    233    232    234     1   109.5000469 292.880000 
    233    232    235     1   109.5000469 418.400000 
    232    235    236     1   109.5000469 418.400000 
    231    232    233     1   109.5000469 418.400000 
    231    232    234     1   109.5000469 418.400000 
    292    291    293     1   109.5000469 418.400000 
    291    293    294     1   108.5000465 460.240000 
    290    289    291     1   109.5000469 418.400000 
    290    289    295     1   109.5000469 418.400000 
    289    291    292     1   109.5000469 418.400000 
    285    284    286     1   120.0000514 292.880000 
    283    284    285     1   120.0000514 418.400000 
    283    284    286     1   120.0000514 418.400000 
    282    281    283     1   118.0000506 418.400000 
    279    281    282     1   116.8000501 418.400000 
    276    275    277     1   123.0500530 418.400000 
    274    275    276     1   123.0500530 418.400000 
    273    272    274     1   109.5000469 418.400000 
    273    272    291     1   109.5000469 418.400000 
    272    291    292     1   109.5000469 418.400000 
    271    272    273     1   109.5000469 418.400000 
    270    269    271     1   109.5000469 418.400000 
    270    269    289     1   109.5000469 418.400000 
    269    289    290     1   109.5000469 418.400000 
    268    266    269     1   109.5000469 418.400000 
    267    266    268     1   109.5000469 292.880000 
    267    266    269     1   109.5000469 418.400000 
    266    269    270     1   109.5000469 418.400000 
    265    266    267     1   109.5000469 418.400000 
    265    266    268     1   109.5000469 418.400000 
    322    321    323     1   109.5000469 418.400000 
    321    323    324     1   108.5000465 460.240000 
    320    319    321     1   109.5000469 418.400000 
    320    319    325     1   109.5000469 418.400000 
    319    321    322     1   109.5000469 418.400000 
    316    315    317     1   116.8000501 418.400000 
    313    315    316     1   116.8000501 418.400000 
    312    311    313     1   119.7000513 418.400000 
    310    309    311     1   119.7000513 418.400000 
    309    311    312     1   119.7000513 418.400000 
    308    309    310     1   119.1000510 418.400000 
    307    306    308     1   109.5000469 418.400000 
    307    306    321     1   109.5000469 418.400000 
    306    321    322     1   109.5000469 418.400000 
    305    306    307     1   109.5000469 418.400000 
    304    303    305     1   109.5000469 418.400000 
    304    303    319     1   109.5000469 418.400000 
    303    319    320     1   109.5000469 418.400000 
    302    300    303     1   109.5000469 418.400000 
    301    300    302     1   109.5000469 292.880000 
    301    300    303     1   109.5000469 418.400000 
    300    303    304     1   109.5000469 418.400000 
    299    300    301     1   109.5000469 418.400000 
    299    300    302     1   109.5000469 418.400000 
    352    351    353     1   109.5000469 418.400000 
    351    353    354     1   108.5000465 460.240000 
    350    349    351     1   109.5000469 418.400000 
    350    349    355     1   109.5000469 418.400000 
    349    351    352     1   109.5000469 418.400000 
    346    345    347     1   116.8000501 418.400000 
    343    345    346     1   116.8000501 418.400000 
    342    341    343     1   119.7000513 418.400000 
    340    339    341     1   119.7000513 418.400000 
    339    341    342     1   119.7000513 418.400000 
    338    339    340     1   119.1000510 418.400000 
    337    336    338     1   109.5000469 418.400000 
    337    336    351     1   109.5000469 418.400000 
    336    351    352     1   109.5000469 418.400000 
    335    336    337     1   109.5000469 418.400000 
    334    333    335     1   109.5000469 418.400000 
    334    333    349     1   109.5000469 418.400000 
    333    349    350     1   109.5000469 418.400000 
    332    330    333     1   109.5000469 418.400000 
    331    330    332     1   109.5000469 292.880000 
    331    330    333     1   109.5000469 418.400000 
    330    333    334     1   109.5000469 418.400000 
    329    330    331     1   109.5000469 418.400000 
    329    330    332     1   109.5000469 418.400000 
    385    384    386     1   109.5000469 418.400000 
    384    386    387     1   108.5000465 460.240000 
    383    382    384     1   109.5000469 418.400000 
    383    382    388     1   109.5000469 418.400000 
    382    384    385     1   109.5000469 418.400000 
    379    378    380     1   115.4500498 418.400000 
    377    378    379     1   115.4500498 418.400000 
    375    374    376     1   120.0000514 292.880000 
    373    374    375     1   120.0000514 418.400000 
    373    374    376     1   120.0000514 418.400000 
    370    369    371     1   123.0500530 418.400000 
    368    369    370     1   123.0500530 418.400000 
    367    366    368     1   109.5000469 418.400000 
    367    366    384     1   109.5000469 418.400000 
    366    384    385     1   109.5000469 418.400000 
    365    366    367     1   109.5000469 418.400000 
    364    363    365     1   109.5000469 418.400000 
    364    363    382     1   109.5000469 418.400000 
    363    382    383     1   109.5000469 418.400000 
    362    360    363     1   109.5000469 418.400000 
    361    360    362     1   109.5000469 292.880000 
    361    360    363     1   109.5000469 418.400000 
    360    363    364     1   109.5000469 418.400000 
    359    360    361     1   109.5000469 418.400000 
    359    360    362     1   109.5000469 418.400000 
    419    418    420     1   109.5000469 418.400000 
    418    420    421     1   108.5000465 460.240000 
    417    416    418     1   109.5000469 418.400000 
    417    416    422     1   109.5000469 418.400000 
    416    418    419     1   109.5000469 418.400000 
    412    411    413     1   120.0000514 292.880000 
    410    411    412     1   120.0000514 418.400000 
    410    411    413     1   120.0000514 418.400000 
    409    408    410     1   118.0000506 418.400000 
    406    408    409     1   116.8000501 418.400000 
    403    402    404     1   123.0500530 418.400000 
    401    402    403     1   123.0500530 418.400000 
    400    399    401     1   109.5000469 418.400000 
    400    399    418     1   109.5000469 418.400000 
    399    418    419     1   109.5000469 418.400000 
    398    399    400     1   109.5000469 418.400000 
    397    396    398     1   109.5000469 418.400000 
    397    396    416     1   109.5000469 418.400000 
    396    416    417     1   109.5000469 418.400000 
    395    393    396     1   109.5000469 418.400000 
    394    393    395     1   109.5000469 292.880000 
    394    393    396     1   109.5000469 418.400000 
    393    396    397     1   109.5000469 418.400000 
    392    393    394     1   109.5000469 418.400000 
    392    393    395     1   109.5000469 418.400000 
    453    452    454     1   109.5000469 418.400000 
    452    454    455     1   108.5000465 460.240000 
    451    450    452     1   109.5000469 418.400000 
    451    450    456     1   109.5000469 418.400000 
    450    452    453     1   109.5000469 418.400000 
    446    445    447     1   120.0000514 292.880000 
    444    445    446     1   120.0000514 418.400000 
    444    445    447     1   120.0000514 418.400000 
    443    442    444     1   118.0000506 418.400000 
    440    442    443     1   116.8000501 418.400000 
    437    436    438     1   123.0500530 418.400000 
    435    436    437     1   123.0500530 418.400000 
    434    433    435     1   109.5000469 418.400000 
    434    433    452     1   109.5000469 418.400000 
    433    452    453     1   109.5000469 418.400000 
    432    433    434     1   109.5000469 418.400000 
    431    430    432     1   109.5000469 418.400000 
    431    430    450     1   109.5000469 418.400000 
    430    450    451     1   109.5000469 418.400000 
    429    427    430     1   109.5000469 418.400000 
    428    427    429     1   109.5000469 292.880000 
    428    427    430     1   109.5000469 418.400000 
    427    430    431     1   109.5000469 418.400000 
    426    427    428     1   109.5000469 418.400000 
    426    427    429     1   109.5000469 418.400000 
    487    486    488     1   109.5000469 418.400000 
    486    488    489     1   108.5000465 460.240000 
    485    484    486     1   109.5000469 418.400000 
    485    484    490     1   109.5000469 418.400000 
    484    486    487     1   109.5000469 418.400000 
    480    479    481     1   120.0000514 292.880000 
    478    479    480     1   120.0000514 418.400000 
    478    479    481     1   120.0000514 418.400000 
    477    476    478     1   118.0000506 418.400000 
    474    476    477     1   116.8000501 418.400000 
    471    470    472     1   123.0500530 418.400000 
    469    470    471     1   123.0500530 418.400000 
    468    467    469     1   109.5000469 418.400000 
    468    467    486     1   109.5000469 418.400000 
    467    486    487     1   109.5000469 418.400000 
    466    467    468     1   109.5000469 418.400000 
    465    464    466     1   109.5000469 418.400000 
    465    464    484     1   109.5000469 418.400000 
    464    484    485     1   109.5000469 418.400000 
    463    461    464     1   109.5000469 418.400000 
    462    461    463     1   109.5000469 292.880000 
    462    461    464     1   109.5000469 418.400000 
    461    464    465     1   109.5000469 418.400000 
    460    461    462     1   109.5000469 418.400000 
    460    461    463     1   109.5000469 418.400000 
    517    516    518     1   109.5000469 418.400000 
    516    518    519     1   108.5000465 460.240000 
    515    514    516     1   109.5000469 418.400000 
    515    514    520     1   109.5000469 418.400000 
    514    516    517     1   109.5000469 418.400000 
    511    510    512     1   116.8000501 418.400000 
    508    510    511     1   116.8000501 418.400000 
    507    506    508     1   119.7000513 418.400000 
    505    504    506     1   119.7000513 418.400000 
    504    506    507     1   119.7000513 418.400000 
    503    504    505     1   119.1000510 418.400000 
    502    501    503     1   109.5000469 418.400000 
    502    501    516     1   109.5000469 418.400000 
    501    516    517     1   109.5000469 418.400000 
    500    501    502     1   109.5000469 418.400000 
    499    498    500     1   109.5000469 418.400000 
    499    498    514     1   109.5000469 418.400000 
    498    514    515     1   109.5000469 418.400000 
    497    495    498     1   109.5000469 418.400000 
    496    495    497     1   109.5000469 292.880000 
    496    495    498     1   109.5000469 418.400000 
    495    498    499     1   109.5000469 418.400000 
    494    495    496     1   109.5000469 418.400000 
    494    495    497     1   109.5000469 418.400000 
    547    546    548     1   109.5000469 418.400000 
    546    548    549     1   108.5000465 460.240000 
    545    544    546     1   109.5000469 418.400000 
    545    544    550     1   109.5000469 418.400000 
    544    546    547     1   109.5000469 418.400000 
    541    540    542     1   116.8000501 418.400000 
    538    540    541     1   116.8000501 418.400000 
    537    536    538     1   119.7000513 418.400000 
    535    534    536     1   119.7000513 418.400000 
    534    536    537     1   119.7000513 418.400000 
    533    534    535     1   119.1000510 418.400000 
    532    531    533     1   109.5000469 418.400000 
    532    531    546     1   109.5000469 418.400000 
    531    546    547     1   109.5000469 418.400000 
    530    531    532     1   109.5000469 418.400000 
    529    528    530     1   109.5000469 418.400000 
    529    528    544     1   109.5000469 418.400000 
    528    544    545     1   109.5000469 418.400000 
    527    525    528     1   109.5000469 418.400000 
    526    525    527     1   109.5000469 292.880000 
    526    525    528     1   109.5000469 418.400000 
    525    528    529     1   109.5000469 418.400000 
    524    525    526     1   109.5000469 418.400000 
    524    525    527     1   109.5000469 418.400000 
    580    579    581     1   109.5000469 418.400000 
    579    581    582     1   108.5000465 460.240000 
    578    577    579     1   109.5000469 418.400000 
    578    577    583     1   109.5000469 418.400000 
    577    579    580     1   109.5000469 418.400000 
    574    573    575     1   115.4500498 418.400000 
    572    573    574     1   115.4500498 418.400000 
    570    569    571     1   120.0000514 292.880000 
    568    569    570     1   120.0000514 418.400000 
    568    569    571     1   120.0000514 418.400000 
    565    564    566     1   123.0500530 418.400000 
    563    564    565     1   123.0500530 418.400000 
    562    561    563     1   109.5000469 418.400000 
    562    561    579     1   109.5000469 418.400000 
    561    579    580     1   109.5000469 418.400000 
    560    561    562     1   109.5000469 418.400000 
    559    558    560     1   109.5000469 418.400000 
    559    558    577     1   109.5000469 418.400000 
    558    577    578     1   109.5000469 418.400000 
    557    555    558     1   109.5000469 418.400000 
    556    555    557     1   109.5000469 292.880000 
    556    555    558     1   109.5000469 418.400000 
    555    558    559     1   109.5000469 418.400000 
    554    555    556     1   109.5000469 418.400000 
    554    555    557     1   109.5000469 418.400000 
    614    613    615     1   109.5000469 418.400000 
    613    615    616     1   108.5000465 460.240000 
    612    611    613     1   109.5000469 418.400000 
    612    611    617     1   109.5000469 418.400000 
    611    613    614     1   109.5000469 418.400000 
    607    606    608     1   120.0000514 292.880000 
    605    606    607     1   120.0000514 418.400000 
    605    606    608     1   120.0000514 418.400000 
    604    603    605     1   118.0000506 418.400000 
    601    603    604     1   116.8000501 418.400000 
    598    597    599     1   123.0500530 418.400000 
    596    597    598     1   123.0500530 418.400000 
    595    594    596     1   109.5000469 418.400000 
    595    594    613     1   109.5000469 418.400000 
    594    613    614     1   109.5000469 418.400000 
    593    594    595     1   109.5000469 418.400000 
    592    591    593     1   109.5000469 418.400000 
    592    591    611     1   109.5000469 418.400000 
    591    611    612     1   109.5000469 418.400000 
    590    588    591     1   109.5000469 418.400000 
    589    588    590     1   109.5000469 292.880000 
    589    588    591     1   109.5000469 418.400000 
    588    591    592     1   109.5000469 418.400000 
    587    588    589     1   109.5000469 418.400000 
    587    588    590     1   109.5000469 418.400000 
    648    647    649     1   109.5000469 418.400000 
    647    649    650     1   108.5000465 460.240000 
    646    645    647     1   109.5000469 418.400000 
    646    645    651     1   109.5000469 418.400000 
    645    647    648     1   109.5000469 418.400000 
    641    640    642     1   120.0000514 292.880000 
    639    640    641     1   120.0000514 418.400000 
    639    640    642     1   120.0000514 418.400000 
    638    637    639     1   118.0000506 418.400000 
    635    637    638     1   116.8000501 418.400000 
    632    631    633     1   123.0500530 418.400000 
    630    631    632     1   123.0500530 418.400000 
    629    628    630     1   109.5000469 418.400000 
    629    628    647     1   109.5000469 418.400000 
    628    647    648     1   109.5000469 418.400000 
    627    628    629     1   109.5000469 418.400000 
    626    625    627     1   109.5000469 418.400000 
    626    625    645     1   109.5000469 418.400000 
    625    645    646     1   109.5000469 418.400000 
    624    622    625     1   109.5000469 418.400000 
    623    622    624     1   109.5000469 292.880000 
    623    622    625     1   109.5000469 418.400000 
    622    625    626     1   109.5000469 418.400000 
    621    622    623     1   109.5000469 418.400000 
    621    622    624     1   109.5000469 418.400000 
    682    681    683     1   109.5000469 418.400000 
    681    683    684     1   108.5000465 460.240000 
    680    679    681     1   109.5000469 418.400000 
    680    679    685     1   109.5000469 418.400000 
    679    681    682     1   109.5000469 418.400000 
    679    685    686     1   108.5000465 460.240000 
    675    674    676     1   120.0000514 292.880000 
    673    674    675     1   120.0000514 418.400000 
    673    674    676     1   120.0000514 418.400000 
    672    671    673     1   118.0000506 418.400000 
    669    671    672     1   116.8000501 418.400000 
    666    665    667     1   123.0500530 418.400000 
    664    665    666     1   123.0500530 418.400000 
    663    662    664     1   109.5000469 418.400000 
    663    662    681     1   109.5000469 418.400000 
    662    681    682     1   109.5000469 418.400000 
    661    662    663     1   109.5000469 418.400000 
    660    659    661     1   109.5000469 418.400000 
    660    659    679     1   109.5000469 418.400000 
    659    679    680     1   109.5000469 418.400000 
    658    656    659     1   109.5000469 418.400000 
    657    656    658     1   109.5000469 292.880000 
    657    656    659     1   109.5000469 418.400000 
    656    659    660     1   109.5000469 418.400000 
    655    656    657     1   109.5000469 418.400000 
    655    656    658     1   109.5000469 418.400000 

[ dihedrals ] 
;    ai     aj     ak     al funct         c0         c1         c2         c3         c4         c5
32 33 36 37 1 31.7950936 0.559677928844 1 
32 33 36 37 1 351.9597510 3.7976502487 2 
32 33 36 37 1 357.2476330 1.07249769277 3 
30 28 26 32 1 0.0000000 3.5512367348 2 
30 28 26 32 1 0.0000000 0.435215395584 3 
28 26 32 33 1 0.0000000 1.15855952621 3 
26 32 33 34 1 0.0000000 0.755582284 3 
26 32 33 35 1 0.0000000 0.755582284 3 
26 32 33 36 1 0.0000000 3.6267949632 2 
26 32 33 36 1 0.0000000 0.755582284 3 
25 11 9 28 1 0.0000000 0 2 
21 20 24 25 1 180.0000771 14.5071798528 2 
18 16 15 25 1 180.0000771 9.066987408 2 
18 20 24 25 1 180.0000771 14.5071798528 2 
17 16 15 25 1 180.0000771 9.066987408 2 
17 16 18 20 1 180.0000771 4.0801443336 2 
16 15 25 24 1 180.0000771 16.4716937912 2 
16 18 20 21 1 180.0000771 4.533493704 2 
16 18 20 24 1 180.0000771 4.533493704 2 
15 16 18 20 1 180.0000771 4.0801443336 2 
15 25 24 20 1 180.0000771 12.5426659144 2 
14 12 11 25 1 180.0000771 5.1379595312 2 
14 15 16 17 1 180.0000771 9.066987408 2 
14 15 16 18 1 180.0000771 9.066987408 2 
14 15 25 24 1 180.0000771 16.4716937912 2 
12 11 9 28 1 0.0000000 0 2 
12 11 25 15 1 180.0000771 4.9868430744 2 
12 11 25 24 1 180.0000771 4.9868430744 2 
12 14 15 16 1 180.0000771 7.7069392968 2 
12 14 15 25 1 180.0000771 7.7069392968 2 
11 9 28 26 1 0.0000000 0.470140055718 3 
11 9 28 30 1 0.0000000 0.470140055718 3 
11 12 14 15 1 180.0000771 30.22329136 2 
11 25 15 14 1 180.0000771 16.4716937912 2 
11 25 15 16 1 180.0000771 16.4716937912 2 
11 25 24 20 1 180.0000771 12.5426659144 2 
9 8 6 26 1 180.0000771 0.3022329136 2 
9 8 6 26 1 0.0000000 1.15755205909 3 
9 11 12 14 1 180.0000771 5.1379595312 2 
9 11 25 15 1 180.0000771 4.9868430744 2 
9 11 25 24 1 180.0000771 4.9868430744 2 
9 28 26 32 1 0.0000000 0.470140055718 3 
8 6 26 28 1 0.0000000 0.470140055718 3 
8 6 26 32 1 0.0000000 3.5512367348 2 
8 6 26 32 1 0.0000000 0.435215395584 3 
8 9 11 12 1 74.7558318 2.13104427379 1 
8 9 11 12 1 6.2286026 3.22017077235 2 
8 9 11 12 1 168.6503722 1.33807576393 3 
8 9 11 12 1 3.9746017 0.773776719846 4 
8 9 11 25 1 0.0000000 0 2 
8 9 28 26 1 0.0000000 0.470140055718 3 
8 9 28 30 1 0.0000000 3.5512367348 2 
8 9 28 30 1 0.0000000 0.435215395584 3 
6 8 9 11 1 0.0000000 1.9645139384 2 
6 8 9 11 1 0.0000000 1.15755205909 3 
6 8 9 28 1 180.0000771 0.3022329136 2 
6 8 9 28 1 0.0000000 1.15755205909 3 
6 26 28 9 1 180.0000771 0.6044658272 1 
6 26 28 9 1 180.0000771 0.755582284 2 
6 26 28 9 1 0.0000000 0.54401924448 3 
6 26 28 30 1 0.0000000 0.470140055718 3 
6 26 32 33 1 0.0000000 1.15855952621 3 
3 6 8 9 1 180.0000771 0.3022329136 2 
3 6 8 9 1 0.0000000 1.15755205909 3 
3 6 26 28 1 180.0000771 0.6044658272 1 
3 6 26 28 1 180.0000771 0.755582284 2 
3 6 26 28 1 0.0000000 0.54401924448 3 
3 6 26 32 1 0.0000000 0.470140055718 3 
2 3 6 8 1 0.0000000 0.470140055718 3 
2 3 6 26 1 190.9766118 3.56042464427 1 
2 3 6 26 1 295.6329165 0.278362581199 2 
2 3 6 26 1 348.0954991 2.90998914757 3 
66 67 70 71 1 31.7950936 0.559677928844 1 
66 67 70 71 1 351.9597510 3.7976502487 2 
66 67 70 71 1 357.2476330 1.07249769277 3 
64 62 60 66 1 0.0000000 3.5512367348 2 
64 62 60 66 1 0.0000000 0.435215395584 3 
62 60 66 67 1 0.0000000 1.15855952621 3 
60 66 67 68 1 0.0000000 0.755582284 3 
60 66 67 69 1 0.0000000 0.755582284 3 
60 66 67 70 1 0.0000000 3.6267949632 2 
60 66 67 70 1 0.0000000 0.755582284 3 
59 45 43 62 1 0.0000000 0 2 
55 54 58 59 1 180.0000771 14.5071798528 2 
52 50 49 59 1 180.0000771 9.066987408 2 
52 54 58 59 1 180.0000771 14.5071798528 2 
51 50 49 59 1 180.0000771 9.066987408 2 
51 50 52 54 1 180.0000771 4.0801443336 2 
50 49 59 58 1 180.0000771 16.4716937912 2 
50 52 54 55 1 180.0000771 4.533493704 2 
50 52 54 58 1 180.0000771 4.533493704 2 
49 50 52 54 1 180.0000771 4.0801443336 2 
49 59 58 54 1 180.0000771 12.5426659144 2 
48 46 45 59 1 180.0000771 5.1379595312 2 
48 49 50 51 1 180.0000771 9.066987408 2 
48 49 50 52 1 180.0000771 9.066987408 2 
48 49 59 58 1 180.0000771 16.4716937912 2 
46 45 43 62 1 0.0000000 0 2 
46 45 59 49 1 180.0000771 4.9868430744 2 
46 45 59 58 1 180.0000771 4.9868430744 2 
46 48 49 50 1 180.0000771 7.7069392968 2 
46 48 49 59 1 180.0000771 7.7069392968 2 
45 43 62 60 1 0.0000000 0.470140055718 3 
45 43 62 64 1 0.0000000 0.470140055718 3 
45 46 48 49 1 180.0000771 30.22329136 2 
45 59 49 48 1 180.0000771 16.4716937912 2 
45 59 49 50 1 180.0000771 16.4716937912 2 
45 59 58 54 1 180.0000771 12.5426659144 2 
43 42 40 60 1 180.0000771 0.3022329136 2 
43 42 40 60 1 0.0000000 1.15755205909 3 
43 45 46 48 1 180.0000771 5.1379595312 2 
43 45 59 49 1 180.0000771 4.9868430744 2 
43 45 59 58 1 180.0000771 4.9868430744 2 
43 62 60 66 1 0.0000000 0.470140055718 3 
42 40 60 62 1 0.0000000 0.470140055718 3 
42 40 60 66 1 0.0000000 3.5512367348 2 
42 40 60 66 1 0.0000000 0.435215395584 3 
42 43 45 46 1 74.7558318 2.13104427379 1 
42 43 45 46 1 6.2286026 3.22017077235 2 
42 43 45 46 1 168.6503722 1.33807576393 3 
42 43 45 46 1 3.9746017 0.773776719846 4 
42 43 45 59 1 0.0000000 0 2 
42 43 62 60 1 0.0000000 0.470140055718 3 
42 43 62 64 1 0.0000000 3.5512367348 2 
42 43 62 64 1 0.0000000 0.435215395584 3 
40 42 43 45 1 0.0000000 1.9645139384 2 
40 42 43 45 1 0.0000000 1.15755205909 3 
40 42 43 62 1 180.0000771 0.3022329136 2 
40 42 43 62 1 0.0000000 1.15755205909 3 
40 60 62 43 1 180.0000771 0.6044658272 1 
40 60 62 43 1 180.0000771 0.755582284 2 
40 60 62 43 1 0.0000000 0.54401924448 3 
40 60 62 64 1 0.0000000 0.470140055718 3 
40 60 66 67 1 0.0000000 1.15855952621 3 
37 40 42 43 1 180.0000771 0.3022329136 2 
37 40 42 43 1 0.0000000 1.15755205909 3 
37 40 60 62 1 180.0000771 0.6044658272 1 
37 40 60 62 1 180.0000771 0.755582284 2 
37 40 60 62 1 0.0000000 0.54401924448 3 
37 40 60 66 1 0.0000000 0.470140055718 3 
36 37 40 42 1 0.0000000 0.470140055718 3 
36 37 40 60 1 190.9766118 3.56042464427 1 
36 37 40 60 1 295.6329165 0.278362581199 2 
36 37 40 60 1 348.0954991 2.90998914757 3 
35 33 36 37 1 0.0000000 0.755582284 3 
34 33 36 37 1 0.0000000 0.755582284 3 
33 36 37 40 1 0.0000000 1.15855952621 3 
100 101 104 105 1 31.7950936 0.559677928844 1 
100 101 104 105 1 351.9597510 3.7976502487 2 
100 101 104 105 1 357.2476330 1.07249769277 3 
98 96 94 100 1 0.0000000 3.5512367348 2 
98 96 94 100 1 0.0000000 0.435215395584 3 
96 94 100 101 1 0.0000000 1.15855952621 3 
94 100 101 102 1 0.0000000 0.755582284 3 
94 100 101 103 1 0.0000000 0.755582284 3 
94 100 101 104 1 0.0000000 3.6267949632 2 
94 100 101 104 1 0.0000000 0.755582284 3 
93 79 77 96 1 0.0000000 0 2 
89 88 92 93 1 180.0000771 14.5071798528 2 
86 84 83 93 1 180.0000771 9.066987408 2 
86 88 92 93 1 180.0000771 14.5071798528 2 
85 84 83 93 1 180.0000771 9.066987408 2 
85 84 86 88 1 180.0000771 4.0801443336 2 
84 83 93 92 1 180.0000771 16.4716937912 2 
84 86 88 89 1 180.0000771 4.533493704 2 
84 86 88 92 1 180.0000771 4.533493704 2 
83 84 86 88 1 180.0000771 4.0801443336 2 
83 93 92 88 1 180.0000771 12.5426659144 2 
82 80 79 93 1 180.0000771 5.1379595312 2 
82 83 84 85 1 180.0000771 9.066987408 2 
82 83 84 86 1 180.0000771 9.066987408 2 
82 83 93 92 1 180.0000771 16.4716937912 2 
80 79 77 96 1 0.0000000 0 2 
80 79 93 83 1 180.0000771 4.9868430744 2 
80 79 93 92 1 180.0000771 4.9868430744 2 
80 82 83 84 1 180.0000771 7.7069392968 2 
80 82 83 93 1 180.0000771 7.7069392968 2 
79 77 96 94 1 0.0000000 0.470140055718 3 
79 77 96 98 1 0.0000000 0.470140055718 3 
79 80 82 83 1 180.0000771 30.22329136 2 
79 93 83 82 1 180.0000771 16.4716937912 2 
79 93 83 84 1 180.0000771 16.4716937912 2 
79 93 92 88 1 180.0000771 12.5426659144 2 
77 76 74 94 1 180.0000771 0.3022329136 2 
77 76 74 94 1 0.0000000 1.15755205909 3 
77 79 80 82 1 180.0000771 5.1379595312 2 
77 79 93 83 1 180.0000771 4.9868430744 2 
77 79 93 92 1 180.0000771 4.9868430744 2 
77 96 94 100 1 0.0000000 0.470140055718 3 
76 74 94 96 1 0.0000000 0.470140055718 3 
76 74 94 100 1 0.0000000 3.5512367348 2 
76 74 94 100 1 0.0000000 0.435215395584 3 
76 77 79 80 1 74.7558318 2.13104427379 1 
76 77 79 80 1 6.2286026 3.22017077235 2 
76 77 79 80 1 168.6503722 1.33807576393 3 
76 77 79 80 1 3.9746017 0.773776719846 4 
76 77 79 93 1 0.0000000 0 2 
76 77 96 94 1 0.0000000 0.470140055718 3 
76 77 96 98 1 0.0000000 3.5512367348 2 
76 77 96 98 1 0.0000000 0.435215395584 3 
74 76 77 79 1 0.0000000 1.9645139384 2 
74 76 77 79 1 0.0000000 1.15755205909 3 
74 76 77 96 1 180.0000771 0.3022329136 2 
74 76 77 96 1 0.0000000 1.15755205909 3 
74 94 96 77 1 180.0000771 0.6044658272 1 
74 94 96 77 1 180.0000771 0.755582284 2 
74 94 96 77 1 0.0000000 0.54401924448 3 
74 94 96 98 1 0.0000000 0.470140055718 3 
74 94 100 101 1 0.0000000 1.15855952621 3 
71 74 76 77 1 180.0000771 0.3022329136 2 
71 74 76 77 1 0.0000000 1.15755205909 3 
71 74 94 96 1 180.0000771 0.6044658272 1 
71 74 94 96 1 180.0000771 0.755582284 2 
71 74 94 96 1 0.0000000 0.54401924448 3 
71 74 94 100 1 0.0000000 0.470140055718 3 
70 71 74 76 1 0.0000000 0.470140055718 3 
70 71 74 94 1 190.9766118 3.56042464427 1 
70 71 74 94 1 295.6329165 0.278362581199 2 
70 71 74 94 1 348.0954991 2.90998914757 3 
69 67 70 71 1 0.0000000 0.755582284 3 
68 67 70 71 1 0.0000000 0.755582284 3 
67 70 71 74 1 0.0000000 1.15855952621 3 
130 131 134 135 1 31.7950936 0.559677928844 1 
130 131 134 135 1 351.9597510 3.7976502487 2 
130 131 134 135 1 357.2476330 1.07249769277 3 
128 126 124 130 1 0.0000000 3.5512367348 2 
128 126 124 130 1 0.0000000 0.435215395584 3 
126 124 130 131 1 0.0000000 1.15855952621 3 
124 130 131 132 1 0.0000000 0.755582284 3 
124 130 131 133 1 0.0000000 0.755582284 3 
124 130 131 134 1 0.0000000 3.6267949632 2 
124 130 131 134 1 0.0000000 0.755582284 3 
122 113 111 126 1 0.0000000 0 2 
119 118 120 122 1 180.0000771 4.0801443336 2 
118 120 122 123 1 180.0000771 4.0801443336 2 
116 114 113 122 1 180.0000771 5.5913089016 2 
116 118 120 122 1 180.0000771 4.0801443336 2 
114 113 111 126 1 0.0000000 0 2 
114 113 122 120 1 180.0000771 4.3823772472 2 
114 113 122 123 1 180.0000771 4.3823772472 2 
114 116 118 119 1 180.0000771 6.5735658708 2 
114 116 118 119 1 0.0000000 0.9066987408 3 
114 116 118 120 1 180.0000771 6.5735658708 2 
113 111 126 124 1 0.0000000 0.470140055718 3 
113 111 126 128 1 0.0000000 0.470140055718 3 
113 114 116 118 1 180.0000771 20.0984887544 2 
113 122 120 118 1 180.0000771 4.0801443336 2 
111 110 108 124 1 180.0000771 0.3022329136 2 
111 110 108 124 1 0.0000000 1.15755205909 3 
111 113 114 116 1 180.0000771 5.5913089016 2 
111 113 122 120 1 180.0000771 4.3823772472 2 
111 113 122 123 1 180.0000771 4.3823772472 2 
111 126 124 130 1 0.0000000 0.470140055718 3 
110 108 124 126 1 0.0000000 0.470140055718 3 
110 108 124 130 1 0.0000000 3.5512367348 2 
110 108 124 130 1 0.0000000 0.435215395584 3 
110 111 113 114 1 149.8583644 3.09831051937 1 
110 111 113 114 1 16.7648072 5.28532827098 2 
110 111 113 114 1 179.3474771 1.75748439258 3 
110 111 113 114 1 16.0016068 1.06228823027 4 
110 111 113 122 1 0.0000000 0 2 
110 111 126 124 1 0.0000000 0.470140055718 3 
110 111 126 128 1 0.0000000 3.5512367348 2 
110 111 126 128 1 0.0000000 0.435215395584 3 
108 110 111 113 1 0.0000000 1.9645139384 2 
108 110 111 113 1 0.0000000 1.15755205909 3 
108 110 111 126 1 180.0000771 0.3022329136 2 
108 110 111 126 1 0.0000000 1.15755205909 3 
108 124 126 111 1 180.0000771 0.6044658272 1 
108 124 126 111 1 180.0000771 0.755582284 2 
108 124 126 111 1 0.0000000 0.54401924448 3 
108 124 126 128 1 0.0000000 0.470140055718 3 
108 124 130 131 1 0.0000000 1.15855952621 3 
105 108 110 111 1 180.0000771 0.3022329136 2 
105 108 110 111 1 0.0000000 1.15755205909 3 
105 108 124 126 1 180.0000771 0.6044658272 1 
105 108 124 126 1 180.0000771 0.755582284 2 
105 108 124 126 1 0.0000000 0.54401924448 3 
105 108 124 130 1 0.0000000 0.470140055718 3 
104 105 108 110 1 0.0000000 0.470140055718 3 
104 105 108 124 1 190.9766118 3.56042464427 1 
104 105 108 124 1 295.6329165 0.278362581199 2 
104 105 108 124 1 348.0954991 2.90998914757 3 
103 101 104 105 1 0.0000000 0.755582284 3 
102 101 104 105 1 0.0000000 0.755582284 3 
101 104 105 108 1 0.0000000 1.15855952621 3 
160 161 164 165 1 31.7950936 0.559677928844 1 
160 161 164 165 1 351.9597510 3.7976502487 2 
160 161 164 165 1 357.2476330 1.07249769277 3 
158 156 154 160 1 0.0000000 3.5512367348 2 
158 156 154 160 1 0.0000000 0.435215395584 3 
156 154 160 161 1 0.0000000 1.15855952621 3 
154 160 161 162 1 0.0000000 0.755582284 3 
154 160 161 163 1 0.0000000 0.755582284 3 
154 160 161 164 1 0.0000000 3.6267949632 2 
154 160 161 164 1 0.0000000 0.755582284 3 
152 143 141 156 1 0.0000000 0 2 
149 148 150 152 1 180.0000771 4.0801443336 2 
148 150 152 153 1 180.0000771 4.0801443336 2 
146 144 143 152 1 180.0000771 5.5913089016 2 
146 148 150 152 1 180.0000771 4.0801443336 2 
144 143 141 156 1 0.0000000 0 2 
144 143 152 150 1 180.0000771 4.3823772472 2 
144 143 152 153 1 180.0000771 4.3823772472 2 
144 146 148 149 1 180.0000771 6.5735658708 2 
144 146 148 149 1 0.0000000 0.9066987408 3 
144 146 148 150 1 180.0000771 6.5735658708 2 
143 141 156 154 1 0.0000000 0.470140055718 3 
143 141 156 158 1 0.0000000 0.470140055718 3 
143 144 146 148 1 180.0000771 20.0984887544 2 
143 152 150 148 1 180.0000771 4.0801443336 2 
141 140 138 154 1 180.0000771 0.3022329136 2 
141 140 138 154 1 0.0000000 1.15755205909 3 
141 143 144 146 1 180.0000771 5.5913089016 2 
141 143 152 150 1 180.0000771 4.3823772472 2 
141 143 152 153 1 180.0000771 4.3823772472 2 
141 156 154 160 1 0.0000000 0.470140055718 3 
140 138 154 156 1 0.0000000 0.470140055718 3 
140 138 154 160 1 0.0000000 3.5512367348 2 
140 138 154 160 1 0.0000000 0.435215395584 3 
140 141 143 144 1 149.8583644 3.09831051937 1 
140 141 143 144 1 16.7648072 5.28532827098 2 
140 141 143 144 1 179.3474771 1.75748439258 3 
140 141 143 144 1 16.0016068 1.06228823027 4 
140 141 143 152 1 0.0000000 0 2 
140 141 156 154 1 0.0000000 0.470140055718 3 
140 141 156 158 1 0.0000000 3.5512367348 2 
140 141 156 158 1 0.0000000 0.435215395584 3 
138 140 141 143 1 0.0000000 1.9645139384 2 
138 140 141 143 1 0.0000000 1.15755205909 3 
138 140 141 156 1 180.0000771 0.3022329136 2 
138 140 141 156 1 0.0000000 1.15755205909 3 
138 154 156 141 1 180.0000771 0.6044658272 1 
138 154 156 141 1 180.0000771 0.755582284 2 
138 154 156 141 1 0.0000000 0.54401924448 3 
138 154 156 158 1 0.0000000 0.470140055718 3 
138 154 160 161 1 0.0000000 1.15855952621 3 
135 138 140 141 1 180.0000771 0.3022329136 2 
135 138 140 141 1 0.0000000 1.15755205909 3 
135 138 154 156 1 180.0000771 0.6044658272 1 
135 138 154 156 1 180.0000771 0.755582284 2 
135 138 154 156 1 0.0000000 0.54401924448 3 
135 138 154 160 1 0.0000000 0.470140055718 3 
134 135 138 140 1 0.0000000 0.470140055718 3 
134 135 138 154 1 190.9766118 3.56042464427 1 
134 135 138 154 1 295.6329165 0.278362581199 2 
134 135 138 154 1 348.0954991 2.90998914757 3 
133 131 134 135 1 0.0000000 0.755582284 3 
132 131 134 135 1 0.0000000 0.755582284 3 
131 134 135 138 1 0.0000000 1.15855952621 3 
193 194 197 198 1 31.7950936 0.559677928844 1 
193 194 197 198 1 351.9597510 3.7976502487 2 
193 194 197 198 1 357.2476330 1.07249769277 3 
191 189 187 193 1 0.0000000 3.5512367348 2 
191 189 187 193 1 0.0000000 0.435215395584 3 
189 187 193 194 1 0.0000000 1.15855952621 3 
187 193 194 195 1 0.0000000 0.755582284 3 
187 193 194 196 1 0.0000000 0.755582284 3 
187 193 194 197 1 0.0000000 3.6267949632 2 
187 193 194 197 1 0.0000000 0.755582284 3 
186 173 171 189 1 0.0000000 0 2 
182 178 177 186 1 180.0000771 10.578151976 2 
182 183 185 186 1 180.0000771 20.5518381248 2 
179 178 177 186 1 180.0000771 10.578151976 2 
179 178 182 183 1 180.0000771 14.5071798528 2 
178 177 186 185 1 180.0000771 16.4716937912 2 
178 182 183 185 1 180.0000771 20.5518381248 2 
177 178 182 183 1 180.0000771 14.5071798528 2 
177 186 185 183 1 180.0000771 12.5426659144 2 
176 174 173 186 1 180.0000771 5.1379595312 2 
176 177 178 179 1 180.0000771 10.578151976 2 
176 177 178 182 1 180.0000771 10.578151976 2 
176 177 186 185 1 180.0000771 16.4716937912 2 
174 173 171 189 1 0.0000000 0 2 
174 173 186 177 1 180.0000771 4.9868430744 2 
174 173 186 185 1 180.0000771 4.9868430744 2 
174 176 177 178 1 180.0000771 7.7069392968 2 
174 176 177 186 1 180.0000771 7.7069392968 2 
173 171 189 187 1 0.0000000 0.470140055718 3 
173 171 189 191 1 0.0000000 0.470140055718 3 
173 174 176 177 1 180.0000771 30.22329136 2 
173 186 177 176 1 180.0000771 16.4716937912 2 
173 186 177 178 1 180.0000771 16.4716937912 2 
173 186 185 183 1 180.0000771 12.5426659144 2 
171 170 168 187 1 180.0000771 0.3022329136 2 
171 170 168 187 1 0.0000000 1.15755205909 3 
171 173 174 176 1 180.0000771 5.1379595312 2 
171 173 186 177 1 180.0000771 4.9868430744 2 
171 173 186 185 1 180.0000771 4.9868430744 2 
171 189 187 193 1 0.0000000 0.470140055718 3 
170 168 187 189 1 0.0000000 0.470140055718 3 
170 168 187 193 1 0.0000000 3.5512367348 2 
170 168 187 193 1 0.0000000 0.435215395584 3 
170 171 173 174 1 68.7902296 2.91839120812 1 
170 171 173 174 1 15.6360067 3.24607214749 2 
170 171 173 174 1 171.5787733 1.38283650178 3 
170 171 173 174 1 19.0921082 0.934413513424 4 
170 171 173 186 1 0.0000000 0 2 
170 171 189 187 1 0.0000000 0.470140055718 3 
170 171 189 191 1 0.0000000 3.5512367348 2 
170 171 189 191 1 0.0000000 0.435215395584 3 
168 170 171 173 1 0.0000000 1.9645139384 2 
168 170 171 173 1 0.0000000 1.15755205909 3 
168 170 171 189 1 180.0000771 0.3022329136 2 
168 170 171 189 1 0.0000000 1.15755205909 3 
168 187 189 171 1 180.0000771 0.6044658272 1 
168 187 189 171 1 180.0000771 0.755582284 2 
168 187 189 171 1 0.0000000 0.54401924448 3 
168 187 189 191 1 0.0000000 0.470140055718 3 
168 187 193 194 1 0.0000000 1.15855952621 3 
165 168 170 171 1 180.0000771 0.3022329136 2 
165 168 170 171 1 0.0000000 1.15755205909 3 
165 168 187 189 1 180.0000771 0.6044658272 1 
165 168 187 189 1 180.0000771 0.755582284 2 
165 168 187 189 1 0.0000000 0.54401924448 3 
165 168 187 193 1 0.0000000 0.470140055718 3 
164 165 168 170 1 0.0000000 0.470140055718 3 
164 165 168 187 1 190.9766118 3.56042464427 1 
164 165 168 187 1 295.6329165 0.278362581199 2 
164 165 168 187 1 348.0954991 2.90998914757 3 
163 161 164 165 1 0.0000000 0.755582284 3 
162 161 164 165 1 0.0000000 0.755582284 3 
161 164 165 168 1 0.0000000 1.15855952621 3 
227 228 231 232 1 31.7950936 0.559677928844 1 
227 228 231 232 1 351.9597510 3.7976502487 2 
227 228 231 232 1 357.2476330 1.07249769277 3 
225 223 221 227 1 0.0000000 3.5512367348 2 
225 223 221 227 1 0.0000000 0.435215395584 3 
223 221 227 228 1 0.0000000 1.15855952621 3 
221 227 228 229 1 0.0000000 0.755582284 3 
221 227 228 230 1 0.0000000 0.755582284 3 
221 227 228 231 1 0.0000000 3.6267949632 2 
221 227 228 231 1 0.0000000 0.755582284 3 
220 206 204 223 1 0.0000000 0 2 
216 215 219 220 1 180.0000771 14.5071798528 2 
213 211 210 220 1 180.0000771 9.066987408 2 
213 215 219 220 1 180.0000771 14.5071798528 2 
212 211 210 220 1 180.0000771 9.066987408 2 
212 211 213 215 1 180.0000771 4.0801443336 2 
211 210 220 219 1 180.0000771 16.4716937912 2 
211 213 215 216 1 180.0000771 4.533493704 2 
211 213 215 219 1 180.0000771 4.533493704 2 
210 211 213 215 1 180.0000771 4.0801443336 2 
210 220 219 215 1 180.0000771 12.5426659144 2 
209 207 206 220 1 180.0000771 5.1379595312 2 
209 210 211 212 1 180.0000771 9.066987408 2 
209 210 211 213 1 180.0000771 9.066987408 2 
209 210 220 219 1 180.0000771 16.4716937912 2 
207 206 204 223 1 0.0000000 0 2 
207 206 220 210 1 180.0000771 4.9868430744 2 
207 206 220 219 1 180.0000771 4.9868430744 2 
207 209 210 211 1 180.0000771 7.7069392968 2 
207 209 210 220 1 180.0000771 7.7069392968 2 
206 204 223 221 1 0.0000000 0.470140055718 3 
206 204 223 225 1 0.0000000 0.470140055718 3 
206 207 209 210 1 180.0000771 30.22329136 2 
206 220 210 209 1 180.0000771 16.4716937912 2 
206 220 210 211 1 180.0000771 16.4716937912 2 
206 220 219 215 1 180.0000771 12.5426659144 2 
204 203 201 221 1 180.0000771 0.3022329136 2 
204 203 201 221 1 0.0000000 1.15755205909 3 
204 206 207 209 1 180.0000771 5.1379595312 2 
204 206 220 210 1 180.0000771 4.9868430744 2 
204 206 220 219 1 180.0000771 4.9868430744 2 
204 223 221 227 1 0.0000000 0.470140055718 3 
203 201 221 223 1 0.0000000 0.470140055718 3 
203 201 221 227 1 0.0000000 3.5512367348 2 
203 201 221 227 1 0.0000000 0.435215395584 3 
203 204 206 207 1 74.7558318 2.13104427379 1 
203 204 206 207 1 6.2286026 3.22017077235 2 
203 204 206 207 1 168.6503722 1.33807576393 3 
203 204 206 207 1 3.9746017 0.773776719846 4 
203 204 206 220 1 0.0000000 0 2 
203 204 223 221 1 0.0000000 0.470140055718 3 
203 204 223 225 1 0.0000000 3.5512367348 2 
203 204 223 225 1 0.0000000 0.435215395584 3 
201 203 204 206 1 0.0000000 1.9645139384 2 
201 203 204 206 1 0.0000000 1.15755205909 3 
201 203 204 223 1 180.0000771 0.3022329136 2 
201 203 204 223 1 0.0000000 1.15755205909 3 
201 221 223 204 1 180.0000771 0.6044658272 1 
201 221 223 204 1 180.0000771 0.755582284 2 
201 221 223 204 1 0.0000000 0.54401924448 3 
201 221 223 225 1 0.0000000 0.470140055718 3 
201 221 227 228 1 0.0000000 1.15855952621 3 
198 201 203 204 1 180.0000771 0.3022329136 2 
198 201 203 204 1 0.0000000 1.15755205909 3 
198 201 221 223 1 180.0000771 0.6044658272 1 
198 201 221 223 1 180.0000771 0.755582284 2 
198 201 221 223 1 0.0000000 0.54401924448 3 
198 201 221 227 1 0.0000000 0.470140055718 3 
197 198 201 203 1 0.0000000 0.470140055718 3 
197 198 201 221 1 190.9766118 3.56042464427 1 
197 198 201 221 1 295.6329165 0.278362581199 2 
197 198 201 221 1 348.0954991 2.90998914757 3 
196 194 197 198 1 0.0000000 0.755582284 3 
195 194 197 198 1 0.0000000 0.755582284 3 
194 197 198 201 1 0.0000000 1.15855952621 3 
261 262 265 266 1 31.7950936 0.559677928844 1 
261 262 265 266 1 351.9597510 3.7976502487 2 
261 262 265 266 1 357.2476330 1.07249769277 3 
259 257 255 261 1 0.0000000 3.5512367348 2 
259 257 255 261 1 0.0000000 0.435215395584 3 
257 255 261 262 1 0.0000000 1.15855952621 3 
255 261 262 263 1 0.0000000 0.755582284 3 
255 261 262 264 1 0.0000000 0.755582284 3 
255 261 262 265 1 0.0000000 3.6267949632 2 
255 261 262 265 1 0.0000000 0.755582284 3 
254 240 238 257 1 0.0000000 0 2 
250 249 253 254 1 180.0000771 14.5071798528 2 
247 245 244 254 1 180.0000771 9.066987408 2 
247 249 253 254 1 180.0000771 14.5071798528 2 
246 245 244 254 1 180.0000771 9.066987408 2 
246 245 247 249 1 180.0000771 4.0801443336 2 
245 244 254 253 1 180.0000771 16.4716937912 2 
245 247 249 250 1 180.0000771 4.533493704 2 
245 247 249 253 1 180.0000771 4.533493704 2 
244 245 247 249 1 180.0000771 4.0801443336 2 
244 254 253 249 1 180.0000771 12.5426659144 2 
243 241 240 254 1 180.0000771 5.1379595312 2 
243 244 245 246 1 180.0000771 9.066987408 2 
243 244 245 247 1 180.0000771 9.066987408 2 
243 244 254 253 1 180.0000771 16.4716937912 2 
241 240 238 257 1 0.0000000 0 2 
241 240 254 244 1 180.0000771 4.9868430744 2 
241 240 254 253 1 180.0000771 4.9868430744 2 
241 243 244 245 1 180.0000771 7.7069392968 2 
241 243 244 254 1 180.0000771 7.7069392968 2 
240 238 257 255 1 0.0000000 0.470140055718 3 
240 238 257 259 1 0.0000000 0.470140055718 3 
240 241 243 244 1 180.0000771 30.22329136 2 
240 254 244 243 1 180.0000771 16.4716937912 2 
240 254 244 245 1 180.0000771 16.4716937912 2 
240 254 253 249 1 180.0000771 12.5426659144 2 
238 237 235 255 1 180.0000771 0.3022329136 2 
238 237 235 255 1 0.0000000 1.15755205909 3 
238 240 241 243 1 180.0000771 5.1379595312 2 
238 240 254 244 1 180.0000771 4.9868430744 2 
238 240 254 253 1 180.0000771 4.9868430744 2 
238 257 255 261 1 0.0000000 0.470140055718 3 
237 235 255 257 1 0.0000000 0.470140055718 3 
237 235 255 261 1 0.0000000 3.5512367348 2 
237 235 255 261 1 0.0000000 0.435215395584 3 
237 238 240 241 1 74.7558318 2.13104427379 1 
237 238 240 241 1 6.2286026 3.22017077235 2 
237 238 240 241 1 168.6503722 1.33807576393 3 
237 238 240 241 1 3.9746017 0.773776719846 4 
237 238 240 254 1 0.0000000 0 2 
237 238 257 255 1 0.0000000 0.470140055718 3 
237 238 257 259 1 0.0000000 3.5512367348 2 
237 238 257 259 1 0.0000000 0.435215395584 3 
235 237 238 240 1 0.0000000 1.9645139384 2 
235 237 238 240 1 0.0000000 1.15755205909 3 
235 237 238 257 1 180.0000771 0.3022329136 2 
235 237 238 257 1 0.0000000 1.15755205909 3 
235 255 257 238 1 180.0000771 0.6044658272 1 
235 255 257 238 1 180.0000771 0.755582284 2 
235 255 257 238 1 0.0000000 0.54401924448 3 
235 255 257 259 1 0.0000000 0.470140055718 3 
235 255 261 262 1 0.0000000 1.15855952621 3 
232 235 237 238 1 180.0000771 0.3022329136 2 
232 235 237 238 1 0.0000000 1.15755205909 3 
232 235 255 257 1 180.0000771 0.6044658272 1 
232 235 255 257 1 180.0000771 0.755582284 2 
232 235 255 257 1 0.0000000 0.54401924448 3 
232 235 255 261 1 0.0000000 0.470140055718 3 
231 232 235 237 1 0.0000000 0.470140055718 3 
231 232 235 255 1 190.9766118 3.56042464427 1 
231 232 235 255 1 295.6329165 0.278362581199 2 
231 232 235 255 1 348.0954991 2.90998914757 3 
230 228 231 232 1 0.0000000 0.755582284 3 
229 228 231 232 1 0.0000000 0.755582284 3 
228 231 232 235 1 0.0000000 1.15855952621 3 
295 296 299 300 1 31.7950936 0.559677928844 1 
295 296 299 300 1 351.9597510 3.7976502487 2 
295 296 299 300 1 357.2476330 1.07249769277 3 
293 291 289 295 1 0.0000000 3.5512367348 2 
293 291 289 295 1 0.0000000 0.435215395584 3 
291 289 295 296 1 0.0000000 1.15855952621 3 
289 295 296 297 1 0.0000000 0.755582284 3 
289 295 296 298 1 0.0000000 0.755582284 3 
289 295 296 299 1 0.0000000 3.6267949632 2 
289 295 296 299 1 0.0000000 0.755582284 3 
288 274 272 291 1 0.0000000 0 2 
284 283 287 288 1 180.0000771 14.5071798528 2 
281 279 278 288 1 180.0000771 9.066987408 2 
281 283 287 288 1 180.0000771 14.5071798528 2 
280 279 278 288 1 180.0000771 9.066987408 2 
280 279 281 283 1 180.0000771 4.0801443336 2 
279 278 288 287 1 180.0000771 16.4716937912 2 
279 281 283 284 1 180.0000771 4.533493704 2 
279 281 283 287 1 180.0000771 4.533493704 2 
278 279 281 283 1 180.0000771 4.0801443336 2 
278 288 287 283 1 180.0000771 12.5426659144 2 
277 275 274 288 1 180.0000771 5.1379595312 2 
277 278 279 280 1 180.0000771 9.066987408 2 
277 278 279 281 1 180.0000771 9.066987408 2 
277 278 288 287 1 180.0000771 16.4716937912 2 
275 274 272 291 1 0.0000000 0 2 
275 274 288 278 1 180.0000771 4.9868430744 2 
275 274 288 287 1 180.0000771 4.9868430744 2 
275 277 278 279 1 180.0000771 7.7069392968 2 
275 277 278 288 1 180.0000771 7.7069392968 2 
274 272 291 289 1 0.0000000 0.470140055718 3 
274 272 291 293 1 0.0000000 0.470140055718 3 
274 275 277 278 1 180.0000771 30.22329136 2 
274 288 278 277 1 180.0000771 16.4716937912 2 
274 288 278 279 1 180.0000771 16.4716937912 2 
274 288 287 283 1 180.0000771 12.5426659144 2 
272 271 269 289 1 180.0000771 0.3022329136 2 
272 271 269 289 1 0.0000000 1.15755205909 3 
272 274 275 277 1 180.0000771 5.1379595312 2 
272 274 288 278 1 180.0000771 4.9868430744 2 
272 274 288 287 1 180.0000771 4.9868430744 2 
272 291 289 295 1 0.0000000 0.470140055718 3 
271 269 289 291 1 0.0000000 0.470140055718 3 
271 269 289 295 1 0.0000000 3.5512367348 2 
271 269 289 295 1 0.0000000 0.435215395584 3 
271 272 274 275 1 74.7558318 2.13104427379 1 
271 272 274 275 1 6.2286026 3.22017077235 2 
271 272 274 275 1 168.6503722 1.33807576393 3 
271 272 274 275 1 3.9746017 0.773776719846 4 
271 272 274 288 1 0.0000000 0 2 
271 272 291 289 1 0.0000000 0.470140055718 3 
271 272 291 293 1 0.0000000 3.5512367348 2 
271 272 291 293 1 0.0000000 0.435215395584 3 
269 271 272 274 1 0.0000000 1.9645139384 2 
269 271 272 274 1 0.0000000 1.15755205909 3 
269 271 272 291 1 180.0000771 0.3022329136 2 
269 271 272 291 1 0.0000000 1.15755205909 3 
269 289 291 272 1 180.0000771 0.6044658272 1 
269 289 291 272 1 180.0000771 0.755582284 2 
269 289 291 272 1 0.0000000 0.54401924448 3 
269 289 291 293 1 0.0000000 0.470140055718 3 
269 289 295 296 1 0.0000000 1.15855952621 3 
266 269 271 272 1 180.0000771 0.3022329136 2 
266 269 271 272 1 0.0000000 1.15755205909 3 
266 269 289 291 1 180.0000771 0.6044658272 1 
266 269 289 291 1 180.0000771 0.755582284 2 
266 269 289 291 1 0.0000000 0.54401924448 3 
266 269 289 295 1 0.0000000 0.470140055718 3 
265 266 269 271 1 0.0000000 0.470140055718 3 
265 266 269 289 1 190.9766118 3.56042464427 1 
265 266 269 289 1 295.6329165 0.278362581199 2 
265 266 269 289 1 348.0954991 2.90998914757 3 
264 262 265 266 1 0.0000000 0.755582284 3 
263 262 265 266 1 0.0000000 0.755582284 3 
262 265 266 269 1 0.0000000 1.15855952621 3 
325 326 329 330 1 31.7950936 0.559677928844 1 
325 326 329 330 1 351.9597510 3.7976502487 2 
325 326 329 330 1 357.2476330 1.07249769277 3 
323 321 319 325 1 0.0000000 3.5512367348 2 
323 321 319 325 1 0.0000000 0.435215395584 3 
321 319 325 326 1 0.0000000 1.15855952621 3 
319 325 326 327 1 0.0000000 0.755582284 3 
319 325 326 328 1 0.0000000 0.755582284 3 
319 325 326 329 1 0.0000000 3.6267949632 2 
319 325 326 329 1 0.0000000 0.755582284 3 
317 308 306 321 1 0.0000000 0 2 
314 313 315 317 1 180.0000771 4.0801443336 2 
313 315 317 318 1 180.0000771 4.0801443336 2 
311 309 308 317 1 180.0000771 5.5913089016 2 
311 313 315 317 1 180.0000771 4.0801443336 2 
309 308 306 321 1 0.0000000 0 2 
309 308 317 315 1 180.0000771 4.3823772472 2 
309 308 317 318 1 180.0000771 4.3823772472 2 
309 311 313 314 1 180.0000771 6.5735658708 2 
309 311 313 314 1 0.0000000 0.9066987408 3 
309 311 313 315 1 180.0000771 6.5735658708 2 
308 306 321 319 1 0.0000000 0.470140055718 3 
308 306 321 323 1 0.0000000 0.470140055718 3 
308 309 311 313 1 180.0000771 20.0984887544 2 
308 317 315 313 1 180.0000771 4.0801443336 2 
306 305 303 319 1 180.0000771 0.3022329136 2 
306 305 303 319 1 0.0000000 1.15755205909 3 
306 308 309 311 1 180.0000771 5.5913089016 2 
306 308 317 315 1 180.0000771 4.3823772472 2 
306 308 317 318 1 180.0000771 4.3823772472 2 
306 321 319 325 1 0.0000000 0.470140055718 3 
305 303 319 321 1 0.0000000 0.470140055718 3 
305 303 319 325 1 0.0000000 3.5512367348 2 
305 303 319 325 1 0.0000000 0.435215395584 3 
305 306 308 309 1 149.8583644 3.09831051937 1 
305 306 308 309 1 16.7648072 5.28532827098 2 
305 306 308 309 1 179.3474771 1.75748439258 3 
305 306 308 309 1 16.0016068 1.06228823027 4 
305 306 308 317 1 0.0000000 0 2 
305 306 321 319 1 0.0000000 0.470140055718 3 
305 306 321 323 1 0.0000000 3.5512367348 2 
305 306 321 323 1 0.0000000 0.435215395584 3 
303 305 306 308 1 0.0000000 1.9645139384 2 
303 305 306 308 1 0.0000000 1.15755205909 3 
303 305 306 321 1 180.0000771 0.3022329136 2 
303 305 306 321 1 0.0000000 1.15755205909 3 
303 319 321 306 1 180.0000771 0.6044658272 1 
303 319 321 306 1 180.0000771 0.755582284 2 
303 319 321 306 1 0.0000000 0.54401924448 3 
303 319 321 323 1 0.0000000 0.470140055718 3 
303 319 325 326 1 0.0000000 1.15855952621 3 
300 303 305 306 1 180.0000771 0.3022329136 2 
300 303 305 306 1 0.0000000 1.15755205909 3 
300 303 319 321 1 180.0000771 0.6044658272 1 
300 303 319 321 1 180.0000771 0.755582284 2 
300 303 319 321 1 0.0000000 0.54401924448 3 
300 303 319 325 1 0.0000000 0.470140055718 3 
299 300 303 305 1 0.0000000 0.470140055718 3 
299 300 303 319 1 190.9766118 3.56042464427 1 
299 300 303 319 1 295.6329165 0.278362581199 2 
299 300 303 319 1 348.0954991 2.90998914757 3 
298 296 299 300 1 0.0000000 0.755582284 3 
297 296 299 300 1 0.0000000 0.755582284 3 
296 299 300 303 1 0.0000000 1.15855952621 3 
355 356 359 360 1 31.7950936 0.559677928844 1 
355 356 359 360 1 351.9597510 3.7976502487 2 
355 356 359 360 1 357.2476330 1.07249769277 3 
353 351 349 355 1 0.0000000 3.5512367348 2 
353 351 349 355 1 0.0000000 0.435215395584 3 
351 349 355 356 1 0.0000000 1.15855952621 3 
349 355 356 357 1 0.0000000 0.755582284 3 
349 355 356 358 1 0.0000000 0.755582284 3 
349 355 356 359 1 0.0000000 3.6267949632 2 
349 355 356 359 1 0.0000000 0.755582284 3 
347 338 336 351 1 0.0000000 0 2 
344 343 345 347 1 180.0000771 4.0801443336 2 
343 345 347 348 1 180.0000771 4.0801443336 2 
341 339 338 347 1 180.0000771 5.5913089016 2 
341 343 345 347 1 180.0000771 4.0801443336 2 
339 338 336 351 1 0.0000000 0 2 
339 338 347 345 1 180.0000771 4.3823772472 2 
339 338 347 348 1 180.0000771 4.3823772472 2 
339 341 343 344 1 180.0000771 6.5735658708 2 
339 341 343 344 1 0.0000000 0.9066987408 3 
339 341 343 345 1 180.0000771 6.5735658708 2 
338 336 351 349 1 0.0000000 0.470140055718 3 
338 336 351 353 1 0.0000000 0.470140055718 3 
338 339 341 343 1 180.0000771 20.0984887544 2 
338 347 345 343 1 180.0000771 4.0801443336 2 
336 335 333 349 1 180.0000771 0.3022329136 2 
336 335 333 349 1 0.0000000 1.15755205909 3 
336 338 339 341 1 180.0000771 5.5913089016 2 
336 338 347 345 1 180.0000771 4.3823772472 2 
336 338 347 348 1 180.0000771 4.3823772472 2 
336 351 349 355 1 0.0000000 0.470140055718 3 
335 333 349 351 1 0.0000000 0.470140055718 3 
335 333 349 355 1 0.0000000 3.5512367348 2 
335 333 349 355 1 0.0000000 0.435215395584 3 
335 336 338 339 1 149.8583644 3.09831051937 1 
335 336 338 339 1 16.7648072 5.28532827098 2 
335 336 338 339 1 179.3474771 1.75748439258 3 
335 336 338 339 1 16.0016068 1.06228823027 4 
335 336 338 347 1 0.0000000 0 2 
335 336 351 349 1 0.0000000 0.470140055718 3 
335 336 351 353 1 0.0000000 3.5512367348 2 
335 336 351 353 1 0.0000000 0.435215395584 3 
333 335 336 338 1 0.0000000 1.9645139384 2 
333 335 336 338 1 0.0000000 1.15755205909 3 
333 335 336 351 1 180.0000771 0.3022329136 2 
333 335 336 351 1 0.0000000 1.15755205909 3 
333 349 351 336 1 180.0000771 0.6044658272 1 
333 349 351 336 1 180.0000771 0.755582284 2 
333 349 351 336 1 0.0000000 0.54401924448 3 
333 349 351 353 1 0.0000000 0.470140055718 3 
333 349 355 356 1 0.0000000 1.15855952621 3 
330 333 335 336 1 180.0000771 0.3022329136 2 
330 333 335 336 1 0.0000000 1.15755205909 3 
330 333 349 351 1 180.0000771 0.6044658272 1 
330 333 349 351 1 180.0000771 0.755582284 2 
330 333 349 351 1 0.0000000 0.54401924448 3 
330 333 349 355 1 0.0000000 0.470140055718 3 
329 330 333 335 1 0.0000000 0.470140055718 3 
329 330 333 349 1 190.9766118 3.56042464427 1 
329 330 333 349 1 295.6329165 0.278362581199 2 
329 330 333 349 1 348.0954991 2.90998914757 3 
328 326 329 330 1 0.0000000 0.755582284 3 
327 326 329 330 1 0.0000000 0.755582284 3 
326 329 330 333 1 0.0000000 1.15855952621 3 
388 389 392 393 1 31.7950936 0.559677928844 1 
388 389 392 393 1 351.9597510 3.7976502487 2 
388 389 392 393 1 357.2476330 1.07249769277 3 
386 384 382 388 1 0.0000000 3.5512367348 2 
386 384 382 388 1 0.0000000 0.435215395584 3 
384 382 388 389 1 0.0000000 1.15855952621 3 
382 388 389 390 1 0.0000000 0.755582284 3 
382 388 389 391 1 0.0000000 0.755582284 3 
382 388 389 392 1 0.0000000 3.6267949632 2 
382 388 389 392 1 0.0000000 0.755582284 3 
381 368 366 384 1 0.0000000 0 2 
377 373 372 381 1 180.0000771 10.578151976 2 
377 378 380 381 1 180.0000771 20.5518381248 2 
374 373 372 381 1 180.0000771 10.578151976 2 
374 373 377 378 1 180.0000771 14.5071798528 2 
373 372 381 380 1 180.0000771 16.4716937912 2 
373 377 378 380 1 180.0000771 20.5518381248 2 
372 373 377 378 1 180.0000771 14.5071798528 2 
372 381 380 378 1 180.0000771 12.5426659144 2 
371 369 368 381 1 180.0000771 5.1379595312 2 
371 372 373 374 1 180.0000771 10.578151976 2 
371 372 373 377 1 180.0000771 10.578151976 2 
371 372 381 380 1 180.0000771 16.4716937912 2 
369 368 366 384 1 0.0000000 0 2 
369 368 381 372 1 180.0000771 4.9868430744 2 
369 368 381 380 1 180.0000771 4.9868430744 2 
369 371 372 373 1 180.0000771 7.7069392968 2 
369 371 372 381 1 180.0000771 7.7069392968 2 
368 366 384 382 1 0.0000000 0.470140055718 3 
368 366 384 386 1 0.0000000 0.470140055718 3 
368 369 371 372 1 180.0000771 30.22329136 2 
368 381 372 371 1 180.0000771 16.4716937912 2 
368 381 372 373 1 180.0000771 16.4716937912 2 
368 381 380 378 1 180.0000771 12.5426659144 2 
366 365 363 382 1 180.0000771 0.3022329136 2 
366 365 363 382 1 0.0000000 1.15755205909 3 
366 368 369 371 1 180.0000771 5.1379595312 2 
366 368 381 372 1 180.0000771 4.9868430744 2 
366 368 381 380 1 180.0000771 4.9868430744 2 
366 384 382 388 1 0.0000000 0.470140055718 3 
365 363 382 384 1 0.0000000 0.470140055718 3 
365 363 382 388 1 0.0000000 3.5512367348 2 
365 363 382 388 1 0.0000000 0.435215395584 3 
365 366 368 369 1 68.7902296 2.91839120812 1 
365 366 368 369 1 15.6360067 3.24607214749 2 
365 366 368 369 1 171.5787733 1.38283650178 3 
365 366 368 369 1 19.0921082 0.934413513424 4 
365 366 368 381 1 0.0000000 0 2 
365 366 384 382 1 0.0000000 0.470140055718 3 
365 366 384 386 1 0.0000000 3.5512367348 2 
365 366 384 386 1 0.0000000 0.435215395584 3 
363 365 366 368 1 0.0000000 1.9645139384 2 
363 365 366 368 1 0.0000000 1.15755205909 3 
363 365 366 384 1 180.0000771 0.3022329136 2 
363 365 366 384 1 0.0000000 1.15755205909 3 
363 382 384 366 1 180.0000771 0.6044658272 1 
363 382 384 366 1 180.0000771 0.755582284 2 
363 382 384 366 1 0.0000000 0.54401924448 3 
363 382 384 386 1 0.0000000 0.470140055718 3 
363 382 388 389 1 0.0000000 1.15855952621 3 
360 363 365 366 1 180.0000771 0.3022329136 2 
360 363 365 366 1 0.0000000 1.15755205909 3 
360 363 382 384 1 180.0000771 0.6044658272 1 
360 363 382 384 1 180.0000771 0.755582284 2 
360 363 382 384 1 0.0000000 0.54401924448 3 
360 363 382 388 1 0.0000000 0.470140055718 3 
359 360 363 365 1 0.0000000 0.470140055718 3 
359 360 363 382 1 190.9766118 3.56042464427 1 
359 360 363 382 1 295.6329165 0.278362581199 2 
359 360 363 382 1 348.0954991 2.90998914757 3 
358 356 359 360 1 0.0000000 0.755582284 3 
357 356 359 360 1 0.0000000 0.755582284 3 
356 359 360 363 1 0.0000000 1.15855952621 3 
422 423 426 427 1 31.7950936 0.559677928844 1 
422 423 426 427 1 351.9597510 3.7976502487 2 
422 423 426 427 1 357.2476330 1.07249769277 3 
420 418 416 422 1 0.0000000 3.5512367348 2 
420 418 416 422 1 0.0000000 0.435215395584 3 
418 416 422 423 1 0.0000000 1.15855952621 3 
416 422 423 424 1 0.0000000 0.755582284 3 
416 422 423 425 1 0.0000000 0.755582284 3 
416 422 423 426 1 0.0000000 3.6267949632 2 
416 422 423 426 1 0.0000000 0.755582284 3 
415 401 399 418 1 0.0000000 0 2 
411 410 414 415 1 180.0000771 14.5071798528 2 
408 406 405 415 1 180.0000771 9.066987408 2 
408 410 414 415 1 180.0000771 14.5071798528 2 
407 406 405 415 1 180.0000771 9.066987408 2 
407 406 408 410 1 180.0000771 4.0801443336 2 
406 405 415 414 1 180.0000771 16.4716937912 2 
406 408 410 411 1 180.0000771 4.533493704 2 
406 408 410 414 1 180.0000771 4.533493704 2 
405 406 408 410 1 180.0000771 4.0801443336 2 
405 415 414 410 1 180.0000771 12.5426659144 2 
404 402 401 415 1 180.0000771 5.1379595312 2 
404 405 406 407 1 180.0000771 9.066987408 2 
404 405 406 408 1 180.0000771 9.066987408 2 
404 405 415 414 1 180.0000771 16.4716937912 2 
402 401 399 418 1 0.0000000 0 2 
402 401 415 405 1 180.0000771 4.9868430744 2 
402 401 415 414 1 180.0000771 4.9868430744 2 
402 404 405 406 1 180.0000771 7.7069392968 2 
402 404 405 415 1 180.0000771 7.7069392968 2 
401 399 418 416 1 0.0000000 0.470140055718 3 
401 399 418 420 1 0.0000000 0.470140055718 3 
401 402 404 405 1 180.0000771 30.22329136 2 
401 415 405 404 1 180.0000771 16.4716937912 2 
401 415 405 406 1 180.0000771 16.4716937912 2 
401 415 414 410 1 180.0000771 12.5426659144 2 
399 398 396 416 1 180.0000771 0.3022329136 2 
399 398 396 416 1 0.0000000 1.15755205909 3 
399 401 402 404 1 180.0000771 5.1379595312 2 
399 401 415 405 1 180.0000771 4.9868430744 2 
399 401 415 414 1 180.0000771 4.9868430744 2 
399 418 416 422 1 0.0000000 0.470140055718 3 
398 396 416 418 1 0.0000000 0.470140055718 3 
398 396 416 422 1 0.0000000 3.5512367348 2 
398 396 416 422 1 0.0000000 0.435215395584 3 
398 399 401 402 1 74.7558318 2.13104427379 1 
398 399 401 402 1 6.2286026 3.22017077235 2 
398 399 401 402 1 168.6503722 1.33807576393 3 
398 399 401 402 1 3.9746017 0.773776719846 4 
398 399 401 415 1 0.0000000 0 2 
398 399 418 416 1 0.0000000 0.470140055718 3 
398 399 418 420 1 0.0000000 3.5512367348 2 
398 399 418 420 1 0.0000000 0.435215395584 3 
396 398 399 401 1 0.0000000 1.9645139384 2 
396 398 399 401 1 0.0000000 1.15755205909 3 
396 398 399 418 1 180.0000771 0.3022329136 2 
396 398 399 418 1 0.0000000 1.15755205909 3 
396 416 418 399 1 180.0000771 0.6044658272 1 
396 416 418 399 1 180.0000771 0.755582284 2 
396 416 418 399 1 0.0000000 0.54401924448 3 
396 416 418 420 1 0.0000000 0.470140055718 3 
396 416 422 423 1 0.0000000 1.15855952621 3 
393 396 398 399 1 180.0000771 0.3022329136 2 
393 396 398 399 1 0.0000000 1.15755205909 3 
393 396 416 418 1 180.0000771 0.6044658272 1 
393 396 416 418 1 180.0000771 0.755582284 2 
393 396 416 418 1 0.0000000 0.54401924448 3 
393 396 416 422 1 0.0000000 0.470140055718 3 
392 393 396 398 1 0.0000000 0.470140055718 3 
392 393 396 416 1 190.9766118 3.56042464427 1 
392 393 396 416 1 295.6329165 0.278362581199 2 
392 393 396 416 1 348.0954991 2.90998914757 3 
391 389 392 393 1 0.0000000 0.755582284 3 
390 389 392 393 1 0.0000000 0.755582284 3 
389 392 393 396 1 0.0000000 1.15855952621 3 
456 457 460 461 1 31.7950936 0.559677928844 1 
456 457 460 461 1 351.9597510 3.7976502487 2 
456 457 460 461 1 357.2476330 1.07249769277 3 
454 452 450 456 1 0.0000000 3.5512367348 2 
454 452 450 456 1 0.0000000 0.435215395584 3 
452 450 456 457 1 0.0000000 1.15855952621 3 
450 456 457 458 1 0.0000000 0.755582284 3 
450 456 457 459 1 0.0000000 0.755582284 3 
450 456 457 460 1 0.0000000 3.6267949632 2 
450 456 457 460 1 0.0000000 0.755582284 3 
449 435 433 452 1 0.0000000 0 2 
445 444 448 449 1 180.0000771 14.5071798528 2 
442 440 439 449 1 180.0000771 9.066987408 2 
442 444 448 449 1 180.0000771 14.5071798528 2 
441 440 439 449 1 180.0000771 9.066987408 2 
441 440 442 444 1 180.0000771 4.0801443336 2 
440 439 449 448 1 180.0000771 16.4716937912 2 
440 442 444 445 1 180.0000771 4.533493704 2 
440 442 444 448 1 180.0000771 4.533493704 2 
439 440 442 444 1 180.0000771 4.0801443336 2 
439 449 448 444 1 180.0000771 12.5426659144 2 
438 436 435 449 1 180.0000771 5.1379595312 2 
438 439 440 441 1 180.0000771 9.066987408 2 
438 439 440 442 1 180.0000771 9.066987408 2 
438 439 449 448 1 180.0000771 16.4716937912 2 
436 435 433 452 1 0.0000000 0 2 
436 435 449 439 1 180.0000771 4.9868430744 2 
436 435 449 448 1 180.0000771 4.9868430744 2 
436 438 439 440 1 180.0000771 7.7069392968 2 
436 438 439 449 1 180.0000771 7.7069392968 2 
435 433 452 450 1 0.0000000 0.470140055718 3 
435 433 452 454 1 0.0000000 0.470140055718 3 
435 436 438 439 1 180.0000771 30.22329136 2 
435 449 439 438 1 180.0000771 16.4716937912 2 
435 449 439 440 1 180.0000771 16.4716937912 2 
435 449 448 444 1 180.0000771 12.5426659144 2 
433 432 430 450 1 180.0000771 0.3022329136 2 
433 432 430 450 1 0.0000000 1.15755205909 3 
433 435 436 438 1 180.0000771 5.1379595312 2 
433 435 449 439 1 180.0000771 4.9868430744 2 
433 435 449 448 1 180.0000771 4.9868430744 2 
433 452 450 456 1 0.0000000 0.470140055718 3 
432 430 450 452 1 0.0000000 0.470140055718 3 
432 430 450 456 1 0.0000000 3.5512367348 2 
432 430 450 456 1 0.0000000 0.435215395584 3 
432 433 435 436 1 74.7558318 2.13104427379 1 
432 433 435 436 1 6.2286026 3.22017077235 2 
432 433 435 436 1 168.6503722 1.33807576393 3 
432 433 435 436 1 3.9746017 0.773776719846 4 
432 433 435 449 1 0.0000000 0 2 
432 433 452 450 1 0.0000000 0.470140055718 3 
432 433 452 454 1 0.0000000 3.5512367348 2 
432 433 452 454 1 0.0000000 0.435215395584 3 
430 432 433 435 1 0.0000000 1.9645139384 2 
430 432 433 435 1 0.0000000 1.15755205909 3 
430 432 433 452 1 180.0000771 0.3022329136 2 
430 432 433 452 1 0.0000000 1.15755205909 3 
430 450 452 433 1 180.0000771 0.6044658272 1 
430 450 452 433 1 180.0000771 0.755582284 2 
430 450 452 433 1 0.0000000 0.54401924448 3 
430 450 452 454 1 0.0000000 0.470140055718 3 
430 450 456 457 1 0.0000000 1.15855952621 3 
427 430 432 433 1 180.0000771 0.3022329136 2 
427 430 432 433 1 0.0000000 1.15755205909 3 
427 430 450 452 1 180.0000771 0.6044658272 1 
427 430 450 452 1 180.0000771 0.755582284 2 
427 430 450 452 1 0.0000000 0.54401924448 3 
427 430 450 456 1 0.0000000 0.470140055718 3 
426 427 430 432 1 0.0000000 0.470140055718 3 
426 427 430 450 1 190.9766118 3.56042464427 1 
426 427 430 450 1 295.6329165 0.278362581199 2 
426 427 430 450 1 348.0954991 2.90998914757 3 
425 423 426 427 1 0.0000000 0.755582284 3 
424 423 426 427 1 0.0000000 0.755582284 3 
423 426 427 430 1 0.0000000 1.15855952621 3 
490 491 494 495 1 31.7950936 0.559677928844 1 
490 491 494 495 1 351.9597510 3.7976502487 2 
490 491 494 495 1 357.2476330 1.07249769277 3 
488 486 484 490 1 0.0000000 3.5512367348 2 
488 486 484 490 1 0.0000000 0.435215395584 3 
486 484 490 491 1 0.0000000 1.15855952621 3 
484 490 491 492 1 0.0000000 0.755582284 3 
484 490 491 493 1 0.0000000 0.755582284 3 
484 490 491 494 1 0.0000000 3.6267949632 2 
484 490 491 494 1 0.0000000 0.755582284 3 
483 469 467 486 1 0.0000000 0 2 
479 478 482 483 1 180.0000771 14.5071798528 2 
476 474 473 483 1 180.0000771 9.066987408 2 
476 478 482 483 1 180.0000771 14.5071798528 2 
475 474 473 483 1 180.0000771 9.066987408 2 
475 474 476 478 1 180.0000771 4.0801443336 2 
474 473 483 482 1 180.0000771 16.4716937912 2 
474 476 478 479 1 180.0000771 4.533493704 2 
474 476 478 482 1 180.0000771 4.533493704 2 
473 474 476 478 1 180.0000771 4.0801443336 2 
473 483 482 478 1 180.0000771 12.5426659144 2 
472 470 469 483 1 180.0000771 5.1379595312 2 
472 473 474 475 1 180.0000771 9.066987408 2 
472 473 474 476 1 180.0000771 9.066987408 2 
472 473 483 482 1 180.0000771 16.4716937912 2 
470 469 467 486 1 0.0000000 0 2 
470 469 483 473 1 180.0000771 4.9868430744 2 
470 469 483 482 1 180.0000771 4.9868430744 2 
470 472 473 474 1 180.0000771 7.7069392968 2 
470 472 473 483 1 180.0000771 7.7069392968 2 
469 467 486 484 1 0.0000000 0.470140055718 3 
469 467 486 488 1 0.0000000 0.470140055718 3 
469 470 472 473 1 180.0000771 30.22329136 2 
469 483 473 472 1 180.0000771 16.4716937912 2 
469 483 473 474 1 180.0000771 16.4716937912 2 
469 483 482 478 1 180.0000771 12.5426659144 2 
467 466 464 484 1 180.0000771 0.3022329136 2 
467 466 464 484 1 0.0000000 1.15755205909 3 
467 469 470 472 1 180.0000771 5.1379595312 2 
467 469 483 473 1 180.0000771 4.9868430744 2 
467 469 483 482 1 180.0000771 4.9868430744 2 
467 486 484 490 1 0.0000000 0.470140055718 3 
466 464 484 486 1 0.0000000 0.470140055718 3 
466 464 484 490 1 0.0000000 3.5512367348 2 
466 464 484 490 1 0.0000000 0.435215395584 3 
466 467 469 470 1 74.7558318 2.13104427379 1 
466 467 469 470 1 6.2286026 3.22017077235 2 
466 467 469 470 1 168.6503722 1.33807576393 3 
466 467 469 470 1 3.9746017 0.773776719846 4 
466 467 469 483 1 0.0000000 0 2 
466 467 486 484 1 0.0000000 0.470140055718 3 
466 467 486 488 1 0.0000000 3.5512367348 2 
466 467 486 488 1 0.0000000 0.435215395584 3 
464 466 467 469 1 0.0000000 1.9645139384 2 
464 466 467 469 1 0.0000000 1.15755205909 3 
464 466 467 486 1 180.0000771 0.3022329136 2 
464 466 467 486 1 0.0000000 1.15755205909 3 
464 484 486 467 1 180.0000771 0.6044658272 1 
464 484 486 467 1 180.0000771 0.755582284 2 
464 484 486 467 1 0.0000000 0.54401924448 3 
464 484 486 488 1 0.0000000 0.470140055718 3 
464 484 490 491 1 0.0000000 1.15855952621 3 
461 464 466 467 1 180.0000771 0.3022329136 2 
461 464 466 467 1 0.0000000 1.15755205909 3 
461 464 484 486 1 180.0000771 0.6044658272 1 
461 464 484 486 1 180.0000771 0.755582284 2 
461 464 484 486 1 0.0000000 0.54401924448 3 
461 464 484 490 1 0.0000000 0.470140055718 3 
460 461 464 466 1 0.0000000 0.470140055718 3 
460 461 464 484 1 190.9766118 3.56042464427 1 
460 461 464 484 1 295.6329165 0.278362581199 2 
460 461 464 484 1 348.0954991 2.90998914757 3 
459 457 460 461 1 0.0000000 0.755582284 3 
458 457 460 461 1 0.0000000 0.755582284 3 
457 460 461 464 1 0.0000000 1.15855952621 3 
520 521 524 525 1 31.7950936 0.559677928844 1 
520 521 524 525 1 351.9597510 3.7976502487 2 
520 521 524 525 1 357.2476330 1.07249769277 3 
518 516 514 520 1 0.0000000 3.5512367348 2 
518 516 514 520 1 0.0000000 0.435215395584 3 
516 514 520 521 1 0.0000000 1.15855952621 3 
514 520 521 522 1 0.0000000 0.755582284 3 
514 520 521 523 1 0.0000000 0.755582284 3 
514 520 521 524 1 0.0000000 3.6267949632 2 
514 520 521 524 1 0.0000000 0.755582284 3 
512 503 501 516 1 0.0000000 0 2 
509 508 510 512 1 180.0000771 4.0801443336 2 
508 510 512 513 1 180.0000771 4.0801443336 2 
506 504 503 512 1 180.0000771 5.5913089016 2 
506 508 510 512 1 180.0000771 4.0801443336 2 
504 503 501 516 1 0.0000000 0 2 
504 503 512 510 1 180.0000771 4.3823772472 2 
504 503 512 513 1 180.0000771 4.3823772472 2 
504 506 508 509 1 180.0000771 6.5735658708 2 
504 506 508 509 1 0.0000000 0.9066987408 3 
504 506 508 510 1 180.0000771 6.5735658708 2 
503 501 516 514 1 0.0000000 0.470140055718 3 
503 501 516 518 1 0.0000000 0.470140055718 3 
503 504 506 508 1 180.0000771 20.0984887544 2 
503 512 510 508 1 180.0000771 4.0801443336 2 
501 500 498 514 1 180.0000771 0.3022329136 2 
501 500 498 514 1 0.0000000 1.15755205909 3 
501 503 504 506 1 180.0000771 5.5913089016 2 
501 503 512 510 1 180.0000771 4.3823772472 2 
501 503 512 513 1 180.0000771 4.3823772472 2 
501 516 514 520 1 0.0000000 0.470140055718 3 
500 498 514 516 1 0.0000000 0.470140055718 3 
500 498 514 520 1 0.0000000 3.5512367348 2 
500 498 514 520 1 0.0000000 0.435215395584 3 
500 501 503 504 1 149.8583644 3.09831051937 1 
500 501 503 504 1 16.7648072 5.28532827098 2 
500 501 503 504 1 179.3474771 1.75748439258 3 
500 501 503 504 1 16.0016068 1.06228823027 4 
500 501 503 512 1 0.0000000 0 2 
500 501 516 514 1 0.0000000 0.470140055718 3 
500 501 516 518 1 0.0000000 3.5512367348 2 
500 501 516 518 1 0.0000000 0.435215395584 3 
498 500 501 503 1 0.0000000 1.9645139384 2 
498 500 501 503 1 0.0000000 1.15755205909 3 
498 500 501 516 1 180.0000771 0.3022329136 2 
498 500 501 516 1 0.0000000 1.15755205909 3 
498 514 516 501 1 180.0000771 0.6044658272 1 
498 514 516 501 1 180.0000771 0.755582284 2 
498 514 516 501 1 0.0000000 0.54401924448 3 
498 514 516 518 1 0.0000000 0.470140055718 3 
498 514 520 521 1 0.0000000 1.15855952621 3 
495 498 500 501 1 180.0000771 0.3022329136 2 
495 498 500 501 1 0.0000000 1.15755205909 3 
495 498 514 516 1 180.0000771 0.6044658272 1 
495 498 514 516 1 180.0000771 0.755582284 2 
495 498 514 516 1 0.0000000 0.54401924448 3 
495 498 514 520 1 0.0000000 0.470140055718 3 
494 495 498 500 1 0.0000000 0.470140055718 3 
494 495 498 514 1 190.9766118 3.56042464427 1 
494 495 498 514 1 295.6329165 0.278362581199 2 
494 495 498 514 1 348.0954991 2.90998914757 3 
493 491 494 495 1 0.0000000 0.755582284 3 
492 491 494 495 1 0.0000000 0.755582284 3 
491 494 495 498 1 0.0000000 1.15855952621 3 
550 551 554 555 1 31.7950936 0.559677928844 1 
550 551 554 555 1 351.9597510 3.7976502487 2 
550 551 554 555 1 357.2476330 1.07249769277 3 
548 546 544 550 1 0.0000000 3.5512367348 2 
548 546 544 550 1 0.0000000 0.435215395584 3 
546 544 550 551 1 0.0000000 1.15855952621 3 
544 550 551 552 1 0.0000000 0.755582284 3 
544 550 551 553 1 0.0000000 0.755582284 3 
544 550 551 554 1 0.0000000 3.6267949632 2 
544 550 551 554 1 0.0000000 0.755582284 3 
542 533 531 546 1 0.0000000 0 2 
539 538 540 542 1 180.0000771 4.0801443336 2 
538 540 542 543 1 180.0000771 4.0801443336 2 
536 534 533 542 1 180.0000771 5.5913089016 2 
536 538 540 542 1 180.0000771 4.0801443336 2 
534 533 531 546 1 0.0000000 0 2 
534 533 542 540 1 180.0000771 4.3823772472 2 
534 533 542 543 1 180.0000771 4.3823772472 2 
534 536 538 539 1 180.0000771 6.5735658708 2 
534 536 538 539 1 0.0000000 0.9066987408 3 
534 536 538 540 1 180.0000771 6.5735658708 2 
533 531 546 544 1 0.0000000 0.470140055718 3 
533 531 546 548 1 0.0000000 0.470140055718 3 
533 534 536 538 1 180.0000771 20.0984887544 2 
533 542 540 538 1 180.0000771 4.0801443336 2 
531 530 528 544 1 180.0000771 0.3022329136 2 
531 530 528 544 1 0.0000000 1.15755205909 3 
531 533 534 536 1 180.0000771 5.5913089016 2 
531 533 542 540 1 180.0000771 4.3823772472 2 
531 533 542 543 1 180.0000771 4.3823772472 2 
531 546 544 550 1 0.0000000 0.470140055718 3 
530 528 544 546 1 0.0000000 0.470140055718 3 
530 528 544 550 1 0.0000000 3.5512367348 2 
530 528 544 550 1 0.0000000 0.435215395584 3 
530 531 533 534 1 149.8583644 3.09831051937 1 
530 531 533 534 1 16.7648072 5.28532827098 2 
530 531 533 534 1 179.3474771 1.75748439258 3 
530 531 533 534 1 16.0016068 1.06228823027 4 
530 531 533 542 1 0.0000000 0 2 
530 531 546 544 1 0.0000000 0.470140055718 3 
530 531 546 548 1 0.0000000 3.5512367348 2 
530 531 546 548 1 0.0000000 0.435215395584 3 
528 530 531 533 1 0.0000000 1.9645139384 2 
528 530 531 533 1 0.0000000 1.15755205909 3 
528 530 531 546 1 180.0000771 0.3022329136 2 
528 530 531 546 1 0.0000000 1.15755205909 3 
528 544 546 531 1 180.0000771 0.6044658272 1 
528 544 546 531 1 180.0000771 0.755582284 2 
528 544 546 531 1 0.0000000 0.54401924448 3 
528 544 546 548 1 0.0000000 0.470140055718 3 
528 544 550 551 1 0.0000000 1.15855952621 3 
525 528 530 531 1 180.0000771 0.3022329136 2 
525 528 530 531 1 0.0000000 1.15755205909 3 
525 528 544 546 1 180.0000771 0.6044658272 1 
525 528 544 546 1 180.0000771 0.755582284 2 
525 528 544 546 1 0.0000000 0.54401924448 3 
525 528 544 550 1 0.0000000 0.470140055718 3 
524 525 528 530 1 0.0000000 0.470140055718 3 
524 525 528 544 1 190.9766118 3.56042464427 1 
524 525 528 544 1 295.6329165 0.278362581199 2 
524 525 528 544 1 348.0954991 2.90998914757 3 
523 521 524 525 1 0.0000000 0.755582284 3 
522 521 524 525 1 0.0000000 0.755582284 3 
521 524 525 528 1 0.0000000 1.15855952621 3 
583 584 587 588 1 31.7950936 0.559677928844 1 
583 584 587 588 1 351.9597510 3.7976502487 2 
583 584 587 588 1 357.2476330 1.07249769277 3 
581 579 577 583 1 0.0000000 3.5512367348 2 
581 579 577 583 1 0.0000000 0.435215395584 3 
579 577 583 584 1 0.0000000 1.15855952621 3 
577 583 584 585 1 0.0000000 0.755582284 3 
577 583 584 586 1 0.0000000 0.755582284 3 
577 583 584 587 1 0.0000000 3.6267949632 2 
577 583 584 587 1 0.0000000 0.755582284 3 
576 563 561 579 1 0.0000000 0 2 
572 568 567 576 1 180.0000771 10.578151976 2 
572 573 575 576 1 180.0000771 20.5518381248 2 
569 568 567 576 1 180.0000771 10.578151976 2 
569 568 572 573 1 180.0000771 14.5071798528 2 
568 567 576 575 1 180.0000771 16.4716937912 2 
568 572 573 575 1 180.0000771 20.5518381248 2 
567 568 572 573 1 180.0000771 14.5071798528 2 
567 576 575 573 1 180.0000771 12.5426659144 2 
566 564 563 576 1 180.0000771 5.1379595312 2 
566 567 568 569 1 180.0000771 10.578151976 2 
566 567 568 572 1 180.0000771 10.578151976 2 
566 567 576 575 1 180.0000771 16.4716937912 2 
564 563 561 579 1 0.0000000 0 2 
564 563 576 567 1 180.0000771 4.9868430744 2 
564 563 576 575 1 180.0000771 4.9868430744 2 
564 566 567 568 1 180.0000771 7.7069392968 2 
564 566 567 576 1 180.0000771 7.7069392968 2 
563 561 579 577 1 0.0000000 0.470140055718 3 
563 561 579 581 1 0.0000000 0.470140055718 3 
563 564 566 567 1 180.0000771 30.22329136 2 
563 576 567 566 1 180.0000771 16.4716937912 2 
563 576 567 568 1 180.0000771 16.4716937912 2 
563 576 575 573 1 180.0000771 12.5426659144 2 
561 560 558 577 1 180.0000771 0.3022329136 2 
561 560 558 577 1 0.0000000 1.15755205909 3 
561 563 564 566 1 180.0000771 5.1379595312 2 
561 563 576 567 1 180.0000771 4.9868430744 2 
561 563 576 575 1 180.0000771 4.9868430744 2 
561 579 577 583 1 0.0000000 0.470140055718 3 
560 558 577 579 1 0.0000000 0.470140055718 3 
560 558 577 583 1 0.0000000 3.5512367348 2 
560 558 577 583 1 0.0000000 0.435215395584 3 
560 561 563 564 1 68.7902296 2.91839120812 1 
560 561 563 564 1 15.6360067 3.24607214749 2 
560 561 563 564 1 171.5787733 1.38283650178 3 
560 561 563 564 1 19.0921082 0.934413513424 4 
560 561 563 576 1 0.0000000 0 2 
560 561 579 577 1 0.0000000 0.470140055718 3 
560 561 579 581 1 0.0000000 3.5512367348 2 
560 561 579 581 1 0.0000000 0.435215395584 3 
558 560 561 563 1 0.0000000 1.9645139384 2 
558 560 561 563 1 0.0000000 1.15755205909 3 
558 560 561 579 1 180.0000771 0.3022329136 2 
558 560 561 579 1 0.0000000 1.15755205909 3 
558 577 579 561 1 180.0000771 0.6044658272 1 
558 577 579 561 1 180.0000771 0.755582284 2 
558 577 579 561 1 0.0000000 0.54401924448 3 
558 577 579 581 1 0.0000000 0.470140055718 3 
558 577 583 584 1 0.0000000 1.15855952621 3 
555 558 560 561 1 180.0000771 0.3022329136 2 
555 558 560 561 1 0.0000000 1.15755205909 3 
555 558 577 579 1 180.0000771 0.6044658272 1 
555 558 577 579 1 180.0000771 0.755582284 2 
555 558 577 579 1 0.0000000 0.54401924448 3 
555 558 577 583 1 0.0000000 0.470140055718 3 
554 555 558 560 1 0.0000000 0.470140055718 3 
554 555 558 577 1 190.9766118 3.56042464427 1 
554 555 558 577 1 295.6329165 0.278362581199 2 
554 555 558 577 1 348.0954991 2.90998914757 3 
553 551 554 555 1 0.0000000 0.755582284 3 
552 551 554 555 1 0.0000000 0.755582284 3 
551 554 555 558 1 0.0000000 1.15855952621 3 
617 618 621 622 1 31.7950936 0.559677928844 1 
617 618 621 622 1 351.9597510 3.7976502487 2 
617 618 621 622 1 357.2476330 1.07249769277 3 
615 613 611 617 1 0.0000000 3.5512367348 2 
615 613 611 617 1 0.0000000 0.435215395584 3 
613 611 617 618 1 0.0000000 1.15855952621 3 
611 617 618 619 1 0.0000000 0.755582284 3 
611 617 618 620 1 0.0000000 0.755582284 3 
611 617 618 621 1 0.0000000 3.6267949632 2 
611 617 618 621 1 0.0000000 0.755582284 3 
610 596 594 613 1 0.0000000 0 2 
606 605 609 610 1 180.0000771 14.5071798528 2 
603 601 600 610 1 180.0000771 9.066987408 2 
603 605 609 610 1 180.0000771 14.5071798528 2 
602 601 600 610 1 180.0000771 9.066987408 2 
602 601 603 605 1 180.0000771 4.0801443336 2 
601 600 610 609 1 180.0000771 16.4716937912 2 
601 603 605 606 1 180.0000771 4.533493704 2 
601 603 605 609 1 180.0000771 4.533493704 2 
600 601 603 605 1 180.0000771 4.0801443336 2 
600 610 609 605 1 180.0000771 12.5426659144 2 
599 597 596 610 1 180.0000771 5.1379595312 2 
599 600 601 602 1 180.0000771 9.066987408 2 
599 600 601 603 1 180.0000771 9.066987408 2 
599 600 610 609 1 180.0000771 16.4716937912 2 
597 596 594 613 1 0.0000000 0 2 
597 596 610 600 1 180.0000771 4.9868430744 2 
597 596 610 609 1 180.0000771 4.9868430744 2 
597 599 600 601 1 180.0000771 7.7069392968 2 
597 599 600 610 1 180.0000771 7.7069392968 2 
596 594 613 611 1 0.0000000 0.470140055718 3 
596 594 613 615 1 0.0000000 0.470140055718 3 
596 597 599 600 1 180.0000771 30.22329136 2 
596 610 600 599 1 180.0000771 16.4716937912 2 
596 610 600 601 1 180.0000771 16.4716937912 2 
596 610 609 605 1 180.0000771 12.5426659144 2 
594 593 591 611 1 180.0000771 0.3022329136 2 
594 593 591 611 1 0.0000000 1.15755205909 3 
594 596 597 599 1 180.0000771 5.1379595312 2 
594 596 610 600 1 180.0000771 4.9868430744 2 
594 596 610 609 1 180.0000771 4.9868430744 2 
594 613 611 617 1 0.0000000 0.470140055718 3 
593 591 611 613 1 0.0000000 0.470140055718 3 
593 591 611 617 1 0.0000000 3.5512367348 2 
593 591 611 617 1 0.0000000 0.435215395584 3 
593 594 596 597 1 74.7558318 2.13104427379 1 
593 594 596 597 1 6.2286026 3.22017077235 2 
593 594 596 597 1 168.6503722 1.33807576393 3 
593 594 596 597 1 3.9746017 0.773776719846 4 
593 594 596 610 1 0.0000000 0 2 
593 594 613 611 1 0.0000000 0.470140055718 3 
593 594 613 615 1 0.0000000 3.5512367348 2 
593 594 613 615 1 0.0000000 0.435215395584 3 
591 593 594 596 1 0.0000000 1.9645139384 2 
591 593 594 596 1 0.0000000 1.15755205909 3 
591 593 594 613 1 180.0000771 0.3022329136 2 
591 593 594 613 1 0.0000000 1.15755205909 3 
591 611 613 594 1 180.0000771 0.6044658272 1 
591 611 613 594 1 180.0000771 0.755582284 2 
591 611 613 594 1 0.0000000 0.54401924448 3 
591 611 613 615 1 0.0000000 0.470140055718 3 
591 611 617 618 1 0.0000000 1.15855952621 3 
588 591 593 594 1 180.0000771 0.3022329136 2 
588 591 593 594 1 0.0000000 1.15755205909 3 
588 591 611 613 1 180.0000771 0.6044658272 1 
588 591 611 613 1 180.0000771 0.755582284 2 
588 591 611 613 1 0.0000000 0.54401924448 3 
588 591 611 617 1 0.0000000 0.470140055718 3 
587 588 591 593 1 0.0000000 0.470140055718 3 
587 588 591 611 1 190.9766118 3.56042464427 1 
587 588 591 611 1 295.6329165 0.278362581199 2 
587 588 591 611 1 348.0954991 2.90998914757 3 
586 584 587 588 1 0.0000000 0.755582284 3 
585 584 587 588 1 0.0000000 0.755582284 3 
584 587 588 591 1 0.0000000 1.15855952621 3 
651 652 655 656 1 31.7950936 0.559677928844 1 
651 652 655 656 1 351.9597510 3.7976502487 2 
651 652 655 656 1 357.2476330 1.07249769277 3 
649 647 645 651 1 0.0000000 3.5512367348 2 
649 647 645 651 1 0.0000000 0.435215395584 3 
647 645 651 652 1 0.0000000 1.15855952621 3 
645 651 652 653 1 0.0000000 0.755582284 3 
645 651 652 654 1 0.0000000 0.755582284 3 
645 651 652 655 1 0.0000000 3.6267949632 2 
645 651 652 655 1 0.0000000 0.755582284 3 
644 630 628 647 1 0.0000000 0 2 
640 639 643 644 1 180.0000771 14.5071798528 2 
637 635 634 644 1 180.0000771 9.066987408 2 
637 639 643 644 1 180.0000771 14.5071798528 2 
636 635 634 644 1 180.0000771 9.066987408 2 
636 635 637 639 1 180.0000771 4.0801443336 2 
635 634 644 643 1 180.0000771 16.4716937912 2 
635 637 639 640 1 180.0000771 4.533493704 2 
635 637 639 643 1 180.0000771 4.533493704 2 
634 635 637 639 1 180.0000771 4.0801443336 2 
634 644 643 639 1 180.0000771 12.5426659144 2 
633 631 630 644 1 180.0000771 5.1379595312 2 
633 634 635 636 1 180.0000771 9.066987408 2 
633 634 635 637 1 180.0000771 9.066987408 2 
633 634 644 643 1 180.0000771 16.4716937912 2 
631 630 628 647 1 0.0000000 0 2 
631 630 644 634 1 180.0000771 4.9868430744 2 
631 630 644 643 1 180.0000771 4.9868430744 2 
631 633 634 635 1 180.0000771 7.7069392968 2 
631 633 634 644 1 180.0000771 7.7069392968 2 
630 628 647 645 1 0.0000000 0.470140055718 3 
630 628 647 649 1 0.0000000 0.470140055718 3 
630 631 633 634 1 180.0000771 30.22329136 2 
630 644 634 633 1 180.0000771 16.4716937912 2 
630 644 634 635 1 180.0000771 16.4716937912 2 
630 644 643 639 1 180.0000771 12.5426659144 2 
628 627 625 645 1 180.0000771 0.3022329136 2 
628 627 625 645 1 0.0000000 1.15755205909 3 
628 630 631 633 1 180.0000771 5.1379595312 2 
628 630 644 634 1 180.0000771 4.9868430744 2 
628 630 644 643 1 180.0000771 4.9868430744 2 
628 647 645 651 1 0.0000000 0.470140055718 3 
627 625 645 647 1 0.0000000 0.470140055718 3 
627 625 645 651 1 0.0000000 3.5512367348 2 
627 625 645 651 1 0.0000000 0.435215395584 3 
627 628 630 631 1 74.7558318 2.13104427379 1 
627 628 630 631 1 6.2286026 3.22017077235 2 
627 628 630 631 1 168.6503722 1.33807576393 3 
627 628 630 631 1 3.9746017 0.773776719846 4 
627 628 630 644 1 0.0000000 0 2 
627 628 647 645 1 0.0000000 0.470140055718 3 
627 628 647 649 1 0.0000000 3.5512367348 2 
627 628 647 649 1 0.0000000 0.435215395584 3 
625 627 628 630 1 0.0000000 1.9645139384 2 
625 627 628 630 1 0.0000000 1.15755205909 3 
625 627 628 647 1 180.0000771 0.3022329136 2 
625 627 628 647 1 0.0000000 1.15755205909 3 
625 645 647 628 1 180.0000771 0.6044658272 1 
625 645 647 628 1 180.0000771 0.755582284 2 
625 645 647 628 1 0.0000000 0.54401924448 3 
625 645 647 649 1 0.0000000 0.470140055718 3 
625 645 651 652 1 0.0000000 1.15855952621 3 
622 625 627 628 1 180.0000771 0.3022329136 2 
622 625 627 628 1 0.0000000 1.15755205909 3 
622 625 645 647 1 180.0000771 0.6044658272 1 
622 625 645 647 1 180.0000771 0.755582284 2 
622 625 645 647 1 0.0000000 0.54401924448 3 
622 625 645 651 1 0.0000000 0.470140055718 3 
621 622 625 627 1 0.0000000 0.470140055718 3 
621 622 625 645 1 190.9766118 3.56042464427 1 
621 622 625 645 1 295.6329165 0.278362581199 2 
621 622 625 645 1 348.0954991 2.90998914757 3 
620 618 621 622 1 0.0000000 0.755582284 3 
619 618 621 622 1 0.0000000 0.755582284 3 
618 621 622 625 1 0.0000000 1.15855952621 3 
683 681 679 685 1 0.0000000 3.5512367348 2 
683 681 679 685 1 0.0000000 0.435215395584 3 
678 664 662 681 1 0.0000000 0 2 
674 673 677 678 1 180.0000771 14.5071798528 2 
671 669 668 678 1 180.0000771 9.066987408 2 
671 673 677 678 1 180.0000771 14.5071798528 2 
670 669 668 678 1 180.0000771 9.066987408 2 
670 669 671 673 1 180.0000771 4.0801443336 2 
669 668 678 677 1 180.0000771 16.4716937912 2 
669 671 673 674 1 180.0000771 4.533493704 2 
669 671 673 677 1 180.0000771 4.533493704 2 
668 669 671 673 1 180.0000771 4.0801443336 2 
668 678 677 673 1 180.0000771 12.5426659144 2 
667 665 664 678 1 180.0000771 5.1379595312 2 
667 668 669 670 1 180.0000771 9.066987408 2 
667 668 669 671 1 180.0000771 9.066987408 2 
667 668 678 677 1 180.0000771 16.4716937912 2 
665 664 662 681 1 0.0000000 0 2 
665 664 678 668 1 180.0000771 4.9868430744 2 
665 664 678 677 1 180.0000771 4.9868430744 2 
665 667 668 669 1 180.0000771 7.7069392968 2 
665 667 668 678 1 180.0000771 7.7069392968 2 
664 662 681 679 1 0.0000000 0.470140055718 3 
664 662 681 683 1 0.0000000 0.470140055718 3 
664 665 667 668 1 180.0000771 30.22329136 2 
664 678 668 667 1 180.0000771 16.4716937912 2 
664 678 668 669 1 180.0000771 16.4716937912 2 
664 678 677 673 1 180.0000771 12.5426659144 2 
662 661 659 679 1 180.0000771 0.3022329136 2 
662 661 659 679 1 0.0000000 1.15755205909 3 
662 664 665 667 1 180.0000771 5.1379595312 2 
662 664 678 668 1 180.0000771 4.9868430744 2 
662 664 678 677 1 180.0000771 4.9868430744 2 
662 681 679 685 1 0.0000000 0.470140055718 3 
661 659 679 681 1 0.0000000 0.470140055718 3 
661 659 679 685 1 0.0000000 3.5512367348 2 
661 659 679 685 1 0.0000000 0.435215395584 3 
661 662 664 665 1 74.7558318 2.13104427379 1 
661 662 664 665 1 6.2286026 3.22017077235 2 
661 662 664 665 1 168.6503722 1.33807576393 3 
661 662 664 665 1 3.9746017 0.773776719846 4 
661 662 664 678 1 0.0000000 0 2 
661 662 681 679 1 0.0000000 0.470140055718 3 
661 662 681 683 1 0.0000000 3.5512367348 2 
661 662 681 683 1 0.0000000 0.435215395584 3 
659 661 662 664 1 0.0000000 1.9645139384 2 
659 661 662 664 1 0.0000000 1.15755205909 3 
659 661 662 681 1 180.0000771 0.3022329136 2 
659 661 662 681 1 0.0000000 1.15755205909 3 
659 679 681 662 1 180.0000771 0.6044658272 1 
659 679 681 662 1 180.0000771 0.755582284 2 
659 679 681 662 1 0.0000000 0.54401924448 3 
659 679 681 683 1 0.0000000 0.470140055718 3 
656 659 661 662 1 180.0000771 0.3022329136 2 
656 659 661 662 1 0.0000000 1.15755205909 3 
656 659 679 681 1 180.0000771 0.6044658272 1 
656 659 679 681 1 180.0000771 0.755582284 2 
656 659 679 681 1 0.0000000 0.54401924448 3 
656 659 679 685 1 0.0000000 0.470140055718 3 
655 656 659 661 1 0.0000000 0.470140055718 3 
655 656 659 679 1 190.9766118 3.56042464427 1 
655 656 659 679 1 295.6329165 0.278362581199 2 
655 656 659 679 1 348.0954991 2.90998914757 3 
654 652 655 656 1 0.0000000 0.755582284 3 
653 652 655 656 1 0.0000000 0.755582284 3 
652 655 656 659 1 0.0000000 1.15855952621 3 
11 15 25 24 4 180.0000771 0 2 
21 18 20 24 4 180.0000771 3.3245620496 2 
15 18 16 17 4 180.0000771 31.734455928 2 
14 16 15 25 4 180.0000771 0 2 
25 12 11 9 4 180.0000771 3.022329136 2 
49 45 59 58 4 180.0000771 0 2 
55 52 54 58 4 180.0000771 3.3245620496 2 
49 52 50 51 4 180.0000771 31.734455928 2 
50 59 49 48 4 180.0000771 0 2 
59 46 45 43 4 180.0000771 3.022329136 2 
83 79 93 92 4 180.0000771 0 2 
89 86 88 92 4 180.0000771 3.3245620496 2 
83 86 84 85 4 180.0000771 31.734455928 2 
84 93 83 82 4 180.0000771 0 2 
93 80 79 77 4 180.0000771 3.022329136 2 
113 120 122 123 4 180.0000771 31.734455928 2 
116 120 118 119 4 180.0000771 31.734455928 2 
122 114 113 111 4 180.0000771 3.022329136 2 
143 150 152 153 4 180.0000771 31.734455928 2 
146 150 148 149 4 180.0000771 31.734455928 2 
152 144 143 141 4 180.0000771 3.022329136 2 
177 173 186 185 4 180.0000771 0 2 
177 179 178 182 4 180.0000771 3.3245620496 2 
176 178 177 186 4 180.0000771 0 2 
186 174 173 171 4 180.0000771 3.022329136 2 
210 206 220 219 4 180.0000771 0 2 
216 213 215 219 4 180.0000771 3.3245620496 2 
210 213 211 212 4 180.0000771 31.734455928 2 
211 220 210 209 4 180.0000771 0 2 
220 207 206 204 4 180.0000771 3.022329136 2 
244 240 254 253 4 180.0000771 0 2 
250 247 249 253 4 180.0000771 3.3245620496 2 
244 247 245 246 4 180.0000771 31.734455928 2 
245 254 244 243 4 180.0000771 0 2 
254 241 240 238 4 180.0000771 3.022329136 2 
278 274 288 287 4 180.0000771 0 2 
284 281 283 287 4 180.0000771 3.3245620496 2 
278 281 279 280 4 180.0000771 31.734455928 2 
279 288 278 277 4 180.0000771 0 2 
288 275 274 272 4 180.0000771 3.022329136 2 
308 315 317 318 4 180.0000771 31.734455928 2 
311 315 313 314 4 180.0000771 31.734455928 2 
317 309 308 306 4 180.0000771 3.022329136 2 
338 345 347 348 4 180.0000771 31.734455928 2 
341 345 343 344 4 180.0000771 31.734455928 2 
347 339 338 336 4 180.0000771 3.022329136 2 
372 368 381 380 4 180.0000771 0 2 
372 374 373 377 4 180.0000771 3.3245620496 2 
373 381 372 371 4 180.0000771 0 2 
369 381 368 366 4 180.0000771 3.022329136 2 
405 401 415 414 4 180.0000771 0 2 
411 408 410 414 4 180.0000771 3.3245620496 2 
405 408 406 407 4 180.0000771 31.734455928 2 
406 415 405 404 4 180.0000771 0 2 
415 402 401 399 4 180.0000771 3.022329136 2 
439 435 449 448 4 180.0000771 0 2 
445 442 444 448 4 180.0000771 3.3245620496 2 
439 442 440 441 4 180.0000771 31.734455928 2 
440 449 439 438 4 180.0000771 0 2 
449 436 435 433 4 180.0000771 3.022329136 2 
473 469 483 482 4 180.0000771 0 2 
479 476 478 482 4 180.0000771 3.3245620496 2 
473 476 474 475 4 180.0000771 31.734455928 2 
474 483 473 472 4 180.0000771 0 2 
483 470 469 467 4 180.0000771 3.022329136 2 
503 510 512 513 4 180.0000771 31.734455928 2 
506 510 508 509 4 180.0000771 31.734455928 2 
512 504 503 501 4 180.0000771 3.022329136 2 
533 540 542 543 4 180.0000771 31.734455928 2 
536 540 538 539 4 180.0000771 31.734455928 2 
542 534 533 531 4 180.0000771 3.022329136 2 
567 563 576 575 4 180.0000771 0 2 
567 569 568 572 4 180.0000771 3.3245620496 2 
568 576 567 566 4 180.0000771 0 2 
564 576 563 561 4 180.0000771 3.022329136 2 
600 596 610 609 4 180.0000771 0 2 
606 603 605 609 4 180.0000771 3.3245620496 2 
600 603 601 602 4 180.0000771 31.734455928 2 
601 610 600 599 4 180.0000771 0 2 
610 597 596 594 4 180.0000771 3.022329136 2 
634 630 644 643 4 180.0000771 0 2 
640 637 639 643 4 180.0000771 3.3245620496 2 
634 637 635 636 4 180.0000771 31.734455928 2 
635 644 634 633 4 180.0000771 0 2 
644 631 630 628 4 180.0000771 3.022329136 2 
668 664 678 677 4 180.0000771 0 2 
674 671 673 677 4 180.0000771 3.3245620496 2 
668 671 669 670 4 180.0000771 31.734455928 2 
669 678 668 667 4 180.0000771 0 2 
678 665 664 662 4 180.0000771 3.022329136 2 
29 28 26 32 1 0.0000000 0.755582284 1 
29 28 26 32 1 0.0000000 0 3 
29 28 30 31 1 0.0000000 0.503721498588 3 
27 26 28 29 1 0.0000000 0.470140055718 3 
27 26 28 30 1 0.0000000 0.755582284 1 
27 26 28 30 1 0.0000000 0 3 
27 26 32 33 1 0.0000000 1.15855952621 3 
26 28 30 31 1 0.0000000 0.755582284 1 
26 28 30 31 1 0.0000000 0.48357266176 3 
23 21 20 24 1 180.0000771 7.2535899264 2 
22 21 20 24 1 180.0000771 7.2535899264 2 
19 18 20 21 1 180.0000771 4.533493704 2 
19 18 20 24 1 180.0000771 4.533493704 2 
18 20 21 22 1 180.0000771 7.2535899264 2 
18 20 21 23 1 180.0000771 7.2535899264 2 
17 16 18 19 1 180.0000771 4.0801443336 2 
15 16 18 19 1 180.0000771 4.0801443336 2 
13 12 11 25 1 180.0000771 5.1379595312 2 
13 12 14 15 1 180.0000771 30.22329136 2 
11 9 28 29 1 0.0000000 0.470140055718 3 
10 9 11 12 1 0.0000000 0 2 
10 9 11 25 1 0.0000000 0 2 
10 9 28 26 1 0.0000000 0.470140055718 3 
10 9 28 29 1 0.0000000 0.470140055718 3 
10 9 28 30 1 0.0000000 0.470140055718 3 
9 11 12 13 1 180.0000771 5.1379595312 2 
9 28 26 27 1 0.0000000 0.470140055718 3 
9 28 30 31 1 0.0000000 0.755582284 1 
9 28 30 31 1 0.0000000 0.48357266176 3 
8 6 26 27 1 0.0000000 0.755582284 1 
8 6 26 27 1 0.0000000 0 3 
8 9 28 29 1 0.0000000 0.755582284 1 
8 9 28 29 1 0.0000000 0 3 
7 6 8 9 1 0.0000000 1.15855952621 3 
7 6 26 27 1 0.0000000 0.470140055718 3 
7 6 26 28 1 0.0000000 0.470140055718 3 
7 6 26 32 1 0.0000000 0.755582284 1 
7 6 26 32 1 0.0000000 0 3 
6 8 9 10 1 0.0000000 1.15855952621 3 
6 26 28 29 1 0.0000000 0.470140055718 3 
5 3 6 7 1 0.0000000 0.470140055718 3 
5 3 6 8 1 0.0000000 0.755582284 1 
5 3 6 8 1 0.0000000 0 3 
5 3 6 26 1 0.0000000 0.470140055718 3 
4 3 6 7 1 0.0000000 0.470140055718 3 
4 3 6 8 1 0.0000000 0.755582284 1 
4 3 6 8 1 0.0000000 0 3 
4 3 6 26 1 0.0000000 0.470140055718 3 
3 6 26 27 1 0.0000000 0.470140055718 3 
2 3 6 7 1 0.0000000 0.755582284 1 
2 3 6 7 1 0.0000000 0 3 
1 2 3 4 1 0.0000000 0.503721498588 3 
1 2 3 5 1 0.0000000 0.503721498588 3 
1 2 3 6 1 0.0000000 0.503721498588 3 
63 62 60 66 1 0.0000000 0.755582284 1 
63 62 60 66 1 0.0000000 0 3 
63 62 64 65 1 0.0000000 0.503721498588 3 
61 60 62 63 1 0.0000000 0.470140055718 3 
61 60 62 64 1 0.0000000 0.755582284 1 
61 60 62 64 1 0.0000000 0 3 
61 60 66 67 1 0.0000000 1.15855952621 3 
60 62 64 65 1 0.0000000 0.755582284 1 
60 62 64 65 1 0.0000000 0.48357266176 3 
57 55 54 58 1 180.0000771 7.2535899264 2 
56 55 54 58 1 180.0000771 7.2535899264 2 
53 52 54 55 1 180.0000771 4.533493704 2 
53 52 54 58 1 180.0000771 4.533493704 2 
52 54 55 56 1 180.0000771 7.2535899264 2 
52 54 55 57 1 180.0000771 7.2535899264 2 
51 50 52 53 1 180.0000771 4.0801443336 2 
49 50 52 53 1 180.0000771 4.0801443336 2 
47 46 45 59 1 180.0000771 5.1379595312 2 
47 46 48 49 1 180.0000771 30.22329136 2 
45 43 62 63 1 0.0000000 0.470140055718 3 
44 43 45 46 1 0.0000000 0 2 
44 43 45 59 1 0.0000000 0 2 
44 43 62 60 1 0.0000000 0.470140055718 3 
44 43 62 63 1 0.0000000 0.470140055718 3 
44 43 62 64 1 0.0000000 0.470140055718 3 
43 45 46 47 1 180.0000771 5.1379595312 2 
43 62 60 61 1 0.0000000 0.470140055718 3 
43 62 64 65 1 0.0000000 0.755582284 1 
43 62 64 65 1 0.0000000 0.48357266176 3 
42 40 60 61 1 0.0000000 0.755582284 1 
42 40 60 61 1 0.0000000 0 3 
42 43 62 63 1 0.0000000 0.755582284 1 
42 43 62 63 1 0.0000000 0 3 
41 40 42 43 1 0.0000000 1.15855952621 3 
41 40 60 61 1 0.0000000 0.470140055718 3 
41 40 60 62 1 0.0000000 0.470140055718 3 
41 40 60 66 1 0.0000000 0.755582284 1 
41 40 60 66 1 0.0000000 0 3 
40 42 43 44 1 0.0000000 1.15855952621 3 
40 60 62 63 1 0.0000000 0.470140055718 3 
39 37 40 41 1 0.0000000 0.470140055718 3 
39 37 40 42 1 0.0000000 0.755582284 1 
39 37 40 42 1 0.0000000 0 3 
39 37 40 60 1 0.0000000 0.470140055718 3 
38 37 40 41 1 0.0000000 0.470140055718 3 
38 37 40 42 1 0.0000000 0.755582284 1 
38 37 40 42 1 0.0000000 0 3 
38 37 40 60 1 0.0000000 0.470140055718 3 
37 40 60 61 1 0.0000000 0.470140055718 3 
36 37 40 41 1 0.0000000 0.755582284 1 
36 37 40 41 1 0.0000000 0 3 
33 36 37 38 1 0.0000000 1.15855952621 3 
33 36 37 39 1 0.0000000 1.15855952621 3 
97 96 94 100 1 0.0000000 0.755582284 1 
97 96 94 100 1 0.0000000 0 3 
97 96 98 99 1 0.0000000 0.503721498588 3 
95 94 96 97 1 0.0000000 0.470140055718 3 
95 94 96 98 1 0.0000000 0.755582284 1 
95 94 96 98 1 0.0000000 0 3 
95 94 100 101 1 0.0000000 1.15855952621 3 
94 96 98 99 1 0.0000000 0.755582284 1 
94 96 98 99 1 0.0000000 0.48357266176 3 
91 89 88 92 1 180.0000771 7.2535899264 2 
90 89 88 92 1 180.0000771 7.2535899264 2 
87 86 88 89 1 180.0000771 4.533493704 2 
87 86 88 92 1 180.0000771 4.533493704 2 
86 88 89 90 1 180.0000771 7.2535899264 2 
86 88 89 91 1 180.0000771 7.2535899264 2 
85 84 86 87 1 180.0000771 4.0801443336 2 
83 84 86 87 1 180.0000771 4.0801443336 2 
81 80 79 93 1 180.0000771 5.1379595312 2 
81 80 82 83 1 180.0000771 30.22329136 2 
79 77 96 97 1 0.0000000 0.470140055718 3 
78 77 79 80 1 0.0000000 0 2 
78 77 79 93 1 0.0000000 0 2 
78 77 96 94 1 0.0000000 0.470140055718 3 
78 77 96 97 1 0.0000000 0.470140055718 3 
78 77 96 98 1 0.0000000 0.470140055718 3 
77 79 80 81 1 180.0000771 5.1379595312 2 
77 96 94 95 1 0.0000000 0.470140055718 3 
77 96 98 99 1 0.0000000 0.755582284 1 
77 96 98 99 1 0.0000000 0.48357266176 3 
76 74 94 95 1 0.0000000 0.755582284 1 
76 74 94 95 1 0.0000000 0 3 
76 77 96 97 1 0.0000000 0.755582284 1 
76 77 96 97 1 0.0000000 0 3 
75 74 76 77 1 0.0000000 1.15855952621 3 
75 74 94 95 1 0.0000000 0.470140055718 3 
75 74 94 96 1 0.0000000 0.470140055718 3 
75 74 94 100 1 0.0000000 0.755582284 1 
75 74 94 100 1 0.0000000 0 3 
74 76 77 78 1 0.0000000 1.15855952621 3 
74 94 96 97 1 0.0000000 0.470140055718 3 
73 71 74 75 1 0.0000000 0.470140055718 3 
73 71 74 76 1 0.0000000 0.755582284 1 
73 71 74 76 1 0.0000000 0 3 
73 71 74 94 1 0.0000000 0.470140055718 3 
72 71 74 75 1 0.0000000 0.470140055718 3 
72 71 74 76 1 0.0000000 0.755582284 1 
72 71 74 76 1 0.0000000 0 3 
72 71 74 94 1 0.0000000 0.470140055718 3 
71 74 94 95 1 0.0000000 0.470140055718 3 
70 71 74 75 1 0.0000000 0.755582284 1 
70 71 74 75 1 0.0000000 0 3 
67 70 71 72 1 0.0000000 1.15855952621 3 
67 70 71 73 1 0.0000000 1.15855952621 3 
127 126 124 130 1 0.0000000 0.755582284 1 
127 126 124 130 1 0.0000000 0 3 
127 126 128 129 1 0.0000000 0.503721498588 3 
125 124 126 127 1 0.0000000 0.470140055718 3 
125 124 126 128 1 0.0000000 0.755582284 1 
125 124 126 128 1 0.0000000 0 3 
125 124 130 131 1 0.0000000 1.15855952621 3 
124 126 128 129 1 0.0000000 0.755582284 1 
124 126 128 129 1 0.0000000 0.48357266176 3 
121 120 122 123 1 180.0000771 4.0801443336 2 
119 118 120 121 1 180.0000771 4.0801443336 2 
117 116 118 119 1 180.0000771 6.5735658708 2 
117 116 118 120 1 180.0000771 6.5735658708 2 
116 118 120 121 1 180.0000771 4.0801443336 2 
115 114 113 122 1 180.0000771 5.5913089016 2 
115 114 116 117 1 180.0000771 20.0984887544 2 
115 114 116 118 1 180.0000771 20.0984887544 2 
113 111 126 127 1 0.0000000 0.470140055718 3 
113 114 116 117 1 180.0000771 20.0984887544 2 
113 122 120 121 1 180.0000771 4.0801443336 2 
112 111 113 114 1 0.0000000 0 2 
112 111 113 122 1 0.0000000 0 2 
112 111 126 124 1 0.0000000 0.470140055718 3 
112 111 126 127 1 0.0000000 0.470140055718 3 
112 111 126 128 1 0.0000000 0.470140055718 3 
111 113 114 115 1 180.0000771 5.5913089016 2 
111 126 124 125 1 0.0000000 0.470140055718 3 
111 126 128 129 1 0.0000000 0.755582284 1 
111 126 128 129 1 0.0000000 0.48357266176 3 
110 108 124 125 1 0.0000000 0.755582284 1 
110 108 124 125 1 0.0000000 0 3 
110 111 126 127 1 0.0000000 0.755582284 1 
110 111 126 127 1 0.0000000 0 3 
109 108 110 111 1 0.0000000 1.15855952621 3 
109 108 124 125 1 0.0000000 0.470140055718 3 
109 108 124 126 1 0.0000000 0.470140055718 3 
109 108 124 130 1 0.0000000 0.755582284 1 
109 108 124 130 1 0.0000000 0 3 
108 110 111 112 1 0.0000000 1.15855952621 3 
108 124 126 127 1 0.0000000 0.470140055718 3 
107 105 108 109 1 0.0000000 0.470140055718 3 
107 105 108 110 1 0.0000000 0.755582284 1 
107 105 108 110 1 0.0000000 0 3 
107 105 108 124 1 0.0000000 0.470140055718 3 
106 105 108 109 1 0.0000000 0.470140055718 3 
106 105 108 110 1 0.0000000 0.755582284 1 
106 105 108 110 1 0.0000000 0 3 
106 105 108 124 1 0.0000000 0.470140055718 3 
105 108 124 125 1 0.0000000 0.470140055718 3 
104 105 108 109 1 0.0000000 0.755582284 1 
104 105 108 109 1 0.0000000 0 3 
101 104 105 106 1 0.0000000 1.15855952621 3 
101 104 105 107 1 0.0000000 1.15855952621 3 
157 156 154 160 1 0.0000000 0.755582284 1 
157 156 154 160 1 0.0000000 0 3 
157 156 158 159 1 0.0000000 0.503721498588 3 
155 154 156 157 1 0.0000000 0.470140055718 3 
155 154 156 158 1 0.0000000 0.755582284 1 
155 154 156 158 1 0.0000000 0 3 
155 154 160 161 1 0.0000000 1.15855952621 3 
154 156 158 159 1 0.0000000 0.755582284 1 
154 156 158 159 1 0.0000000 0.48357266176 3 
151 150 152 153 1 180.0000771 4.0801443336 2 
149 148 150 151 1 180.0000771 4.0801443336 2 
147 146 148 149 1 180.0000771 6.5735658708 2 
147 146 148 150 1 180.0000771 6.5735658708 2 
146 148 150 151 1 180.0000771 4.0801443336 2 
145 144 143 152 1 180.0000771 5.5913089016 2 
145 144 146 147 1 180.0000771 20.0984887544 2 
145 144 146 148 1 180.0000771 20.0984887544 2 
143 141 156 157 1 0.0000000 0.470140055718 3 
143 144 146 147 1 180.0000771 20.0984887544 2 
143 152 150 151 1 180.0000771 4.0801443336 2 
142 141 143 144 1 0.0000000 0 2 
142 141 143 152 1 0.0000000 0 2 
142 141 156 154 1 0.0000000 0.470140055718 3 
142 141 156 157 1 0.0000000 0.470140055718 3 
142 141 156 158 1 0.0000000 0.470140055718 3 
141 143 144 145 1 180.0000771 5.5913089016 2 
141 156 154 155 1 0.0000000 0.470140055718 3 
141 156 158 159 1 0.0000000 0.755582284 1 
141 156 158 159 1 0.0000000 0.48357266176 3 
140 138 154 155 1 0.0000000 0.755582284 1 
140 138 154 155 1 0.0000000 0 3 
140 141 156 157 1 0.0000000 0.755582284 1 
140 141 156 157 1 0.0000000 0 3 
139 138 140 141 1 0.0000000 1.15855952621 3 
139 138 154 155 1 0.0000000 0.470140055718 3 
139 138 154 156 1 0.0000000 0.470140055718 3 
139 138 154 160 1 0.0000000 0.755582284 1 
139 138 154 160 1 0.0000000 0 3 
138 140 141 142 1 0.0000000 1.15855952621 3 
138 154 156 157 1 0.0000000 0.470140055718 3 
137 135 138 139 1 0.0000000 0.470140055718 3 
137 135 138 140 1 0.0000000 0.755582284 1 
137 135 138 140 1 0.0000000 0 3 
137 135 138 154 1 0.0000000 0.470140055718 3 
136 135 138 139 1 0.0000000 0.470140055718 3 
136 135 138 140 1 0.0000000 0.755582284 1 
136 135 138 140 1 0.0000000 0 3 
136 135 138 154 1 0.0000000 0.470140055718 3 
135 138 154 155 1 0.0000000 0.470140055718 3 
134 135 138 139 1 0.0000000 0.755582284 1 
134 135 138 139 1 0.0000000 0 3 
131 134 135 136 1 0.0000000 1.15855952621 3 
131 134 135 137 1 0.0000000 1.15855952621 3 
190 189 187 193 1 0.0000000 0.755582284 1 
190 189 187 193 1 0.0000000 0 3 
190 189 191 192 1 0.0000000 0.503721498588 3 
188 187 189 190 1 0.0000000 0.470140055718 3 
188 187 189 191 1 0.0000000 0.755582284 1 
188 187 189 191 1 0.0000000 0 3 
188 187 193 194 1 0.0000000 1.15855952621 3 
187 189 191 192 1 0.0000000 0.755582284 1 
187 189 191 192 1 0.0000000 0.48357266176 3 
184 183 185 186 1 180.0000771 20.5518381248 2 
181 179 178 182 1 180.0000771 7.2535899264 2 
180 179 178 182 1 180.0000771 7.2535899264 2 
178 182 183 184 1 180.0000771 20.5518381248 2 
177 178 179 180 1 180.0000771 7.2535899264 2 
177 178 179 181 1 180.0000771 7.2535899264 2 
175 174 173 186 1 180.0000771 5.1379595312 2 
175 174 176 177 1 180.0000771 30.22329136 2 
173 171 189 190 1 0.0000000 0.470140055718 3 
172 171 173 174 1 0.0000000 0 2 
172 171 173 186 1 0.0000000 0 2 
172 171 189 187 1 0.0000000 0.470140055718 3 
172 171 189 190 1 0.0000000 0.470140055718 3 
172 171 189 191 1 0.0000000 0.470140055718 3 
171 173 174 175 1 180.0000771 5.1379595312 2 
171 189 187 188 1 0.0000000 0.470140055718 3 
171 189 191 192 1 0.0000000 0.755582284 1 
171 189 191 192 1 0.0000000 0.48357266176 3 
170 168 187 188 1 0.0000000 0.755582284 1 
170 168 187 188 1 0.0000000 0 3 
170 171 189 190 1 0.0000000 0.755582284 1 
170 171 189 190 1 0.0000000 0 3 
169 168 170 171 1 0.0000000 1.15855952621 3 
169 168 187 188 1 0.0000000 0.470140055718 3 
169 168 187 189 1 0.0000000 0.470140055718 3 
169 168 187 193 1 0.0000000 0.755582284 1 
169 168 187 193 1 0.0000000 0 3 
168 170 171 172 1 0.0000000 1.15855952621 3 
168 187 189 190 1 0.0000000 0.470140055718 3 
167 165 168 169 1 0.0000000 0.470140055718 3 
167 165 168 170 1 0.0000000 0.755582284 1 
167 165 168 170 1 0.0000000 0 3 
167 165 168 187 1 0.0000000 0.470140055718 3 
166 165 168 169 1 0.0000000 0.470140055718 3 
166 165 168 170 1 0.0000000 0.755582284 1 
166 165 168 170 1 0.0000000 0 3 
166 165 168 187 1 0.0000000 0.470140055718 3 
165 168 187 188 1 0.0000000 0.470140055718 3 
164 165 168 169 1 0.0000000 0.755582284 1 
164 165 168 169 1 0.0000000 0 3 
161 164 165 166 1 0.0000000 1.15855952621 3 
161 164 165 167 1 0.0000000 1.15855952621 3 
224 223 221 227 1 0.0000000 0.755582284 1 
224 223 221 227 1 0.0000000 0 3 
224 223 225 226 1 0.0000000 0.503721498588 3 
222 221 223 224 1 0.0000000 0.470140055718 3 
222 221 223 225 1 0.0000000 0.755582284 1 
222 221 223 225 1 0.0000000 0 3 
222 221 227 228 1 0.0000000 1.15855952621 3 
221 223 225 226 1 0.0000000 0.755582284 1 
221 223 225 226 1 0.0000000 0.48357266176 3 
218 216 215 219 1 180.0000771 7.2535899264 2 
217 216 215 219 1 180.0000771 7.2535899264 2 
214 213 215 216 1 180.0000771 4.533493704 2 
214 213 215 219 1 180.0000771 4.533493704 2 
213 215 216 217 1 180.0000771 7.2535899264 2 
213 215 216 218 1 180.0000771 7.2535899264 2 
212 211 213 214 1 180.0000771 4.0801443336 2 
210 211 213 214 1 180.0000771 4.0801443336 2 
208 207 206 220 1 180.0000771 5.1379595312 2 
208 207 209 210 1 180.0000771 30.22329136 2 
206 204 223 224 1 0.0000000 0.470140055718 3 
205 204 206 207 1 0.0000000 0 2 
205 204 206 220 1 0.0000000 0 2 
205 204 223 221 1 0.0000000 0.470140055718 3 
205 204 223 224 1 0.0000000 0.470140055718 3 
205 204 223 225 1 0.0000000 0.470140055718 3 
204 206 207 208 1 180.0000771 5.1379595312 2 
204 223 221 222 1 0.0000000 0.470140055718 3 
204 223 225 226 1 0.0000000 0.755582284 1 
204 223 225 226 1 0.0000000 0.48357266176 3 
203 201 221 222 1 0.0000000 0.755582284 1 
203 201 221 222 1 0.0000000 0 3 
203 204 223 224 1 0.0000000 0.755582284 1 
203 204 223 224 1 0.0000000 0 3 
202 201 203 204 1 0.0000000 1.15855952621 3 
202 201 221 222 1 0.0000000 0.470140055718 3 
202 201 221 223 1 0.0000000 0.470140055718 3 
202 201 221 227 1 0.0000000 0.755582284 1 
202 201 221 227 1 0.0000000 0 3 
201 203 204 205 1 0.0000000 1.15855952621 3 
201 221 223 224 1 0.0000000 0.470140055718 3 
200 198 201 202 1 0.0000000 0.470140055718 3 
200 198 201 203 1 0.0000000 0.755582284 1 
200 198 201 203 1 0.0000000 0 3 
200 198 201 221 1 0.0000000 0.470140055718 3 
199 198 201 202 1 0.0000000 0.470140055718 3 
199 198 201 203 1 0.0000000 0.755582284 1 
199 198 201 203 1 0.0000000 0 3 
199 198 201 221 1 0.0000000 0.470140055718 3 
198 201 221 222 1 0.0000000 0.470140055718 3 
197 198 201 202 1 0.0000000 0.755582284 1 
197 198 201 202 1 0.0000000 0 3 
194 197 198 199 1 0.0000000 1.15855952621 3 
194 197 198 200 1 0.0000000 1.15855952621 3 
258 257 255 261 1 0.0000000 0.755582284 1 
258 257 255 261 1 0.0000000 0 3 
258 257 259 260 1 0.0000000 0.503721498588 3 
256 255 257 258 1 0.0000000 0.470140055718 3 
256 255 257 259 1 0.0000000 0.755582284 1 
256 255 257 259 1 0.0000000 0 3 
256 255 261 262 1 0.0000000 1.15855952621 3 
255 257 259 260 1 0.0000000 0.755582284 1 
255 257 259 260 1 0.0000000 0.48357266176 3 
252 250 249 253 1 180.0000771 7.2535899264 2 
251 250 249 253 1 180.0000771 7.2535899264 2 
248 247 249 250 1 180.0000771 4.533493704 2 
248 247 249 253 1 180.0000771 4.533493704 2 
247 249 250 251 1 180.0000771 7.2535899264 2 
247 249 250 252 1 180.0000771 7.2535899264 2 
246 245 247 248 1 180.0000771 4.0801443336 2 
244 245 247 248 1 180.0000771 4.0801443336 2 
242 241 240 254 1 180.0000771 5.1379595312 2 
242 241 243 244 1 180.0000771 30.22329136 2 
240 238 257 258 1 0.0000000 0.470140055718 3 
239 238 240 241 1 0.0000000 0 2 
239 238 240 254 1 0.0000000 0 2 
239 238 257 255 1 0.0000000 0.470140055718 3 
239 238 257 258 1 0.0000000 0.470140055718 3 
239 238 257 259 1 0.0000000 0.470140055718 3 
238 240 241 242 1 180.0000771 5.1379595312 2 
238 257 255 256 1 0.0000000 0.470140055718 3 
238 257 259 260 1 0.0000000 0.755582284 1 
238 257 259 260 1 0.0000000 0.48357266176 3 
237 235 255 256 1 0.0000000 0.755582284 1 
237 235 255 256 1 0.0000000 0 3 
237 238 257 258 1 0.0000000 0.755582284 1 
237 238 257 258 1 0.0000000 0 3 
236 235 237 238 1 0.0000000 1.15855952621 3 
236 235 255 256 1 0.0000000 0.470140055718 3 
236 235 255 257 1 0.0000000 0.470140055718 3 
236 235 255 261 1 0.0000000 0.755582284 1 
236 235 255 261 1 0.0000000 0 3 
235 237 238 239 1 0.0000000 1.15855952621 3 
235 255 257 258 1 0.0000000 0.470140055718 3 
234 232 235 236 1 0.0000000 0.470140055718 3 
234 232 235 237 1 0.0000000 0.755582284 1 
234 232 235 237 1 0.0000000 0 3 
234 232 235 255 1 0.0000000 0.470140055718 3 
233 232 235 236 1 0.0000000 0.470140055718 3 
233 232 235 237 1 0.0000000 0.755582284 1 
233 232 235 237 1 0.0000000 0 3 
233 232 235 255 1 0.0000000 0.470140055718 3 
232 235 255 256 1 0.0000000 0.470140055718 3 
231 232 235 236 1 0.0000000 0.755582284 1 
231 232 235 236 1 0.0000000 0 3 
228 231 232 233 1 0.0000000 1.15855952621 3 
228 231 232 234 1 0.0000000 1.15855952621 3 
292 291 289 295 1 0.0000000 0.755582284 1 
292 291 289 295 1 0.0000000 0 3 
292 291 293 294 1 0.0000000 0.503721498588 3 
290 289 291 292 1 0.0000000 0.470140055718 3 
290 289 291 293 1 0.0000000 0.755582284 1 
290 289 291 293 1 0.0000000 0 3 
290 289 295 296 1 0.0000000 1.15855952621 3 
289 291 293 294 1 0.0000000 0.755582284 1 
289 291 293 294 1 0.0000000 0.48357266176 3 
286 284 283 287 1 180.0000771 7.2535899264 2 
285 284 283 287 1 180.0000771 7.2535899264 2 
282 281 283 284 1 180.0000771 4.533493704 2 
282 281 283 287 1 180.0000771 4.533493704 2 
281 283 284 285 1 180.0000771 7.2535899264 2 
281 283 284 286 1 180.0000771 7.2535899264 2 
280 279 281 282 1 180.0000771 4.0801443336 2 
278 279 281 282 1 180.0000771 4.0801443336 2 
276 275 274 288 1 180.0000771 5.1379595312 2 
276 275 277 278 1 180.0000771 30.22329136 2 
274 272 291 292 1 0.0000000 0.470140055718 3 
273 272 274 275 1 0.0000000 0 2 
273 272 274 288 1 0.0000000 0 2 
273 272 291 289 1 0.0000000 0.470140055718 3 
273 272 291 292 1 0.0000000 0.470140055718 3 
273 272 291 293 1 0.0000000 0.470140055718 3 
272 274 275 276 1 180.0000771 5.1379595312 2 
272 291 289 290 1 0.0000000 0.470140055718 3 
272 291 293 294 1 0.0000000 0.755582284 1 
272 291 293 294 1 0.0000000 0.48357266176 3 
271 269 289 290 1 0.0000000 0.755582284 1 
271 269 289 290 1 0.0000000 0 3 
271 272 291 292 1 0.0000000 0.755582284 1 
271 272 291 292 1 0.0000000 0 3 
270 269 271 272 1 0.0000000 1.15855952621 3 
270 269 289 290 1 0.0000000 0.470140055718 3 
270 269 289 291 1 0.0000000 0.470140055718 3 
270 269 289 295 1 0.0000000 0.755582284 1 
270 269 289 295 1 0.0000000 0 3 
269 271 272 273 1 0.0000000 1.15855952621 3 
269 289 291 292 1 0.0000000 0.470140055718 3 
268 266 269 270 1 0.0000000 0.470140055718 3 
268 266 269 271 1 0.0000000 0.755582284 1 
268 266 269 271 1 0.0000000 0 3 
268 266 269 289 1 0.0000000 0.470140055718 3 
267 266 269 270 1 0.0000000 0.470140055718 3 
267 266 269 271 1 0.0000000 0.755582284 1 
267 266 269 271 1 0.0000000 0 3 
267 266 269 289 1 0.0000000 0.470140055718 3 
266 269 289 290 1 0.0000000 0.470140055718 3 
265 266 269 270 1 0.0000000 0.755582284 1 
265 266 269 270 1 0.0000000 0 3 
262 265 266 267 1 0.0000000 1.15855952621 3 
262 265 266 268 1 0.0000000 1.15855952621 3 
322 321 319 325 1 0.0000000 0.755582284 1 
322 321 319 325 1 0.0000000 0 3 
322 321 323 324 1 0.0000000 0.503721498588 3 
320 319 321 322 1 0.0000000 0.470140055718 3 
320 319 321 323 1 0.0000000 0.755582284 1 
320 319 321 323 1 0.0000000 0 3 
320 319 325 326 1 0.0000000 1.15855952621 3 
319 321 323 324 1 0.0000000 0.755582284 1 
319 321 323 324 1 0.0000000 0.48357266176 3 
316 315 317 318 1 180.0000771 4.0801443336 2 
314 313 315 316 1 180.0000771 4.0801443336 2 
312 311 313 314 1 180.0000771 6.5735658708 2 
312 311 313 315 1 180.0000771 6.5735658708 2 
311 313 315 316 1 180.0000771 4.0801443336 2 
310 309 308 317 1 180.0000771 5.5913089016 2 
310 309 311 312 1 180.0000771 20.0984887544 2 
310 309 311 313 1 180.0000771 20.0984887544 2 
308 306 321 322 1 0.0000000 0.470140055718 3 
308 309 311 312 1 180.0000771 20.0984887544 2 
308 317 315 316 1 180.0000771 4.0801443336 2 
307 306 308 309 1 0.0000000 0 2 
307 306 308 317 1 0.0000000 0 2 
307 306 321 319 1 0.0000000 0.470140055718 3 
307 306 321 322 1 0.0000000 0.470140055718 3 
307 306 321 323 1 0.0000000 0.470140055718 3 
306 308 309 310 1 180.0000771 5.5913089016 2 
306 321 319 320 1 0.0000000 0.470140055718 3 
306 321 323 324 1 0.0000000 0.755582284 1 
306 321 323 324 1 0.0000000 0.48357266176 3 
305 303 319 320 1 0.0000000 0.755582284 1 
305 303 319 320 1 0.0000000 0 3 
305 306 321 322 1 0.0000000 0.755582284 1 
305 306 321 322 1 0.0000000 0 3 
304 303 305 306 1 0.0000000 1.15855952621 3 
304 303 319 320 1 0.0000000 0.470140055718 3 
304 303 319 321 1 0.0000000 0.470140055718 3 
304 303 319 325 1 0.0000000 0.755582284 1 
304 303 319 325 1 0.0000000 0 3 
303 305 306 307 1 0.0000000 1.15855952621 3 
303 319 321 322 1 0.0000000 0.470140055718 3 
302 300 303 304 1 0.0000000 0.470140055718 3 
302 300 303 305 1 0.0000000 0.755582284 1 
302 300 303 305 1 0.0000000 0 3 
302 300 303 319 1 0.0000000 0.470140055718 3 
301 300 303 304 1 0.0000000 0.470140055718 3 
301 300 303 305 1 0.0000000 0.755582284 1 
301 300 303 305 1 0.0000000 0 3 
301 300 303 319 1 0.0000000 0.470140055718 3 
300 303 319 320 1 0.0000000 0.470140055718 3 
299 300 303 304 1 0.0000000 0.755582284 1 
299 300 303 304 1 0.0000000 0 3 
296 299 300 301 1 0.0000000 1.15855952621 3 
296 299 300 302 1 0.0000000 1.15855952621 3 
352 351 349 355 1 0.0000000 0.755582284 1 
352 351 349 355 1 0.0000000 0 3 
352 351 353 354 1 0.0000000 0.503721498588 3 
350 349 351 352 1 0.0000000 0.470140055718 3 
350 349 351 353 1 0.0000000 0.755582284 1 
350 349 351 353 1 0.0000000 0 3 
350 349 355 356 1 0.0000000 1.15855952621 3 
349 351 353 354 1 0.0000000 0.755582284 1 
349 351 353 354 1 0.0000000 0.48357266176 3 
346 345 347 348 1 180.0000771 4.0801443336 2 
344 343 345 346 1 180.0000771 4.0801443336 2 
342 341 343 344 1 180.0000771 6.5735658708 2 
342 341 343 345 1 180.0000771 6.5735658708 2 
341 343 345 346 1 180.0000771 4.0801443336 2 
340 339 338 347 1 180.0000771 5.5913089016 2 
340 339 341 342 1 180.0000771 20.0984887544 2 
340 339 341 343 1 180.0000771 20.0984887544 2 
338 336 351 352 1 0.0000000 0.470140055718 3 
338 339 341 342 1 180.0000771 20.0984887544 2 
338 347 345 346 1 180.0000771 4.0801443336 2 
337 336 338 339 1 0.0000000 0 2 
337 336 338 347 1 0.0000000 0 2 
337 336 351 349 1 0.0000000 0.470140055718 3 
337 336 351 352 1 0.0000000 0.470140055718 3 
337 336 351 353 1 0.0000000 0.470140055718 3 
336 338 339 340 1 180.0000771 5.5913089016 2 
336 351 349 350 1 0.0000000 0.470140055718 3 
336 351 353 354 1 0.0000000 0.755582284 1 
336 351 353 354 1 0.0000000 0.48357266176 3 
335 333 349 350 1 0.0000000 0.755582284 1 
335 333 349 350 1 0.0000000 0 3 
335 336 351 352 1 0.0000000 0.755582284 1 
335 336 351 352 1 0.0000000 0 3 
334 333 335 336 1 0.0000000 1.15855952621 3 
334 333 349 350 1 0.0000000 0.470140055718 3 
334 333 349 351 1 0.0000000 0.470140055718 3 
334 333 349 355 1 0.0000000 0.755582284 1 
334 333 349 355 1 0.0000000 0 3 
333 335 336 337 1 0.0000000 1.15855952621 3 
333 349 351 352 1 0.0000000 0.470140055718 3 
332 330 333 334 1 0.0000000 0.470140055718 3 
332 330 333 335 1 0.0000000 0.755582284 1 
332 330 333 335 1 0.0000000 0 3 
332 330 333 349 1 0.0000000 0.470140055718 3 
331 330 333 334 1 0.0000000 0.470140055718 3 
331 330 333 335 1 0.0000000 0.755582284 1 
331 330 333 335 1 0.0000000 0 3 
331 330 333 349 1 0.0000000 0.470140055718 3 
330 333 349 350 1 0.0000000 0.470140055718 3 
329 330 333 334 1 0.0000000 0.755582284 1 
329 330 333 334 1 0.0000000 0 3 
326 329 330 331 1 0.0000000 1.15855952621 3 
326 329 330 332 1 0.0000000 1.15855952621 3 
385 384 382 388 1 0.0000000 0.755582284 1 
385 384 382 388 1 0.0000000 0 3 
385 384 386 387 1 0.0000000 0.503721498588 3 
383 382 384 385 1 0.0000000 0.470140055718 3 
383 382 384 386 1 0.0000000 0.755582284 1 
383 382 384 386 1 0.0000000 0 3 
383 382 388 389 1 0.0000000 1.15855952621 3 
382 384 386 387 1 0.0000000 0.755582284 1 
382 384 386 387 1 0.0000000 0.48357266176 3 
379 378 380 381 1 180.0000771 20.5518381248 2 
376 374 373 377 1 180.0000771 7.2535899264 2 
375 374 373 377 1 180.0000771 7.2535899264 2 
373 377 378 379 1 180.0000771 20.5518381248 2 
372 373 374 375 1 180.0000771 7.2535899264 2 
372 373 374 376 1 180.0000771 7.2535899264 2 
370 369 368 381 1 180.0000771 5.1379595312 2 
370 369 371 372 1 180.0000771 30.22329136 2 
368 366 384 385 1 0.0000000 0.470140055718 3 
367 366 368 369 1 0.0000000 0 2 
367 366 368 381 1 0.0000000 0 2 
367 366 384 382 1 0.0000000 0.470140055718 3 
367 366 384 385 1 0.0000000 0.470140055718 3 
367 366 384 386 1 0.0000000 0.470140055718 3 
366 368 369 370 1 180.0000771 5.1379595312 2 
366 384 382 383 1 0.0000000 0.470140055718 3 
366 384 386 387 1 0.0000000 0.755582284 1 
366 384 386 387 1 0.0000000 0.48357266176 3 
365 363 382 383 1 0.0000000 0.755582284 1 
365 363 382 383 1 0.0000000 0 3 
365 366 384 385 1 0.0000000 0.755582284 1 
365 366 384 385 1 0.0000000 0 3 
364 363 365 366 1 0.0000000 1.15855952621 3 
364 363 382 383 1 0.0000000 0.470140055718 3 
364 363 382 384 1 0.0000000 0.470140055718 3 
364 363 382 388 1 0.0000000 0.755582284 1 
364 363 382 388 1 0.0000000 0 3 
363 365 366 367 1 0.0000000 1.15855952621 3 
363 382 384 385 1 0.0000000 0.470140055718 3 
362 360 363 364 1 0.0000000 0.470140055718 3 
362 360 363 365 1 0.0000000 0.755582284 1 
362 360 363 365 1 0.0000000 0 3 
362 360 363 382 1 0.0000000 0.470140055718 3 
361 360 363 364 1 0.0000000 0.470140055718 3 
361 360 363 365 1 0.0000000 0.755582284 1 
361 360 363 365 1 0.0000000 0 3 
361 360 363 382 1 0.0000000 0.470140055718 3 
360 363 382 383 1 0.0000000 0.470140055718 3 
359 360 363 364 1 0.0000000 0.755582284 1 
359 360 363 364 1 0.0000000 0 3 
356 359 360 361 1 0.0000000 1.15855952621 3 
356 359 360 362 1 0.0000000 1.15855952621 3 
419 418 416 422 1 0.0000000 0.755582284 1 
419 418 416 422 1 0.0000000 0 3 
419 418 420 421 1 0.0000000 0.503721498588 3 
417 416 418 419 1 0.0000000 0.470140055718 3 
417 416 418 420 1 0.0000000 0.755582284 1 
417 416 418 420 1 0.0000000 0 3 
417 416 422 423 1 0.0000000 1.15855952621 3 
416 418 420 421 1 0.0000000 0.755582284 1 
416 418 420 421 1 0.0000000 0.48357266176 3 
413 411 410 414 1 180.0000771 7.2535899264 2 
412 411 410 414 1 180.0000771 7.2535899264 2 
409 408 410 411 1 180.0000771 4.533493704 2 
409 408 410 414 1 180.0000771 4.533493704 2 
408 410 411 412 1 180.0000771 7.2535899264 2 
408 410 411 413 1 180.0000771 7.2535899264 2 
407 406 408 409 1 180.0000771 4.0801443336 2 
405 406 408 409 1 180.0000771 4.0801443336 2 
403 402 401 415 1 180.0000771 5.1379595312 2 
403 402 404 405 1 180.0000771 30.22329136 2 
401 399 418 419 1 0.0000000 0.470140055718 3 
400 399 401 402 1 0.0000000 0 2 
400 399 401 415 1 0.0000000 0 2 
400 399 418 416 1 0.0000000 0.470140055718 3 
400 399 418 419 1 0.0000000 0.470140055718 3 
400 399 418 420 1 0.0000000 0.470140055718 3 
399 401 402 403 1 180.0000771 5.1379595312 2 
399 418 416 417 1 0.0000000 0.470140055718 3 
399 418 420 421 1 0.0000000 0.755582284 1 
399 418 420 421 1 0.0000000 0.48357266176 3 
398 396 416 417 1 0.0000000 0.755582284 1 
398 396 416 417 1 0.0000000 0 3 
398 399 418 419 1 0.0000000 0.755582284 1 
398 399 418 419 1 0.0000000 0 3 
397 396 398 399 1 0.0000000 1.15855952621 3 
397 396 416 417 1 0.0000000 0.470140055718 3 
397 396 416 418 1 0.0000000 0.470140055718 3 
397 396 416 422 1 0.0000000 0.755582284 1 
397 396 416 422 1 0.0000000 0 3 
396 398 399 400 1 0.0000000 1.15855952621 3 
396 416 418 419 1 0.0000000 0.470140055718 3 
395 393 396 397 1 0.0000000 0.470140055718 3 
395 393 396 398 1 0.0000000 0.755582284 1 
395 393 396 398 1 0.0000000 0 3 
395 393 396 416 1 0.0000000 0.470140055718 3 
394 393 396 397 1 0.0000000 0.470140055718 3 
394 393 396 398 1 0.0000000 0.755582284 1 
394 393 396 398 1 0.0000000 0 3 
394 393 396 416 1 0.0000000 0.470140055718 3 
393 396 416 417 1 0.0000000 0.470140055718 3 
392 393 396 397 1 0.0000000 0.755582284 1 
392 393 396 397 1 0.0000000 0 3 
389 392 393 394 1 0.0000000 1.15855952621 3 
389 392 393 395 1 0.0000000 1.15855952621 3 
453 452 450 456 1 0.0000000 0.755582284 1 
453 452 450 456 1 0.0000000 0 3 
453 452 454 455 1 0.0000000 0.503721498588 3 
451 450 452 453 1 0.0000000 0.470140055718 3 
451 450 452 454 1 0.0000000 0.755582284 1 
451 450 452 454 1 0.0000000 0 3 
451 450 456 457 1 0.0000000 1.15855952621 3 
450 452 454 455 1 0.0000000 0.755582284 1 
450 452 454 455 1 0.0000000 0.48357266176 3 
447 445 444 448 1 180.0000771 7.2535899264 2 
446 445 444 448 1 180.0000771 7.2535899264 2 
443 442 444 445 1 180.0000771 4.533493704 2 
443 442 444 448 1 180.0000771 4.533493704 2 
442 444 445 446 1 180.0000771 7.2535899264 2 
442 444 445 447 1 180.0000771 7.2535899264 2 
441 440 442 443 1 180.0000771 4.0801443336 2 
439 440 442 443 1 180.0000771 4.0801443336 2 
437 436 435 449 1 180.0000771 5.1379595312 2 
437 436 438 439 1 180.0000771 30.22329136 2 
435 433 452 453 1 0.0000000 0.470140055718 3 
434 433 435 436 1 0.0000000 0 2 
434 433 435 449 1 0.0000000 0 2 
434 433 452 450 1 0.0000000 0.470140055718 3 
434 433 452 453 1 0.0000000 0.470140055718 3 
434 433 452 454 1 0.0000000 0.470140055718 3 
433 435 436 437 1 180.0000771 5.1379595312 2 
433 452 450 451 1 0.0000000 0.470140055718 3 
433 452 454 455 1 0.0000000 0.755582284 1 
433 452 454 455 1 0.0000000 0.48357266176 3 
432 430 450 451 1 0.0000000 0.755582284 1 
432 430 450 451 1 0.0000000 0 3 
432 433 452 453 1 0.0000000 0.755582284 1 
432 433 452 453 1 0.0000000 0 3 
431 430 432 433 1 0.0000000 1.15855952621 3 
431 430 450 451 1 0.0000000 0.470140055718 3 
431 430 450 452 1 0.0000000 0.470140055718 3 
431 430 450 456 1 0.0000000 0.755582284 1 
431 430 450 456 1 0.0000000 0 3 
430 432 433 434 1 0.0000000 1.15855952621 3 
430 450 452 453 1 0.0000000 0.470140055718 3 
429 427 430 431 1 0.0000000 0.470140055718 3 
429 427 430 432 1 0.0000000 0.755582284 1 
429 427 430 432 1 0.0000000 0 3 
429 427 430 450 1 0.0000000 0.470140055718 3 
428 427 430 431 1 0.0000000 0.470140055718 3 
428 427 430 432 1 0.0000000 0.755582284 1 
428 427 430 432 1 0.0000000 0 3 
428 427 430 450 1 0.0000000 0.470140055718 3 
427 430 450 451 1 0.0000000 0.470140055718 3 
426 427 430 431 1 0.0000000 0.755582284 1 
426 427 430 431 1 0.0000000 0 3 
423 426 427 428 1 0.0000000 1.15855952621 3 
423 426 427 429 1 0.0000000 1.15855952621 3 
487 486 484 490 1 0.0000000 0.755582284 1 
487 486 484 490 1 0.0000000 0 3 
487 486 488 489 1 0.0000000 0.503721498588 3 
485 484 486 487 1 0.0000000 0.470140055718 3 
485 484 486 488 1 0.0000000 0.755582284 1 
485 484 486 488 1 0.0000000 0 3 
485 484 490 491 1 0.0000000 1.15855952621 3 
484 486 488 489 1 0.0000000 0.755582284 1 
484 486 488 489 1 0.0000000 0.48357266176 3 
481 479 478 482 1 180.0000771 7.2535899264 2 
480 479 478 482 1 180.0000771 7.2535899264 2 
477 476 478 479 1 180.0000771 4.533493704 2 
477 476 478 482 1 180.0000771 4.533493704 2 
476 478 479 480 1 180.0000771 7.2535899264 2 
476 478 479 481 1 180.0000771 7.2535899264 2 
475 474 476 477 1 180.0000771 4.0801443336 2 
473 474 476 477 1 180.0000771 4.0801443336 2 
471 470 469 483 1 180.0000771 5.1379595312 2 
471 470 472 473 1 180.0000771 30.22329136 2 
469 467 486 487 1 0.0000000 0.470140055718 3 
468 467 469 470 1 0.0000000 0 2 
468 467 469 483 1 0.0000000 0 2 
468 467 486 484 1 0.0000000 0.470140055718 3 
468 467 486 487 1 0.0000000 0.470140055718 3 
468 467 486 488 1 0.0000000 0.470140055718 3 
467 469 470 471 1 180.0000771 5.1379595312 2 
467 486 484 485 1 0.0000000 0.470140055718 3 
467 486 488 489 1 0.0000000 0.755582284 1 
467 486 488 489 1 0.0000000 0.48357266176 3 
466 464 484 485 1 0.0000000 0.755582284 1 
466 464 484 485 1 0.0000000 0 3 
466 467 486 487 1 0.0000000 0.755582284 1 
466 467 486 487 1 0.0000000 0 3 
465 464 466 467 1 0.0000000 1.15855952621 3 
465 464 484 485 1 0.0000000 0.470140055718 3 
465 464 484 486 1 0.0000000 0.470140055718 3 
465 464 484 490 1 0.0000000 0.755582284 1 
465 464 484 490 1 0.0000000 0 3 
464 466 467 468 1 0.0000000 1.15855952621 3 
464 484 486 487 1 0.0000000 0.470140055718 3 
463 461 464 465 1 0.0000000 0.470140055718 3 
463 461 464 466 1 0.0000000 0.755582284 1 
463 461 464 466 1 0.0000000 0 3 
463 461 464 484 1 0.0000000 0.470140055718 3 
462 461 464 465 1 0.0000000 0.470140055718 3 
462 461 464 466 1 0.0000000 0.755582284 1 
462 461 464 466 1 0.0000000 0 3 
462 461 464 484 1 0.0000000 0.470140055718 3 
461 464 484 485 1 0.0000000 0.470140055718 3 
460 461 464 465 1 0.0000000 0.755582284 1 
460 461 464 465 1 0.0000000 0 3 
457 460 461 462 1 0.0000000 1.15855952621 3 
457 460 461 463 1 0.0000000 1.15855952621 3 
517 516 514 520 1 0.0000000 0.755582284 1 
517 516 514 520 1 0.0000000 0 3 
517 516 518 519 1 0.0000000 0.503721498588 3 
515 514 516 517 1 0.0000000 0.470140055718 3 
515 514 516 518 1 0.0000000 0.755582284 1 
515 514 516 518 1 0.0000000 0 3 
515 514 520 521 1 0.0000000 1.15855952621 3 
514 516 518 519 1 0.0000000 0.755582284 1 
514 516 518 519 1 0.0000000 0.48357266176 3 
511 510 512 513 1 180.0000771 4.0801443336 2 
509 508 510 511 1 180.0000771 4.0801443336 2 
507 506 508 509 1 180.0000771 6.5735658708 2 
507 506 508 510 1 180.0000771 6.5735658708 2 
506 508 510 511 1 180.0000771 4.0801443336 2 
505 504 503 512 1 180.0000771 5.5913089016 2 
505 504 506 507 1 180.0000771 20.0984887544 2 
505 504 506 508 1 180.0000771 20.0984887544 2 
503 501 516 517 1 0.0000000 0.470140055718 3 
503 504 506 507 1 180.0000771 20.0984887544 2 
503 512 510 511 1 180.0000771 4.0801443336 2 
502 501 503 504 1 0.0000000 0 2 
502 501 503 512 1 0.0000000 0 2 
502 501 516 514 1 0.0000000 0.470140055718 3 
502 501 516 517 1 0.0000000 0.470140055718 3 
502 501 516 518 1 0.0000000 0.470140055718 3 
501 503 504 505 1 180.0000771 5.5913089016 2 
501 516 514 515 1 0.0000000 0.470140055718 3 
501 516 518 519 1 0.0000000 0.755582284 1 
501 516 518 519 1 0.0000000 0.48357266176 3 
500 498 514 515 1 0.0000000 0.755582284 1 
500 498 514 515 1 0.0000000 0 3 
500 501 516 517 1 0.0000000 0.755582284 1 
500 501 516 517 1 0.0000000 0 3 
499 498 500 501 1 0.0000000 1.15855952621 3 
499 498 514 515 1 0.0000000 0.470140055718 3 
499 498 514 516 1 0.0000000 0.470140055718 3 
499 498 514 520 1 0.0000000 0.755582284 1 
499 498 514 520 1 0.0000000 0 3 
498 500 501 502 1 0.0000000 1.15855952621 3 
498 514 516 517 1 0.0000000 0.470140055718 3 
497 495 498 499 1 0.0000000 0.470140055718 3 
497 495 498 500 1 0.0000000 0.755582284 1 
497 495 498 500 1 0.0000000 0 3 
497 495 498 514 1 0.0000000 0.470140055718 3 
496 495 498 499 1 0.0000000 0.470140055718 3 
496 495 498 500 1 0.0000000 0.755582284 1 
496 495 498 500 1 0.0000000 0 3 
496 495 498 514 1 0.0000000 0.470140055718 3 
495 498 514 515 1 0.0000000 0.470140055718 3 
494 495 498 499 1 0.0000000 0.755582284 1 
494 495 498 499 1 0.0000000 0 3 
491 494 495 496 1 0.0000000 1.15855952621 3 
491 494 495 497 1 0.0000000 1.15855952621 3 
547 546 544 550 1 0.0000000 0.755582284 1 
547 546 544 550 1 0.0000000 0 3 
547 546 548 549 1 0.0000000 0.503721498588 3 
545 544 546 547 1 0.0000000 0.470140055718 3 
545 544 546 548 1 0.0000000 0.755582284 1 
545 544 546 548 1 0.0000000 0 3 
545 544 550 551 1 0.0000000 1.15855952621 3 
544 546 548 549 1 0.0000000 0.755582284 1 
544 546 548 549 1 0.0000000 0.48357266176 3 
541 540 542 543 1 180.0000771 4.0801443336 2 
539 538 540 541 1 180.0000771 4.0801443336 2 
537 536 538 539 1 180.0000771 6.5735658708 2 
537 536 538 540 1 180.0000771 6.5735658708 2 
536 538 540 541 1 180.0000771 4.0801443336 2 
535 534 533 542 1 180.0000771 5.5913089016 2 
535 534 536 537 1 180.0000771 20.0984887544 2 
535 534 536 538 1 180.0000771 20.0984887544 2 
533 531 546 547 1 0.0000000 0.470140055718 3 
533 534 536 537 1 180.0000771 20.0984887544 2 
533 542 540 541 1 180.0000771 4.0801443336 2 
532 531 533 534 1 0.0000000 0 2 
532 531 533 542 1 0.0000000 0 2 
532 531 546 544 1 0.0000000 0.470140055718 3 
532 531 546 547 1 0.0000000 0.470140055718 3 
532 531 546 548 1 0.0000000 0.470140055718 3 
531 533 534 535 1 180.0000771 5.5913089016 2 
531 546 544 545 1 0.0000000 0.470140055718 3 
531 546 548 549 1 0.0000000 0.755582284 1 
531 546 548 549 1 0.0000000 0.48357266176 3 
530 528 544 545 1 0.0000000 0.755582284 1 
530 528 544 545 1 0.0000000 0 3 
530 531 546 547 1 0.0000000 0.755582284 1 
530 531 546 547 1 0.0000000 0 3 
529 528 530 531 1 0.0000000 1.15855952621 3 
529 528 544 545 1 0.0000000 0.470140055718 3 
529 528 544 546 1 0.0000000 0.470140055718 3 
529 528 544 550 1 0.0000000 0.755582284 1 
529 528 544 550 1 0.0000000 0 3 
528 530 531 532 1 0.0000000 1.15855952621 3 
528 544 546 547 1 0.0000000 0.470140055718 3 
527 525 528 529 1 0.0000000 0.470140055718 3 
527 525 528 530 1 0.0000000 0.755582284 1 
527 525 528 530 1 0.0000000 0 3 
527 525 528 544 1 0.0000000 0.470140055718 3 
526 525 528 529 1 0.0000000 0.470140055718 3 
526 525 528 530 1 0.0000000 0.755582284 1 
526 525 528 530 1 0.0000000 0 3 
526 525 528 544 1 0.0000000 0.470140055718 3 
525 528 544 545 1 0.0000000 0.470140055718 3 
524 525 528 529 1 0.0000000 0.755582284 1 
524 525 528 529 1 0.0000000 0 3 
521 524 525 526 1 0.0000000 1.15855952621 3 
521 524 525 527 1 0.0000000 1.15855952621 3 
580 579 577 583 1 0.0000000 0.755582284 1 
580 579 577 583 1 0.0000000 0 3 
580 579 581 582 1 0.0000000 0.503721498588 3 
578 577 579 580 1 0.0000000 0.470140055718 3 
578 577 579 581 1 0.0000000 0.755582284 1 
578 577 579 581 1 0.0000000 0 3 
578 577 583 584 1 0.0000000 1.15855952621 3 
577 579 581 582 1 0.0000000 0.755582284 1 
577 579 581 582 1 0.0000000 0.48357266176 3 
574 573 575 576 1 180.0000771 20.5518381248 2 
571 569 568 572 1 180.0000771 7.2535899264 2 
570 569 568 572 1 180.0000771 7.2535899264 2 
568 572 573 574 1 180.0000771 20.5518381248 2 
567 568 569 570 1 180.0000771 7.2535899264 2 
567 568 569 571 1 180.0000771 7.2535899264 2 
565 564 563 576 1 180.0000771 5.1379595312 2 
565 564 566 567 1 180.0000771 30.22329136 2 
563 561 579 580 1 0.0000000 0.470140055718 3 
562 561 563 564 1 0.0000000 0 2 
562 561 563 576 1 0.0000000 0 2 
562 561 579 577 1 0.0000000 0.470140055718 3 
562 561 579 580 1 0.0000000 0.470140055718 3 
562 561 579 581 1 0.0000000 0.470140055718 3 
561 563 564 565 1 180.0000771 5.1379595312 2 
561 579 577 578 1 0.0000000 0.470140055718 3 
561 579 581 582 1 0.0000000 0.755582284 1 
561 579 581 582 1 0.0000000 0.48357266176 3 
560 558 577 578 1 0.0000000 0.755582284 1 
560 558 577 578 1 0.0000000 0 3 
560 561 579 580 1 0.0000000 0.755582284 1 
560 561 579 580 1 0.0000000 0 3 
559 558 560 561 1 0.0000000 1.15855952621 3 
559 558 577 578 1 0.0000000 0.470140055718 3 
559 558 577 579 1 0.0000000 0.470140055718 3 
559 558 577 583 1 0.0000000 0.755582284 1 
559 558 577 583 1 0.0000000 0 3 
558 560 561 562 1 0.0000000 1.15855952621 3 
558 577 579 580 1 0.0000000 0.470140055718 3 
557 555 558 559 1 0.0000000 0.470140055718 3 
557 555 558 560 1 0.0000000 0.755582284 1 
557 555 558 560 1 0.0000000 0 3 
557 555 558 577 1 0.0000000 0.470140055718 3 
556 555 558 559 1 0.0000000 0.470140055718 3 
556 555 558 560 1 0.0000000 0.755582284 1 
556 555 558 560 1 0.0000000 0 3 
556 555 558 577 1 0.0000000 0.470140055718 3 
555 558 577 578 1 0.0000000 0.470140055718 3 
554 555 558 559 1 0.0000000 0.755582284 1 
554 555 558 559 1 0.0000000 0 3 
551 554 555 556 1 0.0000000 1.15855952621 3 
551 554 555 557 1 0.0000000 1.15855952621 3 
614 613 611 617 1 0.0000000 0.755582284 1 
614 613 611 617 1 0.0000000 0 3 
614 613 615 616 1 0.0000000 0.503721498588 3 
612 611 613 614 1 0.0000000 0.470140055718 3 
612 611 613 615 1 0.0000000 0.755582284 1 
612 611 613 615 1 0.0000000 0 3 
612 611 617 618 1 0.0000000 1.15855952621 3 
611 613 615 616 1 0.0000000 0.755582284 1 
611 613 615 616 1 0.0000000 0.48357266176 3 
608 606 605 609 1 180.0000771 7.2535899264 2 
607 606 605 609 1 180.0000771 7.2535899264 2 
604 603 605 606 1 180.0000771 4.533493704 2 
604 603 605 609 1 180.0000771 4.533493704 2 
603 605 606 607 1 180.0000771 7.2535899264 2 
603 605 606 608 1 180.0000771 7.2535899264 2 
602 601 603 604 1 180.0000771 4.0801443336 2 
600 601 603 604 1 180.0000771 4.0801443336 2 
598 597 596 610 1 180.0000771 5.1379595312 2 
598 597 599 600 1 180.0000771 30.22329136 2 
596 594 613 614 1 0.0000000 0.470140055718 3 
595 594 596 597 1 0.0000000 0 2 
595 594 596 610 1 0.0000000 0 2 
595 594 613 611 1 0.0000000 0.470140055718 3 
595 594 613 614 1 0.0000000 0.470140055718 3 
595 594 613 615 1 0.0000000 0.470140055718 3 
594 596 597 598 1 180.0000771 5.1379595312 2 
594 613 611 612 1 0.0000000 0.470140055718 3 
594 613 615 616 1 0.0000000 0.755582284 1 
594 613 615 616 1 0.0000000 0.48357266176 3 
593 591 611 612 1 0.0000000 0.755582284 1 
593 591 611 612 1 0.0000000 0 3 
593 594 613 614 1 0.0000000 0.755582284 1 
593 594 613 614 1 0.0000000 0 3 
592 591 593 594 1 0.0000000 1.15855952621 3 
592 591 611 612 1 0.0000000 0.470140055718 3 
592 591 611 613 1 0.0000000 0.470140055718 3 
592 591 611 617 1 0.0000000 0.755582284 1 
592 591 611 617 1 0.0000000 0 3 
591 593 594 595 1 0.0000000 1.15855952621 3 
591 611 613 614 1 0.0000000 0.470140055718 3 
590 588 591 592 1 0.0000000 0.470140055718 3 
590 588 591 593 1 0.0000000 0.755582284 1 
590 588 591 593 1 0.0000000 0 3 
590 588 591 611 1 0.0000000 0.470140055718 3 
589 588 591 592 1 0.0000000 0.470140055718 3 
589 588 591 593 1 0.0000000 0.755582284 1 
589 588 591 593 1 0.0000000 0 3 
589 588 591 611 1 0.0000000 0.470140055718 3 
588 591 611 612 1 0.0000000 0.470140055718 3 
587 588 591 592 1 0.0000000 0.755582284 1 
587 588 591 592 1 0.0000000 0 3 
584 587 588 589 1 0.0000000 1.15855952621 3 
584 587 588 590 1 0.0000000 1.15855952621 3 
648 647 645 651 1 0.0000000 0.755582284 1 
648 647 645 651 1 0.0000000 0 3 
648 647 649 650 1 0.0000000 0.503721498588 3 
646 645 647 648 1 0.0000000 0.470140055718 3 
646 645 647 649 1 0.0000000 0.755582284 1 
646 645 647 649 1 0.0000000 0 3 
646 645 651 652 1 0.0000000 1.15855952621 3 
645 647 649 650 1 0.0000000 0.755582284 1 
645 647 649 650 1 0.0000000 0.48357266176 3 
642 640 639 643 1 180.0000771 7.2535899264 2 
641 640 639 643 1 180.0000771 7.2535899264 2 
638 637 639 640 1 180.0000771 4.533493704 2 
638 637 639 643 1 180.0000771 4.533493704 2 
637 639 640 641 1 180.0000771 7.2535899264 2 
637 639 640 642 1 180.0000771 7.2535899264 2 
636 635 637 638 1 180.0000771 4.0801443336 2 
634 635 637 638 1 180.0000771 4.0801443336 2 
632 631 630 644 1 180.0000771 5.1379595312 2 
632 631 633 634 1 180.0000771 30.22329136 2 
630 628 647 648 1 0.0000000 0.470140055718 3 
629 628 630 631 1 0.0000000 0 2 
629 628 630 644 1 0.0000000 0 2 
629 628 647 645 1 0.0000000 0.470140055718 3 
629 628 647 648 1 0.0000000 0.470140055718 3 
629 628 647 649 1 0.0000000 0.470140055718 3 
628 630 631 632 1 180.0000771 5.1379595312 2 
628 647 645 646 1 0.0000000 0.470140055718 3 
628 647 649 650 1 0.0000000 0.755582284 1 
628 647 649 650 1 0.0000000 0.48357266176 3 
627 625 645 646 1 0.0000000 0.755582284 1 
627 625 645 646 1 0.0000000 0 3 
627 628 647 648 1 0.0000000 0.755582284 1 
627 628 647 648 1 0.0000000 0 3 
626 625 627 628 1 0.0000000 1.15855952621 3 
626 625 645 646 1 0.0000000 0.470140055718 3 
626 625 645 647 1 0.0000000 0.470140055718 3 
626 625 645 651 1 0.0000000 0.755582284 1 
626 625 645 651 1 0.0000000 0 3 
625 627 628 629 1 0.0000000 1.15855952621 3 
625 645 647 648 1 0.0000000 0.470140055718 3 
624 622 625 626 1 0.0000000 0.470140055718 3 
624 622 625 627 1 0.0000000 0.755582284 1 
624 622 625 627 1 0.0000000 0 3 
624 622 625 645 1 0.0000000 0.470140055718 3 
623 622 625 626 1 0.0000000 0.470140055718 3 
623 622 625 627 1 0.0000000 0.755582284 1 
623 622 625 627 1 0.0000000 0 3 
623 622 625 645 1 0.0000000 0.470140055718 3 
622 625 645 646 1 0.0000000 0.470140055718 3 
621 622 625 626 1 0.0000000 0.755582284 1 
621 622 625 626 1 0.0000000 0 3 
618 621 622 623 1 0.0000000 1.15855952621 3 
618 621 622 624 1 0.0000000 1.15855952621 3 
682 681 679 685 1 0.0000000 0.755582284 1 
682 681 679 685 1 0.0000000 0 3 
682 681 683 684 1 0.0000000 0.503721498588 3 
681 679 685 686 1 0.0000000 0.755582284 1 
681 679 685 686 1 0.0000000 0.48357266176 3 
680 679 681 682 1 0.0000000 0.470140055718 3 
680 679 681 683 1 0.0000000 0.755582284 1 
680 679 681 683 1 0.0000000 0 3 
680 679 685 686 1 0.0000000 0.503721498588 3 
679 681 683 684 1 0.0000000 0.755582284 1 
679 681 683 684 1 0.0000000 0.48357266176 3 
676 674 673 677 1 180.0000771 7.2535899264 2 
675 674 673 677 1 180.0000771 7.2535899264 2 
672 671 673 674 1 180.0000771 4.533493704 2 
672 671 673 677 1 180.0000771 4.533493704 2 
671 673 674 675 1 180.0000771 7.2535899264 2 
671 673 674 676 1 180.0000771 7.2535899264 2 
670 669 671 672 1 180.0000771 4.0801443336 2 
668 669 671 672 1 180.0000771 4.0801443336 2 
666 665 664 678 1 180.0000771 5.1379595312 2 
666 665 667 668 1 180.0000771 30.22329136 2 
664 662 681 682 1 0.0000000 0.470140055718 3 
663 662 664 665 1 0.0000000 0 2 
663 662 664 678 1 0.0000000 0 2 
663 662 681 679 1 0.0000000 0.470140055718 3 
663 662 681 682 1 0.0000000 0.470140055718 3 
663 662 681 683 1 0.0000000 0.470140055718 3 
662 664 665 666 1 180.0000771 5.1379595312 2 
662 681 679 680 1 0.0000000 0.470140055718 3 
662 681 683 684 1 0.0000000 0.755582284 1 
662 681 683 684 1 0.0000000 0.48357266176 3 
661 659 679 680 1 0.0000000 0.755582284 1 
661 659 679 680 1 0.0000000 0 3 
661 662 681 682 1 0.0000000 0.755582284 1 
661 662 681 682 1 0.0000000 0 3 
660 659 661 662 1 0.0000000 1.15855952621 3 
660 659 679 680 1 0.0000000 0.470140055718 3 
660 659 679 681 1 0.0000000 0.470140055718 3 
660 659 679 685 1 0.0000000 0.755582284 1 
660 659 679 685 1 0.0000000 0 3 
659 661 662 663 1 0.0000000 1.15855952621 3 
659 679 681 682 1 0.0000000 0.470140055718 3 
659 679 685 686 1 0.0000000 0.755582284 1 
659 679 685 686 1 0.0000000 0.48357266176 3 
658 656 659 660 1 0.0000000 0.470140055718 3 
658 656 659 661 1 0.0000000 0.755582284 1 
658 656 659 661 1 0.0000000 0 3 
658 656 659 679 1 0.0000000 0.470140055718 3 
657 656 659 660 1 0.0000000 0.470140055718 3 
657 656 659 661 1 0.0000000 0.755582284 1 
657 656 659 661 1 0.0000000 0 3 
657 656 659 679 1 0.0000000 0.470140055718 3 
656 659 679 680 1 0.0000000 0.470140055718 3 
655 656 659 660 1 0.0000000 0.755582284 1 
655 656 659 660 1 0.0000000 0 3 
652 655 656 657 1 0.0000000 1.15855952621 3 
652 655 656 658 1 0.0000000 1.15855952621 3 
20 22 21 23 4 180.0000771 3.022329136 2 
16 20 18 19 4 180.0000771 3.022329136 2 
11 14 12 13 4 180.0000771 3.3245620496 2 
54 56 55 57 4 180.0000771 3.022329136 2 
50 54 52 53 4 180.0000771 3.022329136 2 
45 48 46 47 4 180.0000771 3.3245620496 2 
88 90 89 91 4 180.0000771 3.022329136 2 
84 88 86 87 4 180.0000771 3.022329136 2 
79 82 80 81 4 180.0000771 3.3245620496 2 
118 122 120 121 4 180.0000771 3.022329136 2 
114 118 116 117 4 180.0000771 3.3245620496 2 
113 116 114 115 4 180.0000771 3.3245620496 2 
148 152 150 151 4 180.0000771 3.022329136 2 
144 148 146 147 4 180.0000771 3.3245620496 2 
143 146 144 145 4 180.0000771 3.3245620496 2 
182 185 183 184 4 180.0000771 3.3245620496 2 
178 180 179 181 4 180.0000771 3.022329136 2 
173 176 174 175 4 180.0000771 3.3245620496 2 
215 217 216 218 4 180.0000771 3.022329136 2 
211 215 213 214 4 180.0000771 3.022329136 2 
206 209 207 208 4 180.0000771 3.3245620496 2 
249 251 250 252 4 180.0000771 3.022329136 2 
245 249 247 248 4 180.0000771 3.022329136 2 
240 243 241 242 4 180.0000771 3.3245620496 2 
283 285 284 286 4 180.0000771 3.022329136 2 
279 283 281 282 4 180.0000771 3.022329136 2 
274 277 275 276 4 180.0000771 3.3245620496 2 
313 317 315 316 4 180.0000771 3.022329136 2 
309 313 311 312 4 180.0000771 3.3245620496 2 
308 311 309 310 4 180.0000771 3.3245620496 2 
343 347 345 346 4 180.0000771 3.022329136 2 
339 343 341 342 4 180.0000771 3.3245620496 2 
338 341 339 340 4 180.0000771 3.3245620496 2 
377 380 378 379 4 180.0000771 3.3245620496 2 
373 375 374 376 4 180.0000771 3.022329136 2 
368 371 369 370 4 180.0000771 3.3245620496 2 
410 412 411 413 4 180.0000771 3.022329136 2 
406 410 408 409 4 180.0000771 3.022329136 2 
401 404 402 403 4 180.0000771 3.3245620496 2 
444 446 445 447 4 180.0000771 3.022329136 2 
440 444 442 443 4 180.0000771 3.022329136 2 
435 438 436 437 4 180.0000771 3.3245620496 2 
478 480 479 481 4 180.0000771 3.022329136 2 
474 478 476 477 4 180.0000771 3.022329136 2 
469 472 470 471 4 180.0000771 3.3245620496 2 
508 512 510 511 4 180.0000771 3.022329136 2 
504 508 506 507 4 180.0000771 3.3245620496 2 
503 506 504 505 4 180.0000771 3.3245620496 2 
538 542 540 541 4 180.0000771 3.022329136 2 
534 538 536 537 4 180.0000771 3.3245620496 2 
533 536 534 535 4 180.0000771 3.3245620496 2 
572 575 573 574 4 180.0000771 3.3245620496 2 
568 570 569 571 4 180.0000771 3.022329136 2 
563 566 564 565 4 180.0000771 3.3245620496 2 
605 607 606 608 4 180.0000771 3.022329136 2 
601 605 603 604 4 180.0000771 3.022329136 2 
596 599 597 598 4 180.0000771 3.3245620496 2 
639 641 640 642 4 180.0000771 3.022329136 2 
635 639 637 638 4 180.0000771 3.022329136 2 
630 633 631 632 4 180.0000771 3.3245620496 2 
673 675 674 676 4 180.0000771 3.022329136 2 
669 673 671 672 4 180.0000771 3.022329136 2 
664 667 665 666 4 180.0000771 3.3245620496 2 


[ moleculetype ] 
; Name            nrexcl
Cl-          3 

[ atoms ] 
;   nr       type  resnr residue  atom   cgnr    charge       mass  typeB    chargeB      massB
; residue    1 Cl- rtp Cl- q -1.0
    1        Cl-      1    Cl-    Cl-      1 -1.00000000  35.450000   


[ moleculetype ] 
; Name            nrexcl
K+          3 

[ atoms ] 
;   nr       type  resnr residue  atom   cgnr    charge       mass  typeB    chargeB      massB
; residue    1 K+ rtp K+ q 1.0
    1         K+      1     K+     K+      1 1.00000000  39.100000   


[ moleculetype ] 
; Name            nrexcl
WAT          3 

[ atoms ] 
;   nr       type  resnr residue  atom   cgnr    charge       mass  typeB    chargeB      massB
; residue    1 WAT rtp WAT q -0.0
    1         OW      1    WAT      O      1 -0.84760000  16.000000   
    2         HW      1    WAT     H1      2 0.42380000   1.008000   
    3         HW      1    WAT     H2      3 0.42380000   1.008000   


[ settles ] 
; i     funct   doh     dhh
1     1   0.10000000   0.16330000 


[ exclusions ] 
1  2  3 
2  1  3 
3  1  2 

[ system ] 
; Name
Generic title 

[ molecules ] 
; Compound       #mols
system1              1 
Cl-                 85 
K+                 105 
WAT              31688 
