GROningen MAchine for Chemical Simulation
95940
    1G5    HO5'    1   3.756   5.435   6.236
    1G5     O5'    2   3.806   5.501   6.188
    1G5     C5'    3   3.771   5.500   6.046
    1G5     H5'    4   3.817   5.417   5.993
    1G5    H5''    5   3.813   5.592   6.004
    1G5     C4'    6   3.620   5.484   6.018
    1G5     H4'    7   3.592   5.381   6.038
    1G5     O4'    8   3.543   5.584   6.098
    1G5     C1'    9   3.448   5.641   6.013
    1G5     H1'   10   3.351   5.659   6.059
    1G5      N9   11   3.496   5.772   5.977
    1G5      C8   12   3.609   5.848   6.014
    1G5      H8   13   3.676   5.815   6.092
    1G5      N7   14   3.619   5.967   5.971
    1G5      C5   15   3.501   5.978   5.892
    1G5      C6   16   3.442   6.092   5.832
    1G5      O6   17   3.492   6.202   5.821
    1G5      N1   18   3.313   6.076   5.789
    1G5      H1   19   3.263   6.155   5.750
    1G5      C2   20   3.258   5.950   5.784
    1G5      N2   21   3.138   5.931   5.735
    1G5     H21   22   3.078   6.008   5.710
    1G5     H22   23   3.106   5.838   5.715
    1G5      N3   24   3.302   5.846   5.839
    1G5      C4   25   3.425   5.863   5.900
    1G5     C3'   26   3.575   5.509   5.874
    1G5     H3'   27   3.631   5.595   5.836
    1G5     C2'   28   3.426   5.551   5.893
    1G5     H2'   29   3.399   5.606   5.803
    1G5     O2'   30   3.333   5.444   5.915
    1G5    HO2'   31   3.380   5.362   5.929
    1G5     O3'   32   3.584   5.401   5.786
    2G        P   33   3.635   5.419   5.638
    2G      OP1   34   3.642   5.285   5.573
    2G      OP2   35   3.756   5.497   5.650
    2G      O5'   36   3.530   5.508   5.552
    2G      C5'   37   3.400   5.468   5.515
    2G      H5'   38   3.342   5.452   5.606
    2G     H5''   39   3.404   5.374   5.461
    2G      C4'   40   3.320   5.557   5.425
    2G      H4'   41   3.238   5.501   5.381
    2G      O4'   42   3.267   5.669   5.503
    2G      C1'   43   3.282   5.792   5.428
    2G      H1'   44   3.188   5.847   5.434
    2G       N9   45   3.374   5.882   5.481
    2G       C8   46   3.475   5.854   5.570
    2G       H8   47   3.491   5.755   5.612
    2G       N7   48   3.557   5.953   5.601
    2G       C5   49   3.504   6.056   5.523
    2G       C6   50   3.548   6.191   5.512
    2G       O6   51   3.641   6.246   5.562
    2G       N1   52   3.474   6.268   5.423
    2G       H1   53   3.508   6.360   5.398
    2G       C2   54   3.375   6.215   5.346
    2G       N2   55   3.324   6.297   5.260
    2G      H21   56   3.339   6.396   5.257
    2G      H22   57   3.242   6.262   5.210
    2G       N3   58   3.323   6.093   5.366
    2G       C4   59   3.396   6.012   5.448
    2G      C3'   60   3.412   5.616   5.323
    2G      H3'   61   3.504   5.660   5.362
    2G      C2'   62   3.327   5.737   5.285
    2G      H2'   63   3.393   5.815   5.246
    2G      O2'   64   3.219   5.710   5.196
    2G     HO2'   65   3.216   5.776   5.127
    2G      O3'   66   3.447   5.525   5.225
    3G        P   67   3.584   5.536   5.139
    3G      OP1   68   3.586   5.423   5.052
    3G      OP2   69   3.691   5.552   5.240
    3G      O5'   70   3.573   5.675   5.060
    3G      C5'   71   3.481   5.694   4.954
    3G      H5'   72   3.385   5.648   4.976
    3G     H5''   73   3.520   5.653   4.861
    3G      C4'   74   3.472   5.849   4.930
    3G      H4'   75   3.385   5.865   4.866
    3G      O4'   76   3.440   5.939   5.042
    3G      C1'   77   3.511   6.061   5.022
    3G      H1'   78   3.445   6.142   5.053
    3G       N9   79   3.620   6.063   5.122
    3G       C8   80   3.656   5.967   5.213
    3G       H8   81   3.605   5.872   5.218
    3G       N7   82   3.736   6.005   5.306
    3G       C5   83   3.780   6.132   5.263
    3G       C6   84   3.857   6.235   5.328
    3G       O6   85   3.930   6.230   5.429
    3G       N1   86   3.864   6.350   5.258
    3G       H1   87   3.921   6.425   5.296
    3G       C2   88   3.784   6.379   5.151
    3G       N2   89   3.801   6.500   5.107
    3G      H21   90   3.873   6.558   5.149
    3G      H22   91   3.731   6.543   5.048
    3G       N3   92   3.707   6.287   5.087
    3G       C4   93   3.701   6.171   5.157
    3G      C3'   94   3.585   5.916   4.854
    3G      H3'   95   3.671   5.889   4.915
    3G      C2'   96   3.557   6.068   4.874
    3G      H2'   97   3.652   6.122   4.871
    3G      O2'   98   3.463   6.116   4.784
    3G     HO2'   99   3.489   6.078   4.699
    3G      O3'  100   3.604   5.879   4.722
    4U        P  101   3.748   5.848   4.665
    4U      OP1  102   3.735   5.847   4.514
    4U      OP2  103   3.788   5.730   4.738
    4U      O5'  104   3.843   5.964   4.710
    4U      C5'  105   3.831   6.100   4.659
    4U      H5'  106   3.734   6.143   4.680
    4U     H5''  107   3.848   6.099   4.552
    4U      C4'  108   3.933   6.193   4.727
    4U      H4'  109   3.932   6.292   4.680
    4U      O4'  110   3.910   6.212   4.867
    4U      C1'  111   4.032   6.218   4.942
    4U      H1'  112   4.044   6.312   4.995
    4U       N1  113   4.039   6.106   5.041
    4U       C6  114   3.978   5.983   5.018
    4U       H6  115   3.950   5.952   4.918
    4U       C5  116   3.971   5.888   5.119
    4U       H5  117   3.923   5.793   5.102
    4U       C4  118   4.016   5.917   5.249
    4U       O4  119   4.011   5.836   5.343
    4U       N3  120   4.084   6.036   5.258
    4U       H3  121   4.120   6.055   5.350
    4U       C2  122   4.107   6.130   5.165
    4U       O2  123   4.170   6.230   5.202
    4U      C3'  124   4.080   6.140   4.721
    4U      H3'  125   4.082   6.034   4.749
    4U      C2'  126   4.148   6.213   4.834
    4U      H2'  127   4.235   6.155   4.864
    4U      O2'  128   4.193   6.339   4.786
    4U     HO2'  129   4.206   6.329   4.691
    4U      O3'  130   4.156   6.149   4.600
    5U        P  131   4.269   6.040   4.568
    5U      OP1  132   4.344   6.072   4.440
    5U      OP2  133   4.224   5.900   4.579
    5U      O5'  134   4.370   6.057   4.694
    5U      C5'  135   4.466   6.159   4.709
    5U      H5'  136   4.413   6.254   4.714
    5U     H5''  137   4.533   6.166   4.622
    5U      C4'  138   4.539   6.150   4.839
    5U      H4'  139   4.602   6.239   4.843
    5U      O4'  140   4.449   6.136   4.950
    5U      C1'  141   4.514   6.063   5.057
    5U      H1'  142   4.537   6.142   5.129
    5U       N1  143   4.417   5.963   5.112
    5U       C6  144   4.329   5.893   5.032
    5U       H6  145   4.308   5.929   4.932
    5U       C5  146   4.276   5.778   5.078
    5U       H5  147   4.232   5.708   5.008
    5U       C4  148   4.289   5.730   5.212
    5U       O4  149   4.250   5.625   5.256
    5U       N3  150   4.343   5.824   5.291
    5U       H3  151   4.350   5.811   5.391
    5U       C2  152   4.414   5.933   5.247
    5U       O2  153   4.460   6.006   5.327
    5U      C3'  154   4.619   6.025   4.845
    5U      H3'  155   4.553   5.948   4.807
    5U      C2'  156   4.645   6.012   4.998
    5U      H2'  157   4.673   5.912   5.028
    5U      O2'  158   4.737   6.095   5.063
    5U     HO2'  159   4.779   6.144   4.992
    5U      O3'  160   4.743   6.030   4.786
    6A        P  161   4.787   5.897   4.724
    6A      OP1  162   4.919   5.917   4.659
    6A      OP2  163   4.679   5.850   4.639
    6A      O5'  164   4.813   5.793   4.833
    6A      C5'  165   4.919   5.796   4.927
    6A      H5'  166   4.905   5.894   4.974
    6A     H5''  167   5.016   5.796   4.877
    6A      C4'  168   4.902   5.681   5.025
    6A      H4'  169   4.990   5.701   5.086
    6A      O4'  170   4.775   5.688   5.087
    6A      C1'  171   4.736   5.554   5.121
    6A      H1'  172   4.730   5.539   5.229
    6A       N9  173   4.604   5.522   5.052
    6A       C8  174   4.537   5.599   4.964
    6A       H8  175   4.578   5.690   4.921
    6A       N7  176   4.430   5.537   4.911
    6A       C5  177   4.427   5.412   4.974
    6A       C6  178   4.331   5.305   4.982
    6A       N6  179   4.224   5.300   4.906
    6A      H61  180   4.167   5.218   4.920
    6A      H62  181   4.196   5.379   4.849
    6A       N1  182   4.363   5.195   5.050
    6A       C2  183   4.471   5.191   5.131
    6A       H2  184   4.497   5.101   5.186
    6A       N3  185   4.561   5.285   5.144
    6A       C4  186   4.531   5.400   5.065
    6A      C3'  187   4.901   5.548   4.960
    6A      H3'  188   4.826   5.552   4.882
    6A      C2'  189   4.841   5.458   5.070
    6A      H2'  190   4.801   5.365   5.030
    6A      O2'  191   4.928   5.425   5.178
    6A     HO2'  192   5.018   5.424   5.145
    6A      O3'  193   5.021   5.516   4.901
    7G        P  194   5.035   5.442   4.763
    7G      OP1  195   5.179   5.438   4.729
    7G      OP2  196   4.943   5.487   4.653
    7G      O5'  197   4.999   5.298   4.800
    7G      C5'  198   5.084   5.225   4.895
    7G      H5'  199   5.101   5.282   4.986
    7G     H5''  200   5.183   5.198   4.857
    7G      C4'  201   5.000   5.097   4.927
    7G      H4'  202   5.060   5.033   4.992
    7G      O4'  203   4.869   5.128   4.986
    7G      C1'  204   4.762   5.053   4.936
    7G      H1'  205   4.697   5.008   5.011
    7G       N9  206   4.671   5.125   4.847
    7G       C8  207   4.689   5.248   4.792
    7G       H8  208   4.777   5.307   4.809
    7G       N7  209   4.588   5.289   4.719
    7G       C5  210   4.497   5.183   4.725
    7G       C6  211   4.369   5.166   4.665
    7G       O6  212   4.310   5.241   4.588
    7G       N1  213   4.311   5.049   4.702
    7G       H1  214   4.214   5.042   4.675
    7G       C2  215   4.374   4.949   4.767
    7G       N2  216   4.326   4.828   4.756
    7G      H21  217   4.242   4.823   4.701
    7G      H22  218   4.376   4.749   4.794
    7G       N3  219   4.488   4.960   4.834
    7G       C4  220   4.545   5.085   4.808
    7G      C3'  221   4.964   5.005   4.806
    7G      H3'  222   4.953   5.063   4.715
    7G      C2'  223   4.833   4.948   4.858
    7G      H2'  224   4.767   4.916   4.778
    7G      O2'  225   4.873   4.835   4.942
    7G     HO2'  226   4.969   4.837   4.938
    7G      O3'  227   5.073   4.912   4.800
    8G        P  228   5.108   4.846   4.655
    8G      OP1  229   5.212   4.746   4.665
    8G      OP2  230   5.129   4.949   4.549
    8G      O5'  231   4.976   4.771   4.606
    8G      C5'  232   4.930   4.646   4.657
    8G      H5'  233   4.950   4.634   4.764
    8G     H5''  234   4.992   4.571   4.608
    8G      C4'  235   4.787   4.622   4.609
    8G      H4'  236   4.752   4.533   4.662
    8G      O4'  237   4.700   4.727   4.652
    8G      C1'  238   4.622   4.747   4.537
    8G      H1'  239   4.516   4.742   4.563
    8G       N9  240   4.643   4.883   4.477
    8G       C8  241   4.753   4.965   4.499
    8G       H8  242   4.847   4.942   4.548
    8G       N7  243   4.740   5.087   4.453
    8G       C5  244   4.610   5.088   4.403
    8G       C6  245   4.522   5.198   4.365
    8G       O6  246   4.551   5.316   4.371
    8G       N1  247   4.396   5.157   4.326
    8G       H1  248   4.341   5.225   4.276
    8G       C2  249   4.355   5.029   4.330
    8G       N2  250   4.245   4.997   4.267
    8G      H21  251   4.185   5.071   4.233
    8G      H22  252   4.214   4.901   4.264
    8G       N3  253   4.427   4.928   4.369
    8G       C4  254   4.554   4.962   4.414
    8G      C3'  255   4.785   4.592   4.459
    8G      H3'  256   4.867   4.651   4.417
    8G      C2'  257   4.652   4.649   4.419
    8G      H2'  258   4.651   4.693   4.320
    8G      O2'  259   4.542   4.551   4.437
    8G     HO2'  260   4.582   4.464   4.433
    8G      O3'  261   4.785   4.461   4.432
    9G        P  262   4.839   4.413   4.290
    9G      OP1  263   4.807   4.265   4.296
    9G      OP2  264   4.982   4.463   4.276
    9G      O5'  265   4.757   4.481   4.186
    9G      C5'  266   4.654   4.412   4.110
    9G      H5'  267   4.563   4.390   4.166
    9G     H5''  268   4.694   4.320   4.068
    9G      C4'  269   4.617   4.491   3.983
    9G      H4'  270   4.553   4.427   3.922
    9G      O4'  271   4.555   4.613   4.008
    9G      C1'  272   4.625   4.720   3.943
    9G      H1'  273   4.555   4.786   3.891
    9G       N9  274   4.699   4.808   4.035
    9G       C8  275   4.816   4.785   4.101
    9G       H8  276   4.854   4.684   4.105
    9G       N7  277   4.872   4.887   4.158
    9G       C5  278   4.777   4.992   4.121
    9G       C6  279   4.788   5.131   4.142
    9G       O6  280   4.873   5.193   4.201
    9G       N1  281   4.670   5.199   4.100
    9G       H1  282   4.674   5.299   4.109
    9G       C2  283   4.580   5.147   4.019
    9G       N2  284   4.479   5.224   3.996
    9G      H21  285   4.484   5.322   4.022
    9G      H22  286   4.393   5.176   3.974
    9G       N3  287   4.571   5.014   3.991
    9G       C4  288   4.675   4.941   4.050
    9G      C3'  289   4.742   4.520   3.902
    9G      H3'  290   4.831   4.532   3.964
    9G      C2'  291   4.707   4.652   3.833
    9G      H2'  292   4.796   4.712   3.811
    9G      O2'  293   4.631   4.638   3.717
    9G     HO2'  294   4.658   4.556   3.677
    9G      O3'  295   4.774   4.413   3.814
   10U        P  296   4.919   4.393   3.737
   10U      OP1  297   4.914   4.259   3.662
   10U      OP2  298   5.030   4.430   3.829
   10U      O5'  299   4.912   4.516   3.625
   10U      C5'  300   4.891   4.483   3.487
   10U      H5'  301   4.786   4.459   3.474
   10U     H5''  302   4.955   4.399   3.458
   10U      C4'  303   4.919   4.598   3.390
   10U      H4'  304   4.891   4.570   3.289
   10U      O4'  305   4.838   4.715   3.424
   10U      C1'  306   4.904   4.837   3.394
   10U      H1'  307   4.860   4.890   3.309
   10U       N1  308   4.899   4.924   3.518
   10U       C6  309   4.927   4.872   3.642
   10U       H6  310   4.957   4.770   3.660
   10U       C5  311   4.924   4.954   3.751
   10U       H5  312   4.943   4.919   3.852
   10U       C4  313   4.897   5.090   3.738
   10U       O4  314   4.913   5.168   3.835
   10U       N3  315   4.858   5.132   3.616
   10U       H3  316   4.839   5.231   3.603
   10U       C2  317   4.866   5.061   3.502
   10U       O2  318   4.843   5.112   3.389
   10U      C3'  319   5.062   4.655   3.401
   10U      H3'  320   5.093   4.656   3.506
   10U      C2'  321   5.043   4.799   3.350
   10U      H2'  322   5.126   4.856   3.392
   10U      O2'  323   5.060   4.794   3.213
   10U     HO2'  324   5.086   4.705   3.188
   10U      O3'  325   5.162   4.579   3.334
   11U        P  326   5.319   4.595   3.362
   11U      OP1  327   5.396   4.489   3.290
   11U      OP2  328   5.337   4.615   3.507
   11U      O5'  329   5.363   4.732   3.297
   11U      C5'  330   5.422   4.734   3.173
   11U      H5'  331   5.359   4.686   3.099
   11U     H5''  332   5.515   4.677   3.182
   11U      C4'  333   5.451   4.872   3.122
   11U      H4'  334   5.491   4.871   3.021
   11U      O4'  335   5.330   4.941   3.103
   11U      C1'  336   5.358   5.072   3.149
   11U      H1'  337   5.332   5.145   3.072
   11U       N1  338   5.287   5.108   3.271
   11U       C6  339   5.286   5.035   3.393
   11U       H6  340   5.319   4.933   3.387
   11U       C5  341   5.227   5.082   3.504
   11U       H5  342   5.220   5.024   3.596
   11U       C4  343   5.179   5.222   3.503
   11U       O4  344   5.159   5.293   3.601
   11U       N3  345   5.163   5.279   3.381
   11U       H3  346   5.145   5.378   3.371
   11U       C2  347   5.218   5.232   3.264
   11U       O2  348   5.204   5.294   3.162
   11U      C3'  349   5.550   4.953   3.211
   11U      H3'  350   5.539   4.931   3.317
   11U      C2'  351   5.507   5.089   3.162
   11U      H2'  352   5.533   5.161   3.240
   11U      O2'  353   5.558   5.128   3.034
   11U     HO2'  354   5.633   5.069   3.023
   11U      O3'  355   5.691   4.918   3.182
   12A        P  356   5.789   4.854   3.291
   12A      OP1  357   5.924   4.837   3.237
   12A      OP2  358   5.721   4.739   3.359
   12A      O5'  359   5.789   4.971   3.404
   12A      C5'  360   5.846   5.094   3.375
   12A      H5'  361   5.842   5.123   3.270
   12A     H5''  362   5.953   5.094   3.394
   12A      C4'  363   5.788   5.219   3.453
   12A      H4'  364   5.831   5.310   3.410
   12A      O4'  365   5.639   5.219   3.472
   12A      C1'  366   5.610   5.280   3.595
   12A      H1'  367   5.549   5.370   3.585
   12A       N9  368   5.527   5.187   3.670
   12A       C8  369   5.519   5.050   3.658
   12A       H8  370   5.587   4.996   3.593
   12A       N7  371   5.429   4.997   3.734
   12A       C5  372   5.376   5.115   3.800
   12A       C6  373   5.273   5.135   3.898
   12A       N6  374   5.180   5.043   3.934
   12A      H61  375   5.102   5.084   3.984
   12A      H62  376   5.176   4.952   3.890
   12A       N1  377   5.249   5.254   3.950
   12A       C2  378   5.329   5.355   3.912
   12A       H2  379   5.310   5.454   3.952
   12A       N3  380   5.430   5.355   3.824
   12A       C4  381   5.445   5.225   3.773
   12A      C3'  382   5.837   5.226   3.597
   12A      H3'  383   5.814   5.131   3.645
   12A      C2'  384   5.744   5.321   3.662
   12A      H2'  385   5.746   5.301   3.769
   12A      O2'  386   5.778   5.452   3.633
   12A     HO2'  387   5.871   5.465   3.652
   12A      O3'  388   5.977   5.262   3.608
   13G        P  389   6.073   5.199   3.724
   13G      OP1  390   6.211   5.216   3.684
   13G      OP2  391   6.034   5.053   3.727
   13G      O5'  392   6.045   5.270   3.866
   13G      C5'  393   6.059   5.414   3.871
   13G      H5'  394   6.029   5.465   3.780
   13G     H5''  395   6.159   5.441   3.903
   13G      C4'  396   5.969   5.466   3.980
   13G      H4'  397   5.987   5.572   3.997
   13G      O4'  398   5.830   5.439   3.955
   13G      C1'  399   5.769   5.406   4.080
   13G      H1'  400   5.681   5.466   4.101
   13G       N9  401   5.718   5.270   4.063
   13G       C8  402   5.771   5.166   3.991
   13G       H8  403   5.870   5.169   3.948
   13G       N7  404   5.697   5.056   3.990
   13G       C5  405   5.591   5.095   4.070
   13G       C6  406   5.479   5.018   4.114
   13G       O6  407   5.451   4.904   4.078
   13G       N1  408   5.394   5.081   4.201
   13G       H1  409   5.313   5.031   4.235
   13G       C2  410   5.409   5.213   4.235
   13G       N2  411   5.320   5.259   4.320
   13G      H21  412   5.240   5.203   4.348
   13G      H22  413   5.321   5.357   4.343
   13G       N3  414   5.511   5.288   4.201
   13G       C4  415   5.606   5.219   4.122
   13G      C3'  416   6.008   5.401   4.115
   13G      H3'  417   6.022   5.295   4.093
   13G      C2'  418   5.873   5.416   4.192
   13G      H2'  419   5.867   5.331   4.261
   13G      O2'  420   5.852   5.539   4.263
   13G     HO2'  421   5.855   5.526   4.358
   13G      O3'  422   6.127   5.459   4.179
   14G        P  423   6.213   5.384   4.288
   14G      OP1  424   6.333   5.464   4.312
   14G      OP2  425   6.215   5.242   4.243
   14G      O5'  426   6.128   5.391   4.427
   14G      C5'  427   6.096   5.520   4.482
   14G      H5'  428   6.066   5.587   4.401
   14G     H5''  429   6.183   5.566   4.528
   14G      C4'  430   5.985   5.504   4.584
   14G      H4'  431   5.974   5.599   4.636
   14G      O4'  432   5.859   5.470   4.530
   14G      C1'  433   5.784   5.392   4.625
   14G      H1'  434   5.686   5.435   4.645
   14G       N9  435   5.762   5.259   4.558
   14G       C8  436   5.852   5.180   4.488
   14G       H8  437   5.955   5.206   4.470
   14G       N7  438   5.799   5.071   4.441
   14G       C5  439   5.663   5.069   4.480
   14G       C6  440   5.560   4.972   4.457
   14G       O6  441   5.562   4.870   4.385
   14G       N1  442   5.446   5.005   4.529
   14G       H1  443   5.364   4.948   4.519
   14G       C2  444   5.427   5.129   4.589
   14G       N2  445   5.303   5.156   4.616
   14G      H21  446   5.226   5.096   4.592
   14G      H22  447   5.285   5.249   4.653
   14G       N3  448   5.524   5.223   4.616
   14G       C4  449   5.641   5.190   4.560
   14G      C3'  450   6.006   5.401   4.696
   14G      H3'  451   6.047   5.313   4.647
   14G      C2'  452   5.871   5.376   4.754
   14G      H2'  453   5.860   5.274   4.792
   14G      O2'  454   5.840   5.477   4.850
   14G     HO2'  455   5.855   5.430   4.932
   14G      O3'  456   6.105   5.449   4.789
   15G        P  457   6.176   5.347   4.893
   15G      OP1  458   6.285   5.423   4.952
   15G      OP2  459   6.194   5.215   4.830
   15G      O5'  460   6.063   5.314   5.005
   15G      C5'  461   6.013   5.397   5.105
   15G      H5'  462   5.972   5.490   5.068
   15G     H5''  463   6.086   5.411   5.185
   15G      C4'  464   5.893   5.318   5.168
   15G      H4'  465   5.850   5.379   5.247
   15G      O4'  466   5.796   5.293   5.074
   15G      C1'  467   5.747   5.163   5.100
   15G      H1'  468   5.644   5.177   5.134
   15G       N9  469   5.747   5.086   4.979
   15G       C8  470   5.858   5.056   4.898
   15G       H8  471   5.955   5.104   4.900
   15G       N7  472   5.838   4.957   4.813
   15G       C5  473   5.698   4.927   4.835
   15G       C6  474   5.614   4.828   4.771
   15G       O6  475   5.651   4.749   4.694
   15G       N1  476   5.490   4.831   4.830
   15G       H1  477   5.409   4.784   4.792
   15G       C2  478   5.444   4.915   4.922
   15G       N2  479   5.324   4.894   4.962
   15G      H21  480   5.259   4.822   4.930
   15G      H22  481   5.300   4.956   5.038
   15G       N3  482   5.518   5.008   4.985
   15G       C4  483   5.643   5.012   4.931
   15G      C3'  484   5.943   5.192   5.245
   15G      H3'  485   6.025   5.148   5.187
   15G      C2'  486   5.819   5.099   5.225
   15G      H2'  487   5.839   4.994   5.205
   15G      O2'  488   5.735   5.120   5.334
   15G     HO2'  489   5.774   5.096   5.418
   15G      O3'  490   5.982   5.216   5.376
   16U        P  491   6.041   5.091   5.452
   16U      OP1  492   6.140   5.148   5.550
   16U      OP2  493   6.086   4.990   5.354
   16U      O5'  494   5.911   5.032   5.528
   16U      C5'  495   5.860   5.088   5.647
   16U      H5'  496   5.845   5.194   5.628
   16U     H5''  497   5.940   5.077   5.720
   16U      C4'  498   5.723   5.024   5.698
   16U      H4'  499   5.682   5.079   5.782
   16U      O4'  500   5.627   5.034   5.590
   16U      C1'  501   5.551   4.912   5.584
   16U      H1'  502   5.444   4.936   5.584
   16U       N1  503   5.569   4.847   5.449
   16U       C6  504   5.695   4.817   5.404
   16U       H6  505   5.774   4.835   5.476
   16U       C5  506   5.714   4.765   5.282
   16U       H5  507   5.813   4.746   5.243
   16U       C4  508   5.602   4.744   5.195
   16U       O4  509   5.605   4.683   5.089
   16U       N3  510   5.476   4.784   5.243
   16U       H3  511   5.397   4.761   5.184
   16U       C2  512   5.454   4.840   5.366
   16U       O2  513   5.340   4.854   5.399
   16U      C3'  514   5.735   4.877   5.743
   16U      H3'  515   5.808   4.826   5.681
   16U      C2'  516   5.591   4.831   5.700
   16U      H2'  517   5.600   4.726   5.673
   16U      O2'  518   5.494   4.854   5.800
   16U     HO2'  519   5.512   4.796   5.875
   16U      O3'  520   5.769   4.881   5.879
   17U        P  521   5.807   4.752   5.963
   17U      OP1  522   5.846   4.803   6.099
   17U      OP2  523   5.897   4.661   5.881
   17U      O5'  524   5.669   4.680   5.970
   17U      C5'  525   5.583   4.691   6.092
   17U      H5'  526   5.567   4.795   6.119
   17U     H5''  527   5.629   4.637   6.174
   17U      C4'  528   5.451   4.611   6.077
   17U      H4'  529   5.388   4.628   6.164
   17U      O4'  530   5.371   4.667   5.977
   17U      C1'  531   5.310   4.567   5.898
   17U      H1'  532   5.203   4.585   5.915
   17U       N1  533   5.342   4.573   5.750
   17U       C6  534   5.456   4.514   5.707
   17U       H6  535   5.535   4.490   5.778
   17U       C5  536   5.482   4.504   5.581
   17U       H5  537   5.581   4.474   5.550
   17U       C4  538   5.389   4.532   5.475
   17U       O4  539   5.406   4.508   5.351
   17U       N3  540   5.274   4.593   5.523
   17U       H3  541   5.199   4.628   5.465
   17U       C2  542   5.249   4.624   5.658
   17U       O2  543   5.152   4.688   5.690
   17U      C3'  544   5.467   4.460   6.059
   17U      H3'  545   5.553   4.438   5.995
   17U      C2'  546   5.336   4.439   5.978
   17U      H2'  547   5.343   4.350   5.914
   17U      O2'  548   5.224   4.426   6.073
   17U     HO2'  549   5.223   4.335   6.105
   17U      O3'  550   5.481   4.388   6.178
   18A        P  551   5.504   4.227   6.168
   18A      OP1  552   5.571   4.175   6.292
   18A      OP2  553   5.568   4.199   6.036
   18A      O5'  554   5.355   4.172   6.159
   18A      C5'  555   5.286   4.141   6.281
   18A      H5'  556   5.267   4.228   6.344
   18A     H5''  557   5.353   4.084   6.345
   18A      C4'  558   5.158   4.057   6.255
   18A      H4'  559   5.101   4.046   6.347
   18A      O4'  560   5.063   4.113   6.161
   18A      C1'  561   5.020   4.006   6.079
   18A      H1'  562   4.912   4.009   6.067
   18A       N9  563   5.085   4.011   5.950
   18A       C8  564   5.178   4.098   5.895
   18A       H8  565   5.217   4.184   5.948
   18A       N7  566   5.214   4.073   5.772
   18A       C5  567   5.132   3.962   5.741
   18A       C6  568   5.110   3.892   5.620
   18A       N6  569   5.173   3.917   5.508
   18A      H61  570   5.142   3.862   5.430
   18A      H62  571   5.216   4.009   5.500
   18A       N1  572   5.018   3.796   5.617
   18A       C2  573   4.947   3.771   5.725
   18A       H2  574   4.875   3.690   5.726
   18A       N3  575   4.961   3.825   5.847
   18A       C4  576   5.054   3.924   5.847
   18A      C3'  577   5.190   3.916   6.211
   18A      H3'  578   5.271   3.927   6.139
   18A      C2'  579   5.061   3.872   6.153
   18A      H2'  580   5.082   3.793   6.081
   18A      O2'  581   4.980   3.837   6.258
   18A     HO2'  582   4.924   3.765   6.228
   18A      O3'  583   5.237   3.832   6.315
   19G        P  584   5.339   3.707   6.276
   19G      OP1  585   5.396   3.664   6.403
   19G      OP2  586   5.431   3.759   6.173
   19G      O5'  587   5.259   3.582   6.215
   19G      C5'  588   5.158   3.526   6.294
   19G      H5'  589   5.091   3.607   6.322
   19G     H5''  590   5.194   3.463   6.376
   19G      C4'  591   5.058   3.436   6.206
   19G      H4'  592   4.986   3.391   6.274
   19G      O4'  593   4.999   3.508   6.099
   19G      C1'  594   5.000   3.427   5.979
   19G      H1'  595   4.899   3.429   5.939
   19G       N9  596   5.105   3.485   5.885
   19G       C8  597   5.194   3.594   5.905
   19G       H8  598   5.197   3.641   6.002
   19G       N7  599   5.262   3.638   5.803
   19G       C5  600   5.219   3.545   5.705
   19G       C6  601   5.260   3.535   5.573
   19G       O6  602   5.354   3.597   5.517
   19G       N1  603   5.201   3.423   5.504
   19G       H1  604   5.245   3.410   5.414
   19G       C2  605   5.126   3.334   5.570
   19G       N2  606   5.076   3.235   5.495
   19G      H21  607   5.091   3.226   5.396
   19G      H22  608   5.008   3.171   5.534
   19G       N3  609   5.096   3.338   5.702
   19G       C4  610   5.141   3.448   5.763
   19G      C3'  611   5.139   3.323   6.142
   19G      H3'  612   5.239   3.356   6.114
   19G      C2'  613   5.043   3.285   6.026
   19G      H2'  614   5.093   3.229   5.947
   19G      O2'  615   4.929   3.208   6.066
   19G     HO2'  616   4.955   3.126   6.109
   19G      O3'  617   5.159   3.217   6.236
   20G        P  618   5.292   3.131   6.229
   20G      OP1  619   5.267   3.002   6.302
   20G      OP2  620   5.396   3.218   6.275
   20G      O5'  621   5.318   3.091   6.077
   20G      C5'  622   5.263   2.976   6.012
   20G      H5'  623   5.155   2.988   6.021
   20G     H5''  624   5.296   2.884   6.061
   20G      C4'  625   5.311   2.985   5.866
   20G      H4'  626   5.267   2.901   5.812
   20G      O4'  627   5.266   3.105   5.807
   20G      C1'  628   5.367   3.150   5.711
   20G      H1'  629   5.315   3.173   5.618
   20G       N9  630   5.446   3.267   5.754
   20G       C8  631   5.436   3.340   5.869
   20G       H8  632   5.374   3.303   5.949
   20G       N7  633   5.520   3.443   5.876
   20G       C5  634   5.577   3.447   5.749
   20G       C6  635   5.668   3.538   5.686
   20G       O6  636   5.725   3.631   5.748
   20G       N1  637   5.688   3.515   5.551
   20G       H1  638   5.736   3.588   5.500
   20G       C2  639   5.639   3.414   5.488
   20G       N2  640   5.661   3.394   5.363
   20G      H21  641   5.721   3.457   5.311
   20G      H22  642   5.637   3.302   5.329
   20G       N3  643   5.556   3.324   5.540
   20G       C4  644   5.533   3.339   5.678
   20G      C3'  645   5.460   2.975   5.844
   20G      H3'  646   5.520   3.037   5.910
   20G      C2'  647   5.463   3.031   5.700
   20G      H2'  648   5.564   3.069   5.684
   20G      O2'  649   5.423   2.943   5.601
   20G     HO2'  650   5.501   2.893   5.577
   20G      O3'  651   5.506   2.839   5.845
   21G3       P  652   5.664   2.798   5.849
   21G3     OP1  653   5.716   2.842   5.717
   21G3     OP2  654   5.676   2.661   5.889
   21G3     O5'  655   5.719   2.895   5.960
   21G3     C5'  656   5.752   2.856   6.094
   21G3     H5'  657   5.824   2.775   6.099
   21G3    H5''  658   5.664   2.818   6.146
   21G3     C4'  659   5.784   2.991   6.159
   21G3     H4'  660   5.823   2.969   6.259
   21G3     O4'  661   5.884   3.074   6.097
   21G3     C1'  662   5.845   3.207   6.111
   21G3     H1'  663   5.873   3.241   6.211
   21G3      N9  664   5.911   3.296   6.012
   21G3      C8  665   6.018   3.382   6.034
   21G3      H8  666   6.051   3.422   6.130
   21G3      N7  667   6.073   3.423   5.926
   21G3      C5  668   5.998   3.369   5.823
   21G3      C6  669   6.017   3.368   5.681
   21G3      O6  670   6.095   3.436   5.614
   21G3      N1  671   5.943   3.271   5.611
   21G3      H1  672   5.961   3.257   5.512
   21G3      C2  673   5.863   3.180   5.674
   21G3      N2  674   5.820   3.080   5.610
   21G3     H21  675   5.847   3.068   5.513
   21G3     H22  676   5.785   3.007   5.670
   21G3      N3  677   5.845   3.180   5.807
   21G3      C4  678   5.908   3.280   5.874
   21G3     C3'  679   5.661   3.077   6.175
   21G3     H3'  680   5.570   3.043   6.126
   21G3     C2'  681   5.691   3.215   6.108
   21G3     H2'  682   5.673   3.204   6.001
   21G3     O2'  683   5.636   3.336   6.163
   21G3    HO2'  684   5.560   3.306   6.212
   21G3     O3'  685   5.635   3.099   6.314
   21G3    HO3'  686   5.558   3.156   6.317
   22Cl-    Cl-  687   7.143   5.680   8.211
   23Cl-    Cl-  688   9.818   9.683   9.766
   24Cl-    Cl-  689   9.410   8.973   9.657
   25Cl-    Cl-  690   7.882   9.796   0.638
   26Cl-    Cl-  691   2.963   3.295   8.172
   27Cl-    Cl-  692   3.068   6.986   2.264
   28Cl-    Cl-  693   0.132   7.209   5.235
   29Cl-    Cl-  694   4.019   9.482   7.226
   30Cl-    Cl-  695   7.441   8.332   4.352
   31Cl-    Cl-  696   8.768   2.419   1.738
   32Cl-    Cl-  697   1.249   0.811   2.651
   33Cl-    Cl-  698   3.657   0.735   5.287
   34Cl-    Cl-  699   4.661   1.485   2.535
   35Cl-    Cl-  700   6.457   9.602   1.577
   36Cl-    Cl-  701   9.854   4.369   3.711
   37Cl-    Cl-  702   8.390   5.047   9.839
   38Cl-    Cl-  703   1.997   9.250   7.461
   39Cl-    Cl-  704   7.235   5.613   3.663
   40Cl-    Cl-  705   3.294   8.127   1.123
   41Cl-    Cl-  706   9.191   2.388   8.734
   42Cl-    Cl-  707   0.227   5.438   8.226
   43Cl-    Cl-  708   6.807   9.173   4.540
   44Cl-    Cl-  709   4.209   8.244   7.674
   45Cl-    Cl-  710   3.435   5.249   8.160
   46Cl-    Cl-  711   3.107   9.702   3.602
   47Cl-    Cl-  712   9.232   3.019   8.065
   48Cl-    Cl-  713   9.376   4.226   8.200
   49Cl-    Cl-  714   6.310   1.252   5.913
   50Cl-    Cl-  715   3.713   6.063   3.026
   51Cl-    Cl-  716   5.602   9.404   4.358
   52Cl-    Cl-  717   1.267   1.790   8.187
   53Cl-    Cl-  718   8.037   5.318   4.662
   54Cl-    Cl-  719   2.660   8.627   3.784
   55Cl-    Cl-  720   2.789   1.174   5.685
   56Cl-    Cl-  721   5.124   9.020   5.577
   57Cl-    Cl-  722   2.561   2.202   7.945
   58Cl-    Cl-  723   7.350   4.687   9.241
   59Cl-    Cl-  724   4.481   6.726   9.555
   60Cl-    Cl-  725   6.581   8.072   0.912
   61Cl-    Cl-  726   8.889   5.022   7.272
   62Cl-    Cl-  727   6.780   2.106   7.770
   63Cl-    Cl-  728   1.624   1.203   4.217
   64Cl-    Cl-  729   3.043   8.422   8.557
   65Cl-    Cl-  730   5.906   5.043   0.434
   66Cl-    Cl-  731   8.892   8.311   9.198
   67Cl-    Cl-  732   3.359   2.207   0.120
   68Cl-    Cl-  733   0.480   9.188   3.364
   69Cl-    Cl-  734   9.349   4.880   3.664
   70Cl-    Cl-  735   0.236   0.921   1.043
   71Cl-    Cl-  736   4.677   5.385   9.816
   72Cl-    Cl-  737   7.125   3.267   0.752
   73Cl-    Cl-  738   3.638   1.674   1.097
   74Cl-    Cl-  739   7.713   6.603   7.745
   75Cl-    Cl-  740   7.808   1.662   7.137
   76Cl-    Cl-  741   4.901   4.921   2.426
   77Cl-    Cl-  742   3.582   3.566   7.273
   78Cl-    Cl-  743   1.886   8.946   2.301
   79Cl-    Cl-  744   6.993   4.288   7.879
   80Cl-    Cl-  745   6.081   4.290   6.774
   81Cl-    Cl-  746   2.775   5.618   0.056
   82Cl-    Cl-  747   1.954   8.432   7.034
   83Cl-    Cl-  748   9.267   0.671   9.328
   84Cl-    Cl-  749   2.190   2.644   1.727
   85Cl-    Cl-  750   0.659   4.680   5.027
   86Cl-    Cl-  751   1.110   9.205   7.143
   87Cl-    Cl-  752   1.398   0.889   0.612
   88Cl-    Cl-  753   8.531   6.946   8.452
   89Cl-    Cl-  754   0.410   0.239   4.528
   90Cl-    Cl-  755   3.404   6.029   4.229
   91Cl-    Cl-  756   3.534   7.446   3.619
   92Cl-    Cl-  757   0.460   1.288   5.784
   93Cl-    Cl-  758   8.031   4.924   0.991
   94Cl-    Cl-  759   6.111   7.190   0.371
   95Cl-    Cl-  760   7.338   9.467   6.462
   96Cl-    Cl-  761   8.598   3.163   1.804
   97Cl-    Cl-  762   0.902   3.308   7.353
   98Cl-    Cl-  763   5.067   2.672   3.813
   99Cl-    Cl-  764   7.533   8.089   3.343
  100Cl-    Cl-  765   4.567   8.363   1.686
  101Cl-    Cl-  766   9.504   2.265   2.353
  102Cl-    Cl-  767   6.821   5.608   7.369
  103Cl-    Cl-  768   8.959   5.713   2.236
  104Cl-    Cl-  769   4.322   6.258   8.340
  105Cl-    Cl-  770   9.224   8.607   6.060
  106Cl-    Cl-  771   0.505   6.604   3.866
  107K+      K+  772   1.094   1.022   4.903
  108K+      K+  773   7.895   5.578   1.471
  109K+      K+  774   3.042   3.718   5.300
  110K+      K+  775   4.085   3.242   0.310
  111K+      K+  776   2.455   7.026   0.200
  112K+      K+  777   8.326   6.161   2.446
  113K+      K+  778   0.015   4.163   4.366
  114K+      K+  779   5.388   1.370   6.228
  115K+      K+  780   6.347   4.754   3.280
  116K+      K+  781   6.220   1.928   4.171
  117K+      K+  782   4.457   5.503   4.576
  118K+      K+  783   8.957   9.623   6.615
  119K+      K+  784   6.102   9.745   0.271
  120K+      K+  785   2.681   0.991   3.895
  121K+      K+  786   5.622   4.809   3.881
  122K+      K+  787   6.203   6.211   8.893
  123K+      K+  788   6.163   7.915   1.133
  124K+      K+  789   3.450   7.150   3.188
  125K+      K+  790   5.278   4.299   2.091
  126K+      K+  791   3.365   5.275   5.053
  127K+      K+  792   4.807   0.669   8.189
  128K+      K+  793   4.017   3.834   6.744
  129K+      K+  794   6.439   1.282   8.153
  130K+      K+  795   2.855   7.094   6.164
  131K+      K+  796   0.466   6.167   1.516
  132K+      K+  797   5.893   4.822   4.550
  133K+      K+  798   5.627   4.479   2.124
  134K+      K+  799   7.885   5.398   8.832
  135K+      K+  800   3.113   6.970   3.793
  136K+      K+  801   0.188   6.147   6.485
  137K+      K+  802   8.245   4.760   5.040
  138K+      K+  803   9.524   0.097   7.554
  139K+      K+  804   6.459   2.412   6.445
  140K+      K+  805   3.290   6.608   1.563
  141K+      K+  806   4.849   5.357   4.435
  142K+      K+  807   1.975   8.319   3.343
  143K+      K+  808   3.947   1.395   3.639
  144K+      K+  809   5.510   3.736   5.926
  145K+      K+  810   0.907   8.213   3.353
  146K+      K+  811   6.565   2.932   7.363
  147K+      K+  812   8.918   1.693   8.843
  148K+      K+  813   5.748   8.202   2.729
  149K+      K+  814   9.513   8.118   6.222
  150K+      K+  815   0.326   3.320   7.602
  151K+      K+  816   6.849   5.995   5.148
  152K+      K+  817   4.849   1.218   2.444
  153K+      K+  818   2.575   0.928   9.500
  154K+      K+  819   8.754   2.096   2.470
  155K+      K+  820   7.403   5.104   4.175
  156K+      K+  821   8.337   4.059   7.218
  157K+      K+  822   4.033   6.364   0.299
  158K+      K+  823   0.606   1.094   2.635
  159K+      K+  824   9.725   0.584   2.070
  160K+      K+  825   9.694   0.556   8.772
  161K+      K+  826   0.113   2.709   7.215
  162K+      K+  827   9.042   1.740   0.064
  163K+      K+  828   5.825   5.915   9.754
  164K+      K+  829   1.001   4.848   7.830
  165K+      K+  830   5.420   4.698   4.251
  166K+      K+  831   2.355   0.507   4.253
  167K+      K+  832   3.834   5.928   5.558
  168K+      K+  833   0.786   7.826   3.085
  169K+      K+  834   5.048   4.951   2.972
  170K+      K+  835   6.825   8.725   4.143
  171K+      K+  836   2.955   0.110   1.078
  172K+      K+  837   7.820   2.148   3.825
  173K+      K+  838   7.452   6.567   4.498
  174K+      K+  839   8.682   0.558   9.651
  175K+      K+  840   3.786   3.541   0.490
  176K+      K+  841   9.749   3.736   2.494
  177K+      K+  842   9.618   5.713   2.660
  178K+      K+  843   7.094   5.249   7.077
  179K+      K+  844   6.861   1.096   0.792
  180K+      K+  845   5.492   4.868   7.393
  181K+      K+  846   9.041   1.834   5.871
  182K+      K+  847   2.965   9.230   9.368
  183K+      K+  848   1.048   8.212   7.380
  184K+      K+  849   5.450   3.742   4.381
  185K+      K+  850   4.919   9.009   3.621
  186K+      K+  851   9.652   4.818   9.106
  187K+      K+  852   6.566   7.148   7.571
  188K+      K+  853   2.968   8.397   6.121
  189K+      K+  854   7.204   4.596   8.948
  190K+      K+  855   3.027   9.793   7.561
  191K+      K+  856   1.222   6.116   4.158
  192K+      K+  857   3.834   8.166   2.122
  193K+      K+  858   5.476   3.992   5.320
  194K+      K+  859   2.914   3.865   7.315
  195K+      K+  860   8.246   3.038   5.666
  196K+      K+  861   6.375   8.209   6.590
  197K+      K+  862   8.717   3.947   0.514
  198K+      K+  863   4.117   0.655   6.330
  199K+      K+  864   7.802   6.337   8.450
  200K+      K+  865   5.141   4.642   6.239
  201K+      K+  866   2.244   2.440   4.001
  202K+      K+  867   4.848   3.102   0.123
  203K+      K+  868   1.528   8.799   9.170
  204K+      K+  869   9.496   6.455   0.603
  205K+      K+  870   5.207   5.522   8.548
  206K+      K+  871   7.605   9.333   7.069
  207K+      K+  872   7.717   9.764   4.420
  208K+      K+  873   8.875   8.385   8.826
  209K+      K+  874   3.308   1.651   6.511
  210K+      K+  875   4.065   6.198   3.809
  211K+      K+  876   4.043   5.601   5.436
  212WAT      O  877   4.671   4.803   1.101
  212WAT     H1  878   4.627   4.772   1.016
  212WAT     H2  879   4.719   4.888   1.084
  213WAT      O  880   6.907   1.973   1.713
  213WAT     H1  881   6.946   1.932   1.630
  213WAT     H2  882   6.972   1.963   1.788
  214WAT      O  883   4.151   3.103   1.713
  214WAT     H1  884   4.214   3.036   1.673
  214WAT     H2  885   4.057   3.076   1.692
  215WAT      O  886   8.709   5.835   3.982
  215WAT     H1  887   8.615   5.844   4.015
  215WAT     H2  888   8.716   5.755   3.922
  216WAT      O  889   0.605   8.002   2.993
  216WAT     H1  890   0.519   7.951   2.985
  216WAT     H2  891   0.616   8.062   2.914
  217WAT      O  892   0.390   5.048   6.165
  217WAT     H1  893   0.332   4.974   6.201
  217WAT     H2  894   0.472   5.008   6.124
  218WAT      O  895   5.550   1.156   6.161
  218WAT     H1  896   5.496   1.073   6.172
  218WAT     H2  897   5.648   1.133   6.162
  219WAT      O  898   5.007   8.653   7.898
  219WAT     H1  899   5.024   8.658   7.996
  219WAT     H2  900   5.074   8.709   7.849
  220WAT      O  901   2.467   4.485   5.890
  220WAT     H1  902   2.466   4.393   5.928
  220WAT     H2  903   2.416   4.547   5.950
  221WAT      O  904   5.299   4.229   4.672
  221WAT     H1  905   5.397   4.228   4.688
  221WAT     H2  906   5.279   4.282   4.589
  222WAT      O  907   4.857   3.540   1.240
  222WAT     H1  908   4.953   3.553   1.267
  222WAT     H2  909   4.843   3.582   1.150
  223WAT      O  910   2.771   7.219   8.143
  223WAT     H1  911   2.834   7.188   8.215
  223WAT     H2  912   2.693   7.265   8.185
  224WAT      O  913   5.451   5.479   3.089
  224WAT     H1  914   5.371   5.419   3.090
  224WAT     H2  915   5.466   5.515   3.181
  225WAT      O  916   1.139   7.708   8.816
  225WAT     H1  917   1.078   7.647   8.766
  225WAT     H2  918   1.109   7.713   8.912
  226WAT      O  919   7.762   7.174   6.028
  226WAT     H1  920   7.734   7.120   6.107
  226WAT     H2  921   7.862   7.182   6.028
  227WAT      O  922   1.166   3.307   4.960
  227WAT     H1  923   1.075   3.326   4.999
  227WAT     H2  924   1.168   3.214   4.924
  228WAT      O  925   4.115   9.319   4.910
  228WAT     H1  926   4.093   9.236   4.962
  228WAT     H2  927   4.202   9.357   4.943
  229WAT      O  928   0.152   2.669   4.954
  229WAT     H1  929   0.148   2.767   4.933
  229WAT     H2  930   0.077   2.646   5.016
  230WAT      O  931   7.664   9.082   3.453
  230WAT     H1  932   7.646   9.036   3.366
  230WAT     H2  933   7.585   9.072   3.513
  231WAT      O  934   8.258   9.648   1.422
  231WAT     H1  935   8.160   9.664   1.437
  231WAT     H2  936   8.287   9.567   1.473
  232WAT      O  937   8.025   2.205   4.908
  232WAT     H1  938   8.116   2.231   4.941
  232WAT     H2  939   8.031   2.120   4.856
  233WAT      O  940   3.306   3.001   5.875
  233WAT     H1  941   3.393   2.966   5.910
  233WAT     H2  942   3.243   2.924   5.860
  234WAT      O  943   4.980   9.131   3.881
  234WAT     H1  944   5.004   9.069   3.956
  234WAT     H2  945   4.882   9.150   3.883
  235WAT      O  946   4.667   1.436   5.422
  235WAT     H1  947   4.702   1.524   5.454
  235WAT     H2  948   4.571   1.445   5.397
  236WAT      O  949   6.292   0.319   3.450
  236WAT     H1  950   6.311   0.397   3.390
  236WAT     H2  951   6.269   0.353   3.541
  237WAT      O  952   6.023   5.422   3.304
  237WAT     H1  953   5.994   5.511   3.340
  237WAT     H2  954   5.955   5.389   3.239
  238WAT      O  955   0.106   0.373   5.082
  238WAT     H1  956   0.177   0.319   5.128
  238WAT     H2  957   0.147   0.454   5.041
  239WAT      O  958   0.424   0.785   1.264
  239WAT     H1  959   0.504   0.803   1.206
  239WAT     H2  960   0.344   0.832   1.227
  240WAT      O  961   2.810   8.581   3.491
  240WAT     H1  962   2.869   8.501   3.507
  240WAT     H2  963   2.754   8.598   3.572
  241WAT      O  964   4.233   4.327   6.354
  241WAT     H1  965   4.257   4.424   6.361
  241WAT     H2  966   4.151   4.317   6.296
  242WAT      O  967   5.386   3.396   4.433
  242WAT     H1  968   5.428   3.371   4.346
  242WAT     H2  969   5.291   3.424   4.416
  243WAT      O  970   0.811   4.381   8.765
  243WAT     H1  971   0.841   4.472   8.794
  243WAT     H2  972   0.850   4.360   8.676
  244WAT      O  973   4.519   3.817   7.414
  244WAT     H1  974   4.604   3.765   7.420
  244WAT     H2  975   4.533   3.908   7.454
  245WAT      O  976   5.079   6.373   6.879
  245WAT     H1  977   5.086   6.273   6.875
  245WAT     H2  978   5.157   6.410   6.929
  246WAT      O  979   7.056   3.125   4.644
  246WAT     H1  980   7.152   3.102   4.630
  246WAT     H2  981   7.010   3.050   4.693
  247WAT      O  982   1.294   6.750   0.205
  247WAT     H1  983   1.351   6.787   0.132
  247WAT     H2  984   1.226   6.818   0.232
  248WAT      O  985   8.513   3.468   2.478
  248WAT     H1  986   8.473   3.435   2.563
  248WAT     H2  987   8.463   3.549   2.447
  249WAT      O  988   9.139   1.224   6.738
  249WAT     H1  989   9.136   1.318   6.774
  249WAT     H2  990   9.232   1.205   6.706
  250WAT      O  991   0.805   9.485   8.795
  250WAT     H1  992   0.739   9.419   8.829
  250WAT     H2  993   0.889   9.479   8.848
  251WAT      O  994   9.410   6.106   7.207
  251WAT     H1  995   9.384   6.150   7.292
  251WAT     H2  996   9.329   6.073   7.160
  252WAT      O  997   1.625   1.777   3.329
  252WAT     H1  998   1.684   1.837   3.383
  252WAT     H2  999   1.568   1.832   3.268
  253WAT      O 1000   1.169   8.978   0.338
  253WAT     H1 1001   1.263   8.968   0.371
  253WAT     H2 1002   1.138   8.891   0.300
  254WAT      O 1003   4.584   7.595   3.900
  254WAT     H1 1004   4.605   7.542   3.817
  254WAT     H2 1005   4.601   7.539   3.981
  255WAT      O 1006   1.877   5.394   5.495
  255WAT     H1 1007   1.834   5.329   5.558
  255WAT     H2 1008   1.809   5.430   5.432
  256WAT      O 1009   6.345   5.294   5.453
  256WAT     H1 1010   6.417   5.229   5.428
  256WAT     H2 1011   6.268   5.244   5.492
  257WAT      O 1012   1.394   3.443   9.055
  257WAT     H1 1013   1.359   3.514   8.994
  257WAT     H2 1014   1.437   3.371   9.001
  258WAT      O 1015   6.030   6.944   6.899
  258WAT     H1 1016   6.068   6.964   6.990
  258WAT     H2 1017   5.930   6.942   6.905
  259WAT      O 1018   5.490   1.196   0.116
  259WAT     H1 1019   5.509   1.133   0.040
  259WAT     H2 1020   5.577   1.233   0.151
  260WAT      O 1021   3.724   4.331   7.121
  260WAT     H1 1022   3.691   4.244   7.156
  260WAT     H2 1023   3.817   4.320   7.085
  261WAT      O 1024   9.105   8.247   7.964
  261WAT     H1 1025   9.200   8.251   7.996
  261WAT     H2 1026   9.095   8.173   7.898
  262WAT      O 1027   7.059   0.555   8.608
  262WAT     H1 1028   7.081   0.581   8.514
  262WAT     H2 1029   7.114   0.476   8.635
  263WAT      O 1030   4.506   1.965   4.534
  263WAT     H1 1031   4.452   2.007   4.460
  263WAT     H2 1032   4.449   1.959   4.617
  264WAT      O 1033   5.721   6.861   3.681
  264WAT     H1 1034   5.803   6.805   3.692
  264WAT     H2 1035   5.715   6.927   3.755
  265WAT      O 1036   8.919   3.479   3.440
  265WAT     H1 1037   8.966   3.401   3.399
  265WAT     H2 1038   8.837   3.447   3.488
  266WAT      O 1039   2.100   4.812   6.274
  266WAT     H1 1040   2.108   4.733   6.335
  266WAT     H2 1041   2.019   4.802   6.217
  267WAT      O 1042   0.245   3.112   8.601
  267WAT     H1 1043   0.232   3.189   8.664
  267WAT     H2 1044   0.315   3.051   8.638
  268WAT      O 1045   3.084   9.228   5.313
  268WAT     H1 1046   3.162   9.250   5.370
  268WAT     H2 1047   3.020   9.170   5.363
  269WAT      O 1048   6.699   6.993   4.922
  269WAT     H1 1049   6.628   7.017   4.989
  269WAT     H2 1050   6.678   6.904   4.882
  270WAT      O 1051   2.701   7.624   7.031
  270WAT     H1 1052   2.743   7.678   6.957
  270WAT     H2 1053   2.744   7.648   7.118
  271WAT      O 1054   0.243   7.730   9.316
  271WAT     H1 1055   0.321   7.778   9.355
  271WAT     H2 1056   0.212   7.777   9.233
  272WAT      O 1057   0.413   4.571   7.274
  272WAT     H1 1058   0.469   4.640   7.320
  272WAT     H2 1059   0.460   4.483   7.276
  273WAT      O 1060   8.112   1.725   1.097
  273WAT     H1 1061   8.153   1.685   1.015
  273WAT     H2 1062   8.075   1.815   1.076
  274WAT      O 1063   5.323   2.398   3.622
  274WAT     H1 1064   5.331   2.467   3.693
  274WAT     H2 1065   5.410   2.351   3.610
  275WAT      O 1066   7.256   5.532   1.222
  275WAT     H1 1067   7.270   5.435   1.240
  275WAT     H2 1068   7.158   5.551   1.214
  276WAT      O 1069   6.217   8.651   0.332
  276WAT     H1 1070   6.197   8.723   0.399
  276WAT     H2 1071   6.131   8.605   0.306
  277WAT      O 1072   8.944   7.468   8.122
  277WAT     H1 1073   8.973   7.377   8.093
  277WAT     H2 1074   9.018   7.511   8.175
  278WAT      O 1075   5.727   2.875   0.896
  278WAT     H1 1076   5.790   2.877   0.973
  278WAT     H2 1077   5.712   2.779   0.869
  279WAT      O 1078   0.528   2.100   6.234
  279WAT     H1 1079   0.461   2.172   6.220
  279WAT     H2 1080   0.612   2.123   6.185
  280WAT      O 1081   9.190   0.079   9.256
  280WAT     H1 1082   9.225   0.172   9.265
  280WAT     H2 1083   9.244   0.017   9.313
  281WAT      O 1084   3.139   8.071   1.398
  281WAT     H1 1085   3.078   7.992   1.397
  281WAT     H2 1086   3.194   8.072   1.315
  282WAT      O 1087   5.426   7.810   0.582
  282WAT     H1 1088   5.495   7.799   0.511
  282WAT     H2 1089   5.339   7.838   0.540
  283WAT      O 1090   4.382   4.756   8.987
  283WAT     H1 1091   4.303   4.711   9.029
  283WAT     H2 1092   4.462   4.696   8.992
  284WAT      O 1093   0.855   1.319   8.914
  284WAT     H1 1094   0.846   1.278   8.823
  284WAT     H2 1095   0.764   1.329   8.955
  285WAT      O 1096   6.243   1.373   7.039
  285WAT     H1 1097   6.313   1.304   7.060
  285WAT     H2 1098   6.265   1.457   7.088
  286WAT      O 1099   1.843   0.655   6.437
  286WAT     H1 1100   1.783   0.685   6.363
  286WAT     H2 1101   1.918   0.601   6.400
  287WAT      O 1102   5.888   2.288   4.011
  287WAT     H1 1103   5.938   2.269   3.927
  287WAT     H2 1104   5.864   2.385   4.015
  288WAT      O 1105   0.652   0.178   2.540
  288WAT     H1 1106   0.685   0.156   2.632
  288WAT     H2 1107   0.720   0.233   2.493
  289WAT      O 1108   5.614   6.528   3.566
  289WAT     H1 1109   5.542   6.548   3.632
  289WAT     H2 1110   5.690   6.482   3.611
  290WAT      O 1111   1.474   1.982   2.504
  290WAT     H1 1112   1.463   1.919   2.427
  290WAT     H2 1113   1.544   1.946   2.566
  291WAT      O 1114   4.121   4.190   2.275
  291WAT     H1 1115   4.198   4.224   2.220
  291WAT     H2 1116   4.058   4.141   2.216
  292WAT      O 1117   0.383   5.608   2.932
  292WAT     H1 1118   0.424   5.644   3.016
  292WAT     H2 1119   0.283   5.613   2.939
  293WAT      O 1120   4.226   4.933   0.704
  293WAT     H1 1121   4.264   4.921   0.796
  293WAT     H2 1122   4.284   4.996   0.652
  294WAT      O 1123   6.414   4.228   8.291
  294WAT     H1 1124   6.414   4.270   8.382
  294WAT     H2 1125   6.427   4.298   8.222
  295WAT      O 1126   3.931   9.589   1.071
  295WAT     H1 1127   3.943   9.496   1.106
  295WAT     H2 1128   3.970   9.655   1.136
  296WAT      O 1129   5.588   9.198   4.776
  296WAT     H1 1130   5.515   9.130   4.773
  296WAT     H2 1131   5.675   9.154   4.797
  297WAT      O 1132   5.211   9.694   0.281
  297WAT     H1 1133   5.234   9.634   0.358
  297WAT     H2 1134   5.112   9.712   0.281
  298WAT      O 1135   7.665   8.137   4.141
  298WAT     H1 1136   7.742   8.199   4.130
  298WAT     H2 1137   7.595   8.180   4.198
  299WAT      O 1138   9.582   6.486   3.805
  299WAT     H1 1139   9.676   6.453   3.801
  299WAT     H2 1140   9.552   6.514   3.714
  300WAT      O 1141   3.170   7.621   3.618
  300WAT     H1 1142   3.269   7.636   3.621
  300WAT     H2 1143   3.125   7.681   3.684
  301WAT      O 1144   7.934   4.363   5.186
  301WAT     H1 1145   7.938   4.416   5.271
  301WAT     H2 1146   7.846   4.315   5.181
  302WAT      O 1147   3.729   9.609   1.577
  302WAT     H1 1148   3.639   9.584   1.541
  302WAT     H2 1149   3.718   9.670   1.656
  303WAT      O 1150   7.099   8.401   7.130
  303WAT     H1 1151   7.156   8.476   7.095
  303WAT     H2 1152   7.090   8.411   7.230
  304WAT      O 1153   2.899   1.289   6.538
  304WAT     H1 1154   2.954   1.205   6.531
  304WAT     H2 1155   2.813   1.277   6.488
  305WAT      O 1156   5.361   0.273   1.118
  305WAT     H1 1157   5.460   0.262   1.113
  305WAT     H2 1158   5.332   0.264   1.214
  306WAT      O 1159   7.992   7.735   2.528
  306WAT     H1 1160   8.060   7.687   2.584
  306WAT     H2 1161   8.005   7.711   2.432
  307WAT      O 1162   3.287   5.444   0.050
  307WAT     H1 1163   3.285   5.375   0.123
  307WAT     H2 1164   3.204   5.500   0.055
  308WAT      O 1165   7.065   7.751   9.641
  308WAT     H1 1166   7.092   7.708   9.728
  308WAT     H2 1167   7.134   7.818   9.614
  309WAT      O 1168   8.043   8.365   1.945
  309WAT     H1 1169   8.010   8.312   2.024
  309WAT     H2 1170   8.023   8.315   1.861
  310WAT      O 1171   1.775   5.597   7.701
  310WAT     H1 1172   1.874   5.609   7.706
  310WAT     H2 1173   1.746   5.592   7.606
  311WAT      O 1174   6.288   3.340   6.234
  311WAT     H1 1175   6.374   3.292   6.252
  311WAT     H2 1176   6.306   3.437   6.220
  312WAT      O 1177   5.840   5.375   8.240
  312WAT     H1 1178   5.855   5.408   8.146
  312WAT     H2 1179   5.928   5.371   8.288
  313WAT      O 1180   2.366   2.059   1.767
  313WAT     H1 1181   2.355   2.143   1.819
  313WAT     H2 1182   2.350   1.980   1.827
  314WAT      O 1183   5.608   6.689   9.191
  314WAT     H1 1184   5.594   6.676   9.289
  314WAT     H2 1185   5.522   6.715   9.148
  315WAT      O 1186   3.706   4.772   6.731
  315WAT     H1 1187   3.789   4.738   6.777
  315WAT     H2 1188   3.646   4.694   6.711
  316WAT      O 1189   8.452   5.666   2.285
  316WAT     H1 1190   8.527   5.730   2.272
  316WAT     H2 1191   8.486   5.572   2.278
  317WAT      O 1192   2.315   2.320   5.748
  317WAT     H1 1193   2.279   2.308   5.840
  317WAT     H2 1194   2.329   2.418   5.730
  318WAT      O 1195   3.322   1.036   5.468
  318WAT     H1 1196   3.237   1.089   5.462
  318WAT     H2 1197   3.321   0.979   5.551
  319WAT      O 1198   7.393   2.622   8.100
  319WAT     H1 1199   7.303   2.635   8.141
  319WAT     H2 1200   7.443   2.709   8.100
  320WAT      O 1201   5.330   3.207   6.942
  320WAT     H1 1202   5.299   3.302   6.938
  320WAT     H2 1203   5.301   3.159   6.860
  321WAT      O 1204   4.049   0.397   0.408
  321WAT     H1 1205   3.969   0.453   0.387
  321WAT     H2 1206   4.079   0.350   0.325
  322WAT      O 1207   2.415   8.329   7.150
  322WAT     H1 1208   2.380   8.236   7.147
  322WAT     H2 1209   2.376   8.382   7.075
  323WAT      O 1210   2.007   6.775   5.465
  323WAT     H1 1211   2.035   6.719   5.542
  323WAT     H2 1212   2.069   6.761   5.389
  324WAT      O 1213   5.431   5.667   8.859
  324WAT     H1 1214   5.359   5.600   8.841
  324WAT     H2 1215   5.485   5.637   8.939
  325WAT      O 1216   1.768   5.026   4.075
  325WAT     H1 1217   1.858   5.028   4.119
  325WAT     H2 1218   1.697   5.047   4.143
  326WAT      O 1219   6.754   6.224   0.380
  326WAT     H1 1220   6.806   6.210   0.296
  326WAT     H2 1221   6.801   6.180   0.456
  327WAT      O 1222   6.412   2.603   4.889
  327WAT     H1 1223   6.442   2.538   4.958
  327WAT     H2 1224   6.408   2.695   4.929
  328WAT      O 1225   0.981   2.158   6.084
  328WAT     H1 1226   0.884   2.177   6.069
  328WAT     H2 1227   1.008   2.190   6.175
  329WAT      O 1228   8.867   9.171   3.369
  329WAT     H1 1229   8.964   9.188   3.351
  329WAT     H2 1230   8.812   9.214   3.298
  330WAT      O 1231   9.355   6.376   3.881
  330WAT     H1 1232   9.298   6.424   3.815
  330WAT     H2 1233   9.448   6.410   3.876
  331WAT      O 1234   7.133   8.713   7.794
  331WAT     H1 1235   7.175   8.645   7.734
  331WAT     H2 1236   7.154   8.691   7.889
  332WAT      O 1237   7.561   4.393   2.352
  332WAT     H1 1238   7.621   4.470   2.374
  332WAT     H2 1239   7.485   4.391   2.418
  333WAT      O 1240   3.062   3.866   9.245
  333WAT     H1 1241   3.158   3.861   9.216
  333WAT     H2 1242   3.028   3.774   9.262
  334WAT      O 1243   0.155   1.374   8.348
  334WAT     H1 1244   0.177   1.403   8.255
  334WAT     H2 1245   0.097   1.443   8.391
  335WAT      O 1246   6.208   6.841   6.514
  335WAT     H1 1247   6.288   6.900   6.523
  335WAT     H2 1248   6.210   6.797   6.424
  336WAT      O 1249   5.301   3.980   6.580
  336WAT     H1 1250   5.368   3.920   6.537
  336WAT     H2 1251   5.346   4.038   6.646
  337WAT      O 1252   3.480   6.501   0.932
  337WAT     H1 1253   3.508   6.441   0.857
  337WAT     H2 1254   3.555   6.508   0.998
  338WAT      O 1255   3.462   0.181   1.874
  338WAT     H1 1256   3.480   0.252   1.807
  338WAT     H2 1257   3.452   0.222   1.965
  339WAT      O 1258   8.734   7.124   2.555
  339WAT     H1 1259   8.760   7.182   2.632
  339WAT     H2 1260   8.635   7.121   2.547
  340WAT      O 1261   6.427   6.006   6.778
  340WAT     H1 1262   6.479   6.089   6.799
  340WAT     H2 1263   6.415   5.999   6.679
  341WAT      O 1264   4.148   9.668   1.737
  341WAT     H1 1265   4.148   9.703   1.830
  341WAT     H2 1266   4.075   9.601   1.726
  342WAT      O 1267   2.945   1.011   1.594
  342WAT     H1 1268   2.891   0.927   1.591
  342WAT     H2 1269   2.919   1.071   1.518
  343WAT      O 1270   1.130   1.092   5.248
  343WAT     H1 1271   1.154   0.996   5.232
  343WAT     H2 1272   1.203   1.150   5.212
  344WAT      O 1273   3.505   8.727   6.241
  344WAT     H1 1274   3.459   8.665   6.179
  344WAT     H2 1275   3.443   8.801   6.267
  345WAT      O 1276   8.706   0.823   6.894
  345WAT     H1 1277   8.799   0.806   6.927
  345WAT     H2 1278   8.703   0.808   6.795
  346WAT      O 1279   7.174   9.652   5.324
  346WAT     H1 1280   7.167   9.607   5.235
  346WAT     H2 1281   7.217   9.591   5.390
  347WAT      O 1282   2.060   5.771   2.229
  347WAT     H1 1283   2.135   5.796   2.168
  347WAT     H2 1284   1.974   5.808   2.193
  348WAT      O 1285   6.952   1.472   1.149
  348WAT     H1 1286   7.035   1.524   1.167
  348WAT     H2 1287   6.882   1.495   1.217
  349WAT      O 1288   4.241   4.426   9.360
  349WAT     H1 1289   4.176   4.432   9.436
  349WAT     H2 1290   4.294   4.341   9.368
  350WAT      O 1291   0.924   5.908   7.880
  350WAT     H1 1292   0.987   5.836   7.851
  350WAT     H2 1293   0.924   5.982   7.813
  351WAT      O 1294   3.580   6.396   2.316
  351WAT     H1 1295   3.557   6.458   2.390
  351WAT     H2 1296   3.528   6.311   2.326
  352WAT      O 1297   2.483   3.270   8.467
  352WAT     H1 1298   2.534   3.319   8.396
  352WAT     H2 1299   2.461   3.334   8.541
  353WAT      O 1300   2.366   3.528   9.530
  353WAT     H1 1301   2.410   3.607   9.488
  353WAT     H2 1302   2.415   3.504   9.614
  354WAT      O 1303   3.197   4.605   4.817
  354WAT     H1 1304   3.271   4.637   4.759
  354WAT     H2 1305   3.109   4.636   4.779
  355WAT      O 1306   3.694   3.101   2.921
  355WAT     H1 1307   3.599   3.071   2.906
  355WAT     H2 1308   3.752   3.020   2.930
  356WAT      O 1309   6.816   0.157   9.470
  356WAT     H1 1310   6.908   0.121   9.484
  356WAT     H2 1311   6.822   0.254   9.447
  357WAT      O 1312   3.764   1.732   6.345
  357WAT     H1 1313   3.709   1.785   6.281
  357WAT     H2 1314   3.846   1.783   6.370
  358WAT      O 1315   2.363   8.011   9.169
  358WAT     H1 1316   2.305   8.080   9.125
  358WAT     H2 1317   2.425   8.057   9.233
  359WAT      O 1318   6.675   4.418   3.879
  359WAT     H1 1319   6.650   4.515   3.878
  359WAT     H2 1320   6.762   4.406   3.928
  360WAT      O 1321   2.091   3.156   3.280
  360WAT     H1 1322   2.049   3.088   3.341
  360WAT     H2 1323   2.028   3.176   3.205
  361WAT      O 1324   4.979   8.916   1.034
  361WAT     H1 1325   5.009   8.990   0.974
  361WAT     H2 1326   4.912   8.859   0.986
  362WAT      O 1327   7.382   7.561   7.188
  362WAT     H1 1328   7.346   7.468   7.192
  362WAT     H2 1329   7.333   7.618   7.253
  363WAT      O 1330   6.150   5.335   9.681
  363WAT     H1 1331   6.225   5.282   9.644
  363WAT     H2 1332   6.074   5.274   9.706
  364WAT      O 1333   4.007   3.075   5.972
  364WAT     H1 1334   4.022   3.082   5.873
  364WAT     H2 1335   4.042   3.157   6.017
  365WAT      O 1336   5.373   9.644   4.772
  365WAT     H1 1337   5.380   9.727   4.716
  365WAT     H2 1338   5.424   9.570   4.727
  366WAT      O 1339   0.565   0.128   5.239
  366WAT     H1 1340   0.550   0.115   5.141
  366WAT     H2 1341   0.655   0.092   5.265
  367WAT      O 1342   6.919   3.499   2.568
  367WAT     H1 1343   6.847   3.551   2.522
  367WAT     H2 1344   6.881   3.416   2.608
  368WAT      O 1345   5.532   8.746   3.207
  368WAT     H1 1346   5.604   8.808   3.239
  368WAT     H2 1347   5.479   8.715   3.285
  369WAT      O 1348   1.534   9.607   5.103
  369WAT     H1 1349   1.555   9.705   5.103
  369WAT     H2 1350   1.517   9.577   5.009
  370WAT      O 1351   8.731   4.881   6.568
  370WAT     H1 1352   8.820   4.835   6.573
  370WAT     H2 1353   8.710   4.923   6.656
  371WAT      O 1354   6.153   9.414   4.492
  371WAT     H1 1355   6.095   9.437   4.414
  371WAT     H2 1356   6.236   9.470   4.490
  372WAT      O 1357   6.951   8.288   8.889
  372WAT     H1 1358   7.026   8.223   8.898
  372WAT     H2 1359   6.964   8.363   8.954
  373WAT      O 1360   2.858   0.272   3.676
  373WAT     H1 1361   2.864   0.281   3.775
  373WAT     H2 1362   2.949   0.285   3.635
  374WAT      O 1363   7.526   1.241   0.089
  374WAT     H1 1364   7.491   1.150   0.113
  374WAT     H2 1365   7.454   1.309   0.103
  375WAT      O 1366   1.127   2.003   8.636
  375WAT     H1 1367   1.098   2.068   8.706
  375WAT     H2 1368   1.117   2.045   8.546
  376WAT      O 1369   2.548   2.754   4.389
  376WAT     H1 1370   2.468   2.701   4.415
  376WAT     H2 1371   2.615   2.751   4.463
  377WAT      O 1372   9.334   3.960   5.940
  377WAT     H1 1373   9.423   3.976   5.981
  377WAT     H2 1374   9.262   3.987   6.004
  378WAT      O 1375   2.783   9.131   4.932
  378WAT     H1 1376   2.691   9.115   4.896
  378WAT     H2 1377   2.816   9.047   4.976
  379WAT      O 1378   4.779   0.178   4.901
  379WAT     H1 1379   4.861   0.222   4.939
  379WAT     H2 1380   4.755   0.099   4.958
  380WAT      O 1381   8.332   0.954   3.411
  380WAT     H1 1382   8.261   1.023   3.418
  380WAT     H2 1383   8.416   0.996   3.377
  381WAT      O 1384   4.289   5.541   4.140
  381WAT     H1 1385   4.219   5.542   4.069
  381WAT     H2 1386   4.328   5.633   4.150
  382WAT      O 1387   4.325   7.669   5.494
  382WAT     H1 1388   4.390   7.745   5.491
  382WAT     H2 1389   4.241   7.699   5.540
  383WAT      O 1390   6.303   8.481   6.596
  383WAT     H1 1391   6.290   8.548   6.523
  383WAT     H2 1392   6.279   8.522   6.684
  384WAT      O 1393   1.457   5.290   6.748
  384WAT     H1 1394   1.380   5.328   6.799
  384WAT     H2 1395   1.487   5.205   6.792
  385WAT      O 1396   4.660   7.272   0.252
  385WAT     H1 1397   4.586   7.280   0.185
  385WAT     H2 1398   4.670   7.358   0.302
  386WAT      O 1399   4.272   5.526   2.645
  386WAT     H1 1400   4.367   5.499   2.661
  386WAT     H2 1401   4.256   5.618   2.681
  387WAT      O 1402   9.109   7.553   4.630
  387WAT     H1 1403   9.153   7.642   4.636
  387WAT     H2 1404   9.057   7.546   4.544
  388WAT      O 1405   8.960   3.430   4.585
  388WAT     H1 1406   9.044   3.482   4.568
  388WAT     H2 1407   8.941   3.428   4.683
  389WAT      O 1408   8.398   1.499   0.634
  389WAT     H1 1409   8.382   1.560   0.711
  389WAT     H2 1410   8.488   1.519   0.594
  390WAT      O 1411   3.269   1.393   7.762
  390WAT     H1 1412   3.268   1.316   7.827
  390WAT     H2 1413   3.221   1.367   7.678
  391WAT      O 1414   6.731   4.040   9.412
  391WAT     H1 1415   6.761   4.024   9.318
  391WAT     H2 1416   6.766   4.128   9.443
  392WAT      O 1417   6.729   5.223   9.557
  392WAT     H1 1418   6.728   5.235   9.656
  392WAT     H2 1419   6.802   5.160   9.531
  393WAT      O 1420   7.948   1.817   5.024
  393WAT     H1 1421   7.893   1.739   4.996
  393WAT     H2 1422   7.964   1.876   4.945
  394WAT      O 1423   8.784   8.007   8.202
  394WAT     H1 1424   8.745   7.917   8.221
  394WAT     H2 1425   8.880   8.009   8.232
  395WAT      O 1426   0.188   2.960   5.294
  395WAT     H1 1427   0.105   2.988   5.245
  395WAT     H2 1428   0.263   2.950   5.229
  396WAT      O 1429   3.114   3.952   5.450
  396WAT     H1 1430   3.139   4.015   5.376
  396WAT     H2 1431   3.015   3.934   5.447
  397WAT      O 1432   4.460   0.869   7.465
  397WAT     H1 1433   4.421   0.779   7.485
  397WAT     H2 1434   4.454   0.927   7.546
  398WAT      O 1435   8.591   2.962   6.450
  398WAT     H1 1436   8.619   3.057   6.463
  398WAT     H2 1437   8.582   2.917   6.539
  399WAT      O 1438   2.214   6.795   4.603
  399WAT     H1 1439   2.269   6.738   4.665
  399WAT     H2 1440   2.117   6.776   4.617
  400WAT      O 1441   9.688   2.931   1.379
  400WAT     H1 1442   9.623   2.913   1.453
  400WAT     H2 1443   9.766   2.869   1.387
  401WAT      O 1444   4.942   3.528   9.691
  401WAT     H1 1445   4.936   3.446   9.634
  401WAT     H2 1446   4.913   3.505   9.784
  402WAT      O 1447   5.355   0.460   8.361
  402WAT     H1 1448   5.346   0.375   8.414
  402WAT     H2 1449   5.388   0.438   8.269
  403WAT      O 1450   2.649   7.228   8.705
  403WAT     H1 1451   2.642   7.254   8.609
  403WAT     H2 1452   2.563   7.185   8.734
  404WAT      O 1453   9.199   9.291   3.686
  404WAT     H1 1454   9.226   9.205   3.644
  404WAT     H2 1455   9.147   9.346   3.620
  405WAT      O 1456   7.714   5.211   0.965
  405WAT     H1 1457   7.793   5.264   0.996
  405WAT     H2 1458   7.743   5.149   0.892
  406WAT      O 1459   6.932   7.813   8.691
  406WAT     H1 1460   6.911   7.876   8.766
  406WAT     H2 1461   6.935   7.864   8.605
  407WAT      O 1462   3.702   8.057   4.335
  407WAT     H1 1463   3.753   7.998   4.397
  407WAT     H2 1464   3.695   8.149   4.374
  408WAT      O 1465   7.890   7.406   5.108
  408WAT     H1 1466   7.930   7.492   5.078
  408WAT     H2 1467   7.962   7.345   5.141
  409WAT      O 1468   7.059   7.673   1.768
  409WAT     H1 1469   7.007   7.696   1.686
  409WAT     H2 1470   7.075   7.756   1.822
  410WAT      O 1471   2.952   2.693   0.698
  410WAT     H1 1472   2.876   2.638   0.733
  410WAT     H2 1473   2.933   2.720   0.604
  411WAT      O 1474   0.211   6.223   8.119
  411WAT     H1 1475   0.159   6.259   8.042
  411WAT     H2 1476   0.172   6.135   8.147
  412WAT      O 1477   8.157   9.621   2.876
  412WAT     H1 1478   8.099   9.539   2.878
  412WAT     H2 1479   8.165   9.658   2.969
  413WAT      O 1480   1.347   7.675   1.259
  413WAT     H1 1481   1.273   7.612   1.285
  413WAT     H2 1482   1.350   7.683   1.160
  414WAT      O 1483   0.290   2.283   4.501
  414WAT     H1 1484   0.243   2.370   4.514
  414WAT     H2 1485   0.389   2.299   4.493
  415WAT      O 1486   7.523   3.659   8.682
  415WAT     H1 1487   7.589   3.595   8.720
  415WAT     H2 1488   7.515   3.739   8.741
  416WAT      O 1489   0.006   4.441   4.043
  416WAT     H1 1490   0.078   4.385   4.002
  416WAT     H2 1491  -0.055   4.475   3.971
  417WAT      O 1492   5.206   3.747   1.692
  417WAT     H1 1493   5.178   3.763   1.597
  417WAT     H2 1494   5.126   3.752   1.752
  418WAT      O 1495   4.410   0.341   3.306
  418WAT     H1 1496   4.351   0.262   3.322
  418WAT     H2 1497   4.502   0.321   3.339
  419WAT      O 1498   0.741   3.940   6.622
  419WAT     H1 1499   0.799   3.906   6.696
  419WAT     H2 1500   0.650   3.899   6.631
  420WAT      O 1501   7.629   3.069   2.208
  420WAT     H1 1502   7.618   2.990   2.147
  420WAT     H2 1503   7.727   3.086   2.221
  421WAT      O 1504   3.603   4.614   5.271
  421WAT     H1 1505   3.678   4.654   5.324
  421WAT     H2 1506   3.566   4.535   5.320
  422WAT      O 1507   0.689   0.320   4.656
  422WAT     H1 1508   0.592   0.305   4.637
  422WAT     H2 1509   0.706   0.304   4.753
  423WAT      O 1510   1.271   4.124   7.097
  423WAT     H1 1511   1.244   4.030   7.076
  423WAT     H2 1512   1.337   4.124   7.172
  424WAT      O 1513   0.713   2.511   2.508
  424WAT     H1 1514   0.665   2.575   2.448
  424WAT     H2 1515   0.759   2.561   2.581
  425WAT      O 1516   4.753   8.891   6.377
  425WAT     H1 1517   4.715   8.983   6.382
  425WAT     H2 1518   4.725   8.847   6.292
  426WAT      O 1519   1.237   4.474   7.254
  426WAT     H1 1520   1.308   4.417   7.212
  426WAT     H2 1521   1.280   4.541   7.315
  427WAT      O 1522   9.155   7.739   7.516
  427WAT     H1 1523   9.180   7.674   7.444
  427WAT     H2 1524   9.121   7.823   7.475
  428WAT      O 1525   6.299   5.719   2.537
  428WAT     H1 1526   6.200   5.720   2.550
  428WAT     H2 1527   6.336   5.809   2.558
  429WAT      O 1528   9.105   1.868   5.450
  429WAT     H1 1529   9.033   1.839   5.513
  429WAT     H2 1530   9.099   1.814   5.366
  430WAT      O 1531   1.720   7.840   8.365
  430WAT     H1 1532   1.639   7.897   8.352
  430WAT     H2 1533   1.763   7.823   8.277
  431WAT      O 1534   4.663   7.392   5.784
  431WAT     H1 1535   4.694   7.394   5.689
  431WAT     H2 1536   4.627   7.302   5.806
  432WAT      O 1537   6.373   2.007   1.217
  432WAT     H1 1538   6.390   2.055   1.131
  432WAT     H2 1539   6.318   1.926   1.201
  433WAT      O 1540   3.860   3.921   8.549
  433WAT     H1 1541   3.787   3.904   8.483
  433WAT     H2 1542   3.819   3.947   8.637
  434WAT      O 1543   4.750   5.667   2.760
  434WAT     H1 1544   4.728   5.635   2.852
  434WAT     H2 1545   4.705   5.608   2.693
  435WAT      O 1546   6.843   3.596   5.972
  435WAT     H1 1547   6.821   3.682   6.019
  435WAT     H2 1548   6.766   3.570   5.914
  436WAT      O 1549   1.052   5.601   0.700
  436WAT     H1 1550   1.009   5.556   0.778
  436WAT     H2 1551   1.040   5.700   0.707
  437WAT      O 1552   8.970   0.221   4.628
  437WAT     H1 1553   9.067   0.239   4.641
  437WAT     H2 1554   8.955   0.183   4.536
  438WAT      O 1555   1.568   4.202   8.497
  438WAT     H1 1556   1.483   4.196   8.445
  438WAT     H2 1557   1.547   4.207   8.595
  439WAT      O 1558   7.377   7.680   4.490
  439WAT     H1 1559   7.377   7.679   4.590
  439WAT     H2 1560   7.447   7.744   4.457
  440WAT      O 1561   6.210   4.264   5.664
  440WAT     H1 1562   6.206   4.350   5.612
  440WAT     H2 1563   6.145   4.199   5.625
  441WAT      O 1564   9.339   3.968   5.608
  441WAT     H1 1565   9.422   3.940   5.558
  441WAT     H2 1566   9.331   4.068   5.606
  442WAT      O 1567   9.673   1.549   5.619
  442WAT     H1 1568   9.763   1.506   5.614
  442WAT     H2 1569   9.603   1.485   5.588
  443WAT      O 1570   8.297  -0.005   9.033
  443WAT     H1 1571   8.384   0.023   8.993
  443WAT     H2 1572   8.244   0.076   9.059
  444WAT      O 1573   2.697   6.641   6.954
  444WAT     H1 1574   2.608   6.656   6.997
  444WAT     H2 1575   2.727   6.548   6.971
  445WAT      O 1576   3.905   5.125   6.985
  445WAT     H1 1577   3.996   5.121   6.943
  445WAT     H2 1578   3.836   5.123   6.913
  446WAT      O 1579   7.770   6.944   9.211
  446WAT     H1 1580   7.736   7.037   9.200
  446WAT     H2 1581   7.736   6.905   9.297
  447WAT      O 1582   9.783   3.579   0.381
  447WAT     H1 1583   9.738   3.495   0.350
  447WAT     H2 1584   9.846   3.557   0.456
  448WAT      O 1585   0.760   0.554   8.619
  448WAT     H1 1586   0.774   0.594   8.709
  448WAT     H2 1587   0.844   0.511   8.588
  449WAT      O 1588   0.358   9.246   4.956
  449WAT     H1 1589   0.283   9.180   4.960
  449WAT     H2 1590   0.444   9.199   4.974
  450WAT      O 1591   9.529   6.843   2.664
  450WAT     H1 1592   9.549   6.806   2.755
  450WAT     H2 1593   9.534   6.943   2.667
  451WAT      O 1594   0.558   5.087   0.177
  451WAT     H1 1595   0.651   5.052   0.174
  451WAT     H2 1596   0.498   5.029   0.121
  452WAT      O 1597   8.879   7.729   1.974
  452WAT     H1 1598   8.809   7.776   1.920
  452WAT     H2 1599   8.860   7.631   1.974
  453WAT      O 1600   5.834   5.119   7.260
  453WAT     H1 1601   5.880   5.060   7.193
  453WAT     H2 1602   5.844   5.215   7.233
  454WAT      O 1603   2.686   2.064   5.427
  454WAT     H1 1604   2.608   2.111   5.469
  454WAT     H2 1605   2.662   1.969   5.409
  455WAT      O 1606   4.842   8.075   7.453
  455WAT     H1 1607   4.763   8.067   7.392
  455WAT     H2 1608   4.810   8.090   7.547
  456WAT      O 1609   1.928   5.676   4.762
  456WAT     H1 1610   1.997   5.661   4.691
  456WAT     H2 1611   1.837   5.658   4.724
  457WAT      O 1612   3.969   1.588   1.082
  457WAT     H1 1613   3.874   1.619   1.081
  457WAT     H2 1614   3.999   1.570   0.988
  458WAT      O 1615   2.215   5.365   5.844
  458WAT     H1 1616   2.175   5.448   5.883
  458WAT     H2 1617   2.186   5.354   5.749
  459WAT      O 1618   8.001   7.505   7.196
  459WAT     H1 1619   8.070   7.468   7.258
  459WAT     H2 1620   8.042   7.520   7.105
  460WAT      O 1621   9.123   3.291   6.547
  460WAT     H1 1622   9.197   3.257   6.489
  460WAT     H2 1623   9.135   3.256   6.640
  461WAT      O 1624   1.081   0.366   5.221
  461WAT     H1 1625   1.164   0.383   5.275
  461WAT     H2 1626   1.072   0.436   5.151
  462WAT      O 1627   6.127   4.627   1.540
  462WAT     H1 1628   6.212   4.604   1.492
  462WAT     H2 1629   6.119   4.726   1.547
  463WAT      O 1630   8.007   7.290   2.282
  463WAT     H1 1631   8.093   7.308   2.329
  463WAT     H2 1632   7.957   7.218   2.330
  464WAT      O 1633   6.455   0.771   4.011
  464WAT     H1 1634   6.375   0.732   3.965
  464WAT     H2 1635   6.445   0.761   4.110
  465WAT      O 1636   7.826   6.128   2.308
  465WAT     H1 1637   7.812   6.177   2.222
  465WAT     H2 1638   7.853   6.034   2.288
  466WAT      O 1639   4.281   5.060   6.155
  466WAT     H1 1640   4.304   5.154   6.130
  466WAT     H2 1641   4.322   4.998   6.088
  467WAT      O 1642   5.248   7.048   9.413
  467WAT     H1 1643   5.155   7.057   9.379
  467WAT     H2 1644   5.275   7.133   9.459
  468WAT      O 1645   7.800   0.453   4.603
  468WAT     H1 1646   7.848   0.528   4.648
  468WAT     H2 1647   7.730   0.416   4.665
  469WAT      O 1648   3.062   3.034   7.722
  469WAT     H1 1649   3.061   3.052   7.820
  469WAT     H2 1650   3.157   3.034   7.689
  470WAT      O 1651   1.700   6.013   0.684
  470WAT     H1 1652   1.619   5.997   0.627
  470WAT     H2 1653   1.692   6.100   0.731
  471WAT      O 1654   2.766   0.287   7.750
  471WAT     H1 1655   2.696   0.296   7.680
  471WAT     H2 1656   2.751   0.203   7.802
  472WAT      O 1657   6.822   7.228   6.749
  472WAT     H1 1658   6.840   7.138   6.790
  472WAT     H2 1659   6.881   7.297   6.793
  473WAT      O 1660   7.050   8.152   2.129
  473WAT     H1 1661   7.078   8.060   2.156
  473WAT     H2 1662   7.047   8.158   2.029
  474WAT      O 1663   4.258   8.579   3.867
  474WAT     H1 1664   4.177   8.573   3.925
  474WAT     H2 1665   4.330   8.521   3.904
  475WAT      O 1666   6.299   2.172   5.091
  475WAT     H1 1667   6.236   2.175   5.013
  475WAT     H2 1668   6.304   2.078   5.126
  476WAT      O 1669   1.435   4.629   6.933
  476WAT     H1 1670   1.345   4.615   6.891
  476WAT     H2 1671   1.428   4.699   7.004
  477WAT      O 1672   8.465   7.667   7.744
  477WAT     H1 1673   8.367   7.665   7.722
  477WAT     H2 1674   8.504   7.755   7.717
  478WAT      O 1675   8.664   3.018   0.123
  478WAT     H1 1676   8.730   2.951   0.157
  478WAT     H2 1677   8.617   3.061   0.199
  479WAT      O 1678   9.052   6.709   4.896
  479WAT     H1 1679   8.965   6.717   4.943
  479WAT     H2 1680   9.127   6.710   4.963
  480WAT      O 1681   0.436   4.873   9.521
  480WAT     H1 1682   0.493   4.944   9.564
  480WAT     H2 1683   0.340   4.895   9.535
  481WAT      O 1684   1.011   0.091   0.308
  481WAT     H1 1685   1.069   0.169   0.285
  481WAT     H2 1686   0.915   0.119   0.302
  482WAT      O 1687   1.171   1.075   2.519
  482WAT     H1 1688   1.143   1.137   2.592
  482WAT     H2 1689   1.200   0.988   2.559
  483WAT      O 1690   5.717   5.228   8.426
  483WAT     H1 1691   5.798   5.205   8.480
  483WAT     H2 1692   5.745   5.262   8.337
  484WAT      O 1693   1.748   2.887   9.322
  484WAT     H1 1694   1.762   2.864   9.419
  484WAT     H2 1695   1.812   2.836   9.266
  485WAT      O 1696   9.256   2.065   9.776
  485WAT     H1 1697   9.349   2.027   9.776
  485WAT     H2 1698   9.201   2.019   9.706
  486WAT      O 1699   1.748   0.027   6.867
  486WAT     H1 1700   1.816  -0.011   6.804
  486WAT     H2 1701   1.670   0.062   6.816
  487WAT      O 1702   1.325   8.666   9.519
  487WAT     H1 1703   1.406   8.609   9.509
  487WAT     H2 1704   1.313   8.690   9.616
  488WAT      O 1705   3.114   4.270   6.046
  488WAT     H1 1706   3.014   4.276   6.039
  488WAT     H2 1707   3.154   4.357   6.018
  489WAT      O 1708   8.262   7.963   0.556
  489WAT     H1 1709   8.210   7.938   0.638
  489WAT     H2 1710   8.219   7.922   0.476
  490WAT      O 1711   7.351   6.218   2.271
  490WAT     H1 1712   7.266   6.183   2.232
  490WAT     H2 1713   7.427   6.196   2.210
  491WAT      O 1714   3.195   5.532   4.244
  491WAT     H1 1715   3.252   5.608   4.212
  491WAT     H2 1716   3.236   5.445   4.216
  492WAT      O 1717   6.513   9.186   4.344
  492WAT     H1 1718   6.428   9.157   4.387
  492WAT     H2 1719   6.590   9.160   4.403
  493WAT      O 1720   7.698   1.402   7.272
  493WAT     H1 1721   7.717   1.495   7.239
  493WAT     H2 1722   7.613   1.402   7.326
  494WAT      O 1723   5.608   5.265   8.952
  494WAT     H1 1724   5.707   5.260   8.941
  494WAT     H2 1725   5.564   5.268   8.862
  495WAT      O 1726   0.187   4.415   0.311
  495WAT     H1 1727   0.276   4.371   0.294
  495WAT     H2 1728   0.130   4.354   0.366
  496WAT      O 1729   4.529   2.760   2.991
  496WAT     H1 1730   4.542   2.756   2.892
  496WAT     H2 1731   4.608   2.719   3.037
  497WAT      O 1732   0.177   8.207   4.909
  497WAT     H1 1733   0.240   8.155   4.967
  497WAT     H2 1734   0.161   8.297   4.950
  498WAT      O 1735   1.903   3.586   6.582
  498WAT     H1 1736   1.994   3.554   6.608
  498WAT     H2 1737   1.894   3.580   6.483
  499WAT      O 1738   6.766   3.819   1.769
  499WAT     H1 1739   6.699   3.829   1.695
  499WAT     H2 1740   6.858   3.833   1.733
  500WAT      O 1741   5.436   7.898   0.826
  500WAT     H1 1742   5.440   7.892   0.726
  500WAT     H2 1743   5.526   7.923   0.862
  501WAT      O 1744   0.938   3.792   0.097
  501WAT     H1 1745   0.896   3.775   0.187
  501WAT     H2 1746   0.986   3.710   0.067
  502WAT      O 1747   0.500   7.060   0.034
  502WAT     H1 1748   0.584   7.012   0.009
  502WAT     H2 1749   0.420   7.007   0.003
  503WAT      O 1750   3.006   5.528   7.506
  503WAT     H1 1751   3.062   5.611   7.512
  503WAT     H2 1752   2.972   5.518   7.412
  504WAT      O 1753   1.187   8.526   4.040
  504WAT     H1 1754   1.280   8.561   4.026
  504WAT     H2 1755   1.162   8.466   3.964
  505WAT      O 1756   9.132   3.768   1.340
  505WAT     H1 1757   9.223   3.740   1.309
  505WAT     H2 1758   9.088   3.822   1.268
  506WAT      O 1759   2.159   0.409   0.829
  506WAT     H1 1760   2.141   0.342   0.758
  506WAT     H2 1761   2.207   0.365   0.905
  507WAT      O 1762   8.609   3.969   7.311
  507WAT     H1 1763   8.572   3.883   7.346
  507WAT     H2 1764   8.680   3.950   7.244
  508WAT      O 1765   8.279   4.082   6.404
  508WAT     H1 1766   8.327   4.032   6.475
  508WAT     H2 1767   8.189   4.040   6.389
  509WAT      O 1768   0.860   7.301   2.740
  509WAT     H1 1769   0.865   7.201   2.741
  509WAT     H2 1770   0.950   7.338   2.718
  510WAT      O 1771   4.920   0.212   9.011
  510WAT     H1 1772   4.940   0.117   9.036
  510WAT     H2 1773   4.980   0.240   8.936
  511WAT      O 1774   2.036   2.643   0.678
  511WAT     H1 1775   2.112   2.673   0.620
  511WAT     H2 1776   2.035   2.694   0.763
  512WAT      O 1777   1.455   0.203   3.176
  512WAT     H1 1778   1.531   0.173   3.119
  512WAT     H2 1779   1.401   0.123   3.204
  513WAT      O 1780   0.852   2.028   8.351
  513WAT     H1 1781   0.939   2.010   8.395
  513WAT     H2 1782   0.863   2.023   8.252
  514WAT      O 1783   6.610   5.663   5.895
  514WAT     H1 1784   6.679   5.702   5.834
  514WAT     H2 1785   6.585   5.730   5.965
  515WAT      O 1786   1.200   6.619   5.950
  515WAT     H1 1787   1.290   6.637   5.911
  515WAT     H2 1788   1.138   6.695   5.929
  516WAT      O 1789   0.502   0.414   0.496
  516WAT     H1 1790   0.450   0.420   0.582
  516WAT     H2 1791   0.564   0.336   0.500
  517WAT      O 1792   5.657   1.991   9.587
  517WAT     H1 1793   5.666   1.921   9.517
  517WAT     H2 1794   5.561   2.014   9.600
  518WAT      O 1795   2.382   6.475   9.080
  518WAT     H1 1796   2.388   6.540   9.156
  518WAT     H2 1797   2.403   6.521   8.994
  519WAT      O 1798   4.243   4.975   2.881
  519WAT     H1 1799   4.211   4.979   2.787
  519WAT     H2 1800   4.253   4.879   2.908
  520WAT      O 1801   4.083   3.225   4.432
  520WAT     H1 1802   4.158   3.193   4.373
  520WAT     H2 1803   3.996   3.206   4.388
  521WAT      O 1804   8.983   5.891   8.480
  521WAT     H1 1805   8.983   5.794   8.457
  521WAT     H2 1806   9.067   5.933   8.446
  522WAT      O 1807   5.554   3.880   2.551
  522WAT     H1 1808   5.531   3.851   2.644
  522WAT     H2 1809   5.491   3.836   2.486
  523WAT      O 1810   8.009   1.936   7.510
  523WAT     H1 1811   7.980   1.869   7.442
  523WAT     H2 1812   8.105   1.960   7.494
  524WAT      O 1813   3.490   0.282   3.855
  524WAT     H1 1814   3.573   0.231   3.878
  524WAT     H2 1815   3.413   0.218   3.845
  525WAT      O 1816   4.148   2.263   4.331
  525WAT     H1 1817   4.184   2.355   4.313
  525WAT     H2 1818   4.221   2.205   4.367
  526WAT      O 1819   9.314   1.233   1.682
  526WAT     H1 1820   9.258   1.269   1.756
  526WAT     H2 1821   9.366   1.308   1.640
  527WAT      O 1822   7.697   6.708   1.195
  527WAT     H1 1823   7.709   6.795   1.148
  527WAT     H2 1824   7.603   6.699   1.227
  528WAT      O 1825   4.250   5.855   2.096
  528WAT     H1 1826   4.189   5.921   2.139
  528WAT     H2 1827   4.197   5.798   2.033
  529WAT      O 1828   1.007   5.952   4.084
  529WAT     H1 1829   0.911   5.981   4.075
  529WAT     H2 1830   1.013   5.881   4.154
  530WAT      O 1831   2.990   6.670   2.316
  530WAT     H1 1832   2.925   6.687   2.390
  530WAT     H2 1833   3.036   6.756   2.291
  531WAT      O 1834   5.157   5.397   0.266
  531WAT     H1 1835   5.238   5.455   0.264
  531WAT     H2 1836   5.078   5.450   0.236
  532WAT      O 1837   3.748   7.248   6.902
  532WAT     H1 1838   3.799   7.171   6.863
  532WAT     H2 1839   3.690   7.216   6.977
  533WAT      O 1840   6.415   8.986   1.475
  533WAT     H1 1841   6.458   9.073   1.449
  533WAT     H2 1842   6.477   8.936   1.535
  534WAT      O 1843   2.205   4.563   9.024
  534WAT     H1 1844   2.200   4.603   8.932
  534WAT     H2 1845   2.261   4.480   9.020
  535WAT      O 1846   4.048   7.665   1.451
  535WAT     H1 1847   4.093   7.643   1.364
  535WAT     H2 1848   4.044   7.764   1.463
  536WAT      O 1849   6.684   4.169   4.928
  536WAT     H1 1850   6.710   4.140   5.020
  536WAT     H2 1851   6.726   4.258   4.908
  537WAT      O 1852   1.978   7.433   4.436
  537WAT     H1 1853   2.053   7.487   4.396
  537WAT     H2 1854   1.907   7.419   4.367
  538WAT      O 1855   5.253   7.997   5.895
  538WAT     H1 1856   5.333   8.041   5.934
  538WAT     H2 1857   5.192   8.066   5.857
  539WAT      O 1858   9.185   8.481   3.256
  539WAT     H1 1859   9.147   8.521   3.340
  539WAT     H2 1860   9.110   8.455   3.195
  540WAT      O 1861   5.445   5.764   2.126
  540WAT     H1 1862   5.470   5.813   2.210
  540WAT     H2 1863   5.404   5.676   2.149
  541WAT      O 1864   6.016   6.036   2.833
  541WAT     H1 1865   6.046   6.119   2.881
  541WAT     H2 1866   5.986   6.060   2.741
  542WAT      O 1867   8.021   4.796   3.897
  542WAT     H1 1868   8.013   4.796   3.996
  542WAT     H2 1869   7.961   4.725   3.859
  543WAT      O 1870   8.679   5.320   8.446
  543WAT     H1 1871   8.638   5.238   8.405
  543WAT     H2 1872   8.612   5.363   8.506
  544WAT      O 1873   7.464   2.074   5.401
  544WAT     H1 1874   7.453   1.976   5.416
  544WAT     H2 1875   7.561   2.098   5.411
  545WAT      O 1876   3.135   3.816   4.543
  545WAT     H1 1877   3.153   3.739   4.482
  545WAT     H2 1878   3.100   3.893   4.490
  546WAT      O 1879   0.008   6.489   2.543
  546WAT     H1 1880  -0.016   6.406   2.491
  546WAT     H2 1881   0.072   6.465   2.616
  547WAT      O 1882   6.871   3.984   6.542
  547WAT     H1 1883   6.834   3.911   6.484
  547WAT     H2 1884   6.882   3.951   6.635
  548WAT      O 1885   8.341   4.584   2.048
  548WAT     H1 1886   8.418   4.540   2.002
  548WAT     H2 1887   8.256   4.542   2.019
  549WAT      O 1888   7.301   9.324   3.378
  549WAT     H1 1889   7.203   9.342   3.389
  549WAT     H2 1890   7.315   9.228   3.357
  550WAT      O 1891   4.197   7.880   1.783
  550WAT     H1 1892   4.150   7.811   1.839
  550WAT     H2 1893   4.225   7.839   1.696
  551WAT      O 1894   2.471   0.989   1.053
  551WAT     H1 1895   2.440   0.949   0.966
  551WAT     H2 1896   2.512   1.079   1.036
  552WAT      O 1897   8.990   2.215   5.237
  552WAT     H1 1898   9.032   2.240   5.150
  552WAT     H2 1899   8.892   2.234   5.233
  553WAT      O 1900   4.641   6.362   1.638
  553WAT     H1 1901   4.739   6.344   1.648
  553WAT     H2 1902   4.596   6.358   1.727
  554WAT      O 1903   5.369   4.590   6.408
  554WAT     H1 1904   5.325   4.610   6.495
  554WAT     H2 1905   5.424   4.507   6.416
  555WAT      O 1906   0.217   3.736   0.050
  555WAT     H1 1907   0.293   3.788   0.089
  555WAT     H2 1908   0.143   3.798   0.026
  556WAT      O 1909   5.689   2.734   5.070
  556WAT     H1 1910   5.614   2.751   5.006
  556WAT     H2 1911   5.774   2.771   5.033
  557WAT      O 1912   5.093   0.285   6.229
  557WAT     H1 1913   5.185   0.316   6.205
  557WAT     H2 1914   5.070   0.315   6.322
  558WAT      O 1915   6.021   6.584   4.202
  558WAT     H1 1916   6.074   6.613   4.282
  558WAT     H2 1917   6.035   6.486   4.186
  559WAT      O 1918   3.241   5.376   6.941
  559WAT     H1 1919   3.199   5.298   6.893
  559WAT     H2 1920   3.336   5.385   6.912
  560WAT      O 1921   5.009   0.938   6.853
  560WAT     H1 1922   4.918   0.910   6.883
  560WAT     H2 1923   5.078   0.884   6.901
  561WAT      O 1924   4.273   8.330   1.170
  561WAT     H1 1925   4.368   8.299   1.162
  561WAT     H2 1926   4.247   8.333   1.266
  562WAT      O 1927   7.036   6.763   6.224
  562WAT     H1 1928   6.939   6.749   6.204
  562WAT     H2 1929   7.060   6.860   6.210
  563WAT      O 1930   1.672   8.399   2.866
  563WAT     H1 1931   1.602   8.328   2.879
  563WAT     H2 1932   1.643   8.483   2.912
  564WAT      O 1933   5.315   2.084   3.883
  564WAT     H1 1934   5.337   1.990   3.908
  564WAT     H2 1935   5.388   2.144   3.914
  565WAT      O 1936   4.586   6.608   1.525
  565WAT     H1 1937   4.676   6.639   1.496
  565WAT     H2 1938   4.589   6.511   1.546
  566WAT      O 1939   6.611   0.412   8.648
  566WAT     H1 1940   6.568   0.335   8.601
  566WAT     H2 1941   6.540   0.476   8.679
  567WAT      O 1942   7.123   2.602   7.335
  567WAT     H1 1943   7.075   2.688   7.354
  567WAT     H2 1944   7.074   2.527   7.378
  568WAT      O 1945   4.253   7.274   5.772
  568WAT     H1 1946   4.295   7.318   5.693
  568WAT     H2 1947   4.275   7.176   5.771
  569WAT      O 1948   9.177   2.713   1.696
  569WAT     H1 1949   9.174   2.706   1.596
  569WAT     H2 1950   9.247   2.651   1.732
  570WAT      O 1951   2.143   1.849   3.729
  570WAT     H1 1952   2.236   1.863   3.694
  570WAT     H2 1953   2.081   1.835   3.652
  571WAT      O 1954   3.375   9.192   5.003
  571WAT     H1 1955   3.356   9.270   4.943
  571WAT     H2 1956   3.290   9.140   5.017
  572WAT      O 1957   9.845   4.808   4.264
  572WAT     H1 1958   9.913   4.736   4.248
  572WAT     H2 1959   9.756   4.779   4.229
  573WAT      O 1960   5.726   4.146   5.302
  573WAT     H1 1961   5.698   4.152   5.398
  573WAT     H2 1962   5.745   4.238   5.268
  574WAT      O 1963   2.357   5.821   9.327
  574WAT     H1 1964   2.278   5.861   9.279
  574WAT     H2 1965   2.430   5.804   9.261
  575WAT      O 1966   3.891   7.040   0.732
  575WAT     H1 1967   3.898   7.130   0.775
  575WAT     H2 1968   3.982   6.999   0.725
  576WAT      O 1969   1.633   5.084   0.885
  576WAT     H1 1970   1.542   5.063   0.921
  576WAT     H2 1971   1.703   5.037   0.939
  577WAT      O 1972   3.142   6.636   7.206
  577WAT     H1 1973   3.188   6.583   7.277
  577WAT     H2 1974   3.075   6.579   7.160
  578WAT      O 1975   5.683   5.194   7.664
  578WAT     H1 1976   5.702   5.279   7.616
  578WAT     H2 1977   5.585   5.184   7.679
  579WAT      O 1978   2.709   6.534   0.677
  579WAT     H1 1979   2.666   6.593   0.745
  579WAT     H2 1980   2.738   6.448   0.720
  580WAT      O 1981   6.635   2.541   5.595
  580WAT     H1 1982   6.709   2.595   5.554
  580WAT     H2 1983   6.551   2.594   5.593
  581WAT      O 1984   6.585   5.285   5.701
  581WAT     H1 1985   6.504   5.263   5.756
  581WAT     H2 1986   6.591   5.383   5.687
  582WAT      O 1987   5.988   0.524   6.194
  582WAT     H1 1988   6.034   0.548   6.108
  582WAT     H2 1989   5.897   0.566   6.196
  583WAT      O 1990   1.625   6.254   5.030
  583WAT     H1 1991   1.719   6.277   5.053
  583WAT     H2 1992   1.563   6.311   5.084
  584WAT      O 1993   7.144   2.465   9.045
  584WAT     H1 1994   7.057   2.512   9.033
  584WAT     H2 1995   7.217   2.520   9.004
  585WAT      O 1996   2.764   7.645   1.310
  585WAT     H1 1997   2.741   7.720   1.373
  585WAT     H2 1998   2.680   7.597   1.284
  586WAT      O 1999   1.145   9.622   5.101
  586WAT     H1 2000   1.121   9.718   5.116
  586WAT     H2 2001   1.184   9.611   5.010
  587WAT      O 2002   1.782   1.795   3.952
  587WAT     H1 2003   1.872   1.755   3.972
  587WAT     H2 2004   1.795   1.888   3.917
  588WAT      O 2005   9.023   0.751   3.045
  588WAT     H1 2006   9.061   0.784   3.132
  588WAT     H2 2007   8.951   0.814   3.015
  589WAT      O 2008   2.091   6.283   2.232
  589WAT     H1 2009   2.092   6.242   2.141
  589WAT     H2 2010   2.156   6.359   2.234
  590WAT      O 2011   6.564   7.554   0.681
  590WAT     H1 2012   6.619   7.473   0.698
  590WAT     H2 2013   6.623   7.628   0.648
  591WAT      O 2014   5.901   5.308   0.290
  591WAT     H1 2015   5.952   5.374   0.346
  591WAT     H2 2016   5.898   5.220   0.336
  592WAT      O 2017   1.155   2.175   7.470
  592WAT     H1 2018   1.135   2.234   7.391
  592WAT     H2 2019   1.136   2.080   7.447
  593WAT      O 2020   6.406   0.319   4.904
  593WAT     H1 2021   6.405   0.352   4.998
  593WAT     H2 2022   6.382   0.394   4.842
  594WAT      O 2023   3.874   1.750   4.528
  594WAT     H1 2024   3.949   1.685   4.518
  594WAT     H2 2025   3.894   1.833   4.477
  595WAT      O 2026   4.984   8.870   2.678
  595WAT     H1 2027   4.909   8.897   2.618
  595WAT     H2 2028   5.010   8.948   2.735
  596WAT      O 2029   5.204   7.823   3.605
  596WAT     H1 2030   5.116   7.844   3.648
  596WAT     H2 2031   5.226   7.727   3.622
  597WAT      O 2032   9.667   2.137   6.743
  597WAT     H1 2033   9.617   2.188   6.673
  597WAT     H2 2034   9.750   2.187   6.767
  598WAT      O 2035   2.645   4.833   2.917
  598WAT     H1 2036   2.721   4.823   2.981
  598WAT     H2 2037   2.647   4.758   2.851
  599WAT      O 2038   2.976   0.083   5.386
  599WAT     H1 2039   2.949   0.014   5.454
  599WAT     H2 2040   3.069   0.065   5.355
  600WAT      O 2041   1.683   7.973   7.314
  600WAT     H1 2042   1.765   7.970   7.372
  600WAT     H2 2043   1.605   7.939   7.366
  601WAT      O 2044   2.162   3.185   9.394
  601WAT     H1 2045   2.168   3.112   9.461
  601WAT     H2 2046   2.101   3.256   9.428
  602WAT      O 2047   5.324   4.197   9.492
  602WAT     H1 2048   5.306   4.100   9.476
  602WAT     H2 2049   5.422   4.215   9.479
  603WAT      O 2050   2.960   1.082   4.068
  603WAT     H1 2051   2.902   1.074   4.149
  603WAT     H2 2052   3.035   1.145   4.088
  604WAT      O 2053   3.668   0.931   9.865
  604WAT     H1 2054   3.684   0.917   9.767
  604WAT     H2 2055   3.636   1.024   9.880
  605WAT      O 2056   5.444   3.758   0.597
  605WAT     H1 2057   5.386   3.687   0.637
  605WAT     H2 2058   5.535   3.754   0.639
  606WAT      O 2059   2.463   4.489   5.615
  606WAT     H1 2060   2.451   4.482   5.714
  606WAT     H2 2061   2.386   4.445   5.568
  607WAT      O 2062   2.468   2.682   1.586
  607WAT     H1 2063   2.514   2.762   1.625
  607WAT     H2 2064   2.381   2.667   1.633
  608WAT      O 2065   8.913   0.564   4.146
  608WAT     H1 2066   8.981   0.617   4.095
  608WAT     H2 2067   8.907   0.472   4.107
  609WAT      O 2068   6.177   5.049   7.405
  609WAT     H1 2069   6.151   5.057   7.309
  609WAT     H2 2070   6.163   5.137   7.451
  610WAT      O 2071   0.939   8.234   7.623
  610WAT     H1 2072   1.017   8.283   7.662
  610WAT     H2 2073   0.866   8.229   7.692
  611WAT      O 2074   1.468   0.527   8.715
  611WAT     H1 2075   1.538   0.556   8.651
  611WAT     H2 2076   1.510   0.508   8.804
  612WAT      O 2077   9.492   7.405   6.131
  612WAT     H1 2078   9.413   7.466   6.138
  612WAT     H2 2079   9.567   7.440   6.187
  613WAT      O 2080   7.617   5.780   3.436
  613WAT     H1 2081   7.713   5.798   3.415
  613WAT     H2 2082   7.569   5.866   3.447
  614WAT      O 2083   6.249   1.082   1.647
  614WAT     H1 2084   6.239   1.176   1.679
  614WAT     H2 2085   6.202   1.072   1.559
  615WAT      O 2086   2.716   2.501   0.259
  615WAT     H1 2087   2.740   2.449   0.177
  615WAT     H2 2088   2.642   2.455   0.307
  616WAT      O 2089   9.115   2.198   3.166
  616WAT     H1 2090   9.159   2.265   3.106
  616WAT     H2 2091   9.051   2.142   3.112
  617WAT      O 2092   6.096   4.153   2.935
  617WAT     H1 2093   6.147   4.221   2.988
  617WAT     H2 2094   6.158   4.103   2.875
  618WAT      O 2095   1.056   7.135   9.160
  618WAT     H1 2096   1.018   7.207   9.218
  618WAT     H2 2097   1.077   7.055   9.216
  619WAT      O 2098   7.791   7.211   8.942
  619WAT     H1 2099   7.810   7.294   8.995
  619WAT     H2 2100   7.703   7.222   8.895
  620WAT      O 2101   2.474   2.709   2.881
  620WAT     H1 2102   2.402   2.720   2.950
  620WAT     H2 2103   2.563   2.701   2.926
  621WAT      O 2104   8.685   9.791   4.396
  621WAT     H1 2105   8.643   9.769   4.308
  621WAT     H2 2106   8.723   9.707   4.436
  622WAT      O 2107   1.358   2.548   5.242
  622WAT     H1 2108   1.319   2.557   5.150
  622WAT     H2 2109   1.446   2.595   5.245
  623WAT      O 2110   0.290   6.371   4.262
  623WAT     H1 2111   0.206   6.425   4.251
  623WAT     H2 2112   0.271   6.289   4.315
  624WAT      O 2113   7.328   8.033   4.440
  624WAT     H1 2114   7.305   8.021   4.536
  624WAT     H2 2115   7.353   8.129   4.424
  625WAT      O 2116   3.015   2.806   3.771
  625WAT     H1 2117   2.938   2.870   3.776
  625WAT     H2 2118   3.058   2.799   3.860
  626WAT      O 2119   7.031   9.460   3.317
  626WAT     H1 2120   7.015   9.555   3.288
  626WAT     H2 2121   6.973   9.439   3.396
  627WAT      O 2122   0.107   1.820   7.254
  627WAT     H1 2123   0.186   1.874   7.285
  627WAT     H2 2124   0.023   1.863   7.287
  628WAT      O 2125   2.451   3.844   2.545
  628WAT     H1 2126   2.363   3.807   2.518
  628WAT     H2 2127   2.507   3.772   2.587
  629WAT      O 2128   8.681   7.399   0.381
  629WAT     H1 2129   8.659   7.343   0.462
  629WAT     H2 2130   8.760   7.360   0.334
  630WAT      O 2131   5.089   5.288   1.806
  630WAT     H1 2132   5.159   5.222   1.782
  630WAT     H2 2133   5.110   5.376   1.763
  631WAT      O 2134   7.609   3.730   7.566
  631WAT     H1 2135   7.567   3.752   7.478
  631WAT     H2 2136   7.603   3.809   7.627
  632WAT      O 2137   6.435   3.647   8.676
  632WAT     H1 2138   6.386   3.718   8.725
  632WAT     H2 2139   6.408   3.557   8.710
  633WAT      O 2140   8.168   1.746   6.684
  633WAT     H1 2141   8.109   1.678   6.729
  633WAT     H2 2142   8.178   1.722   6.587
  634WAT      O 2143   8.368   6.820   2.258
  634WAT     H1 2144   8.303   6.752   2.225
  634WAT     H2 2145   8.461   6.784   2.251
  635WAT      O 2146   7.342   5.839   0.205
  635WAT     H1 2147   7.356   5.869   0.110
  635WAT     H2 2148   7.271   5.895   0.248
  636WAT      O 2149   2.220   3.719   5.934
  636WAT     H1 2150   2.282   3.716   6.013
  636WAT     H2 2151   2.273   3.730   5.850
  637WAT      O 2152   8.910   2.775   8.710
  637WAT     H1 2153   8.837   2.708   8.724
  637WAT     H2 2154   8.996   2.736   8.744
  638WAT      O 2155   0.990   0.638   0.557
  638WAT     H1 2156   0.950   0.698   0.487
  638WAT     H2 2157   0.999   0.546   0.521
  639WAT      O 2158   0.414   2.325   1.776
  639WAT     H1 2159   0.511   2.351   1.769
  639WAT     H2 2160   0.363   2.398   1.822
  640WAT      O 2161   8.495   2.236   7.555
  640WAT     H1 2162   8.467   2.277   7.468
  640WAT     H2 2163   8.589   2.263   7.576
  641WAT      O 2164   7.012   7.481   9.079
  641WAT     H1 2165   6.934   7.427   9.047
  641WAT     H2 2166   6.986   7.577   9.087
  642WAT      O 2167   2.114   4.858   6.758
  642WAT     H1 2168   2.186   4.923   6.735
  642WAT     H2 2169   2.029   4.885   6.712
  643WAT      O 2170   9.420   8.785   9.223
  643WAT     H1 2171   9.414   8.884   9.241
  643WAT     H2 2172   9.502   8.767   9.168
  644WAT      O 2173   7.651   4.021   9.427
  644WAT     H1 2174   7.600   4.100   9.392
  644WAT     H2 2175   7.701   4.048   9.509
  645WAT      O 2176   4.727   8.761   8.900
  645WAT     H1 2177   4.705   8.687   8.964
  645WAT     H2 2178   4.652   8.773   8.835
  646WAT      O 2179   3.168   5.920   4.058
  646WAT     H1 2180   3.248   5.966   4.097
  646WAT     H2 2181   3.087   5.978   4.070
  647WAT      O 2182   2.686   0.865   9.742
  647WAT     H1 2183   2.698   0.785   9.800
  647WAT     H2 2184   2.707   0.948   9.794
  648WAT      O 2185   2.139   2.697   2.564
  648WAT     H1 2186   2.151   2.667   2.659
  648WAT     H2 2187   2.192   2.639   2.503
  649WAT      O 2188   4.011   1.224   0.105
  649WAT     H1 2189   3.988   1.322   0.103
  649WAT     H2 2190   4.039   1.195   0.014
  650WAT      O 2191   7.287   7.144   4.011
  650WAT     H1 2192   7.301   7.080   3.935
  650WAT     H2 2193   7.275   7.093   4.096
  651WAT      O 2194   8.342   2.091   2.323
  651WAT     H1 2195   8.307   2.001   2.296
  651WAT     H2 2196   8.439   2.096   2.302
  652WAT      O 2197   3.386   8.951   3.628
  652WAT     H1 2198   3.364   9.024   3.693
  652WAT     H2 2199   3.327   8.959   3.548
  653WAT      O 2200   6.466   9.781   3.161
  653WAT     H1 2201   6.484   9.840   3.240
  653WAT     H2 2202   6.398   9.712   3.186
  654WAT      O 2203   2.211   3.125   5.664
  654WAT     H1 2204   2.156   3.068   5.725
  654WAT     H2 2205   2.152   3.180   5.606
  655WAT      O 2206   9.697   1.622   3.773
  655WAT     H1 2207   9.747   1.556   3.716
  655WAT     H2 2208   9.741   1.628   3.863
  656WAT      O 2209   3.035   8.125   6.057
  656WAT     H1 2210   3.041   8.081   6.146
  656WAT     H2 2211   3.092   8.076   5.991
  657WAT      O 2212   5.647   5.644   7.534
  657WAT     H1 2213   5.554   5.664   7.503
  657WAT     H2 2214   5.699   5.729   7.541
  658WAT      O 2215   6.206   3.439   9.614
  658WAT     H1 2216   6.279   3.406   9.675
  658WAT     H2 2217   6.141   3.494   9.667
  659WAT      O 2218   3.450   8.521   2.752
  659WAT     H1 2219   3.527   8.459   2.765
  659WAT     H2 2220   3.431   8.569   2.837
  660WAT      O 2221   6.571   0.022   4.099
  660WAT     H1 2222   6.563   0.086   4.023
  660WAT     H2 2223   6.552  -0.071   4.066
  661WAT      O 2224   5.180   7.836   8.367
  661WAT     H1 2225   5.098   7.843   8.311
  661WAT     H2 2226   5.210   7.740   8.369
  662WAT      O 2227   0.561   2.953   9.537
  662WAT     H1 2228   0.536   3.049   9.553
  662WAT     H2 2229   0.540   2.929   9.442
  663WAT      O 2230   0.834   4.631   7.850
  663WAT     H1 2231   0.829   4.552   7.789
  663WAT     H2 2232   0.741   4.659   7.876
  664WAT      O 2233   5.724   2.905   3.796
  664WAT     H1 2234   5.696   2.923   3.702
  664WAT     H2 2235   5.645   2.876   3.850
  665WAT      O 2236   2.554   8.437   5.843
  665WAT     H1 2237   2.516   8.449   5.935
  665WAT     H2 2238   2.504   8.494   5.778
  666WAT      O 2239   4.692   8.515   0.389
  666WAT     H1 2240   4.643   8.511   0.475
  666WAT     H2 2241   4.752   8.435   0.380
  667WAT      O 2242   6.670   2.915   4.814
  667WAT     H1 2243   6.629   2.935   4.725
  667WAT     H2 2244   6.648   2.988   4.878
  668WAT      O 2245   7.728   7.377   1.094
  668WAT     H1 2246   7.770   7.457   1.050
  668WAT     H2 2247   7.734   7.298   1.033
  669WAT      O 2248   8.452   0.965   9.556
  669WAT     H1 2249   8.357   0.994   9.541
  669WAT     H2 2250   8.513   1.023   9.503
  670WAT      O 2251   0.877   8.373   0.918
  670WAT     H1 2252   0.916   8.296   0.968
  670WAT     H2 2253   0.830   8.340   0.836
  671WAT      O 2254   6.943   2.494   1.380
  671WAT     H1 2255   6.974   2.546   1.301
  671WAT     H2 2256   6.853   2.456   1.362
  672WAT      O 2257   3.728   5.773   7.234
  672WAT     H1 2258   3.640   5.797   7.275
  672WAT     H2 2259   3.745   5.676   7.245
  673WAT      O 2260   1.251   0.693   4.918
  673WAT     H1 2261   1.311   0.758   4.964
  673WAT     H2 2262   1.291   0.667   4.830
  674WAT      O 2263   5.933   2.527   1.526
  674WAT     H1 2264   5.966   2.619   1.506
  674WAT     H2 2265   5.916   2.518   1.624
  675WAT      O 2266   9.085   4.492   5.766
  675WAT     H1 2267   9.132   4.488   5.677
  675WAT     H2 2268   8.995   4.449   5.758
  676WAT      O 2269   8.524   5.454   3.261
  676WAT     H1 2270   8.492   5.473   3.168
  676WAT     H2 2271   8.453   5.480   3.327
  677WAT      O 2272   0.529   8.254   4.858
  677WAT     H1 2273   0.469   8.286   4.785
  677WAT     H2 2274   0.475   8.209   4.930
  678WAT      O 2275   7.022   0.513   6.944
  678WAT     H1 2276   7.108   0.543   6.902
  678WAT     H2 2277   6.948   0.573   6.915
  679WAT      O 2278   7.240   0.217   9.092
  679WAT     H1 2279   7.168   0.182   9.153
  679WAT     H2 2280   7.213   0.201   8.997
  680WAT      O 2281   6.197   8.928   2.636
  680WAT     H1 2282   6.227   8.958   2.546
  680WAT     H2 2283   6.226   8.995   2.705
  681WAT      O 2284   5.981   4.655   4.839
  681WAT     H1 2285   5.969   4.752   4.863
  681WAT     H2 2286   6.034   4.648   4.754
  682WAT      O 2287   1.676   1.020   0.232
  682WAT     H1 2288   1.663   1.082   0.154
  682WAT     H2 2289   1.764   1.040   0.276
  683WAT      O 2290   9.327   8.583   6.360
  683WAT     H1 2291   9.247   8.580   6.300
  683WAT     H2 2292   9.403   8.627   6.312
  684WAT      O 2293   7.821   0.040   3.376
  684WAT     H1 2294   7.910   0.017   3.416
  684WAT     H2 2295   7.835   0.080   3.285
  685WAT      O 2296   4.358   3.226   4.791
  685WAT     H1 2297   4.319   3.316   4.770
  685WAT     H2 2298   4.346   3.206   4.888
  686WAT      O 2299   3.261   2.895   8.106
  686WAT     H1 2300   3.305   2.939   8.185
  686WAT     H2 2301   3.294   2.801   8.098
  687WAT      O 2302   0.116   5.386   5.130
  687WAT     H1 2303   0.172   5.453   5.178
  687WAT     H2 2304   0.020   5.416   5.132
  688WAT      O 2305   2.563   8.519   1.850
  688WAT     H1 2306   2.651   8.555   1.882
  688WAT     H2 2307   2.494   8.591   1.855
  689WAT      O 2308   4.419   4.465   3.504
  689WAT     H1 2309   4.502   4.413   3.483
  689WAT     H2 2310   4.375   4.493   3.419
  690WAT      O 2311   4.681   4.394   1.837
  690WAT     H1 2312   4.719   4.329   1.904
  690WAT     H2 2313   4.747   4.468   1.822
  691WAT      O 2314   4.386   3.853   9.669
  691WAT     H1 2315   4.289   3.840   9.691
  691WAT     H2 2316   4.393   3.889   9.576
  692WAT      O 2317   2.352   0.735   3.295
  692WAT     H1 2318   2.325   0.678   3.218
  692WAT     H2 2319   2.414   0.683   3.354
  693WAT      O 2320   9.044   9.428   3.206
  693WAT     H1 2321   9.100   9.505   3.176
  693WAT     H2 2322   9.103   9.350   3.226
  694WAT      O 2323   2.664   2.400   1.704
  694WAT     H1 2324   2.573   2.415   1.666
  694WAT     H2 2325   2.709   2.325   1.656
  695WAT      O 2326   8.430   1.481   9.871
  695WAT     H1 2327   8.492   1.541   9.821
  695WAT     H2 2328   8.444   1.493   9.969
  696WAT      O 2329   0.371   0.542   4.906
  696WAT     H1 2330   0.402   0.461   4.856
  696WAT     H2 2331   0.329   0.607   4.841
  697WAT      O 2332   0.010   0.011   8.037
  697WAT     H1 2333   0.004   0.054   8.127
  697WAT     H2 2334   0.100   0.027   7.998
  698WAT      O 2335   7.912   2.900   9.690
  698WAT     H1 2336   7.834   2.949   9.728
  698WAT     H2 2337   7.884   2.808   9.664
  699WAT      O 2338   5.993   7.843   2.917
  699WAT     H1 2339   5.895   7.826   2.911
  699WAT     H2 2340   6.042   7.774   2.862
  700WAT      O 2341   8.588   8.702   8.421
  700WAT     H1 2342   8.615   8.794   8.450
  700WAT     H2 2343   8.600   8.639   8.497
  701WAT      O 2344   2.245   5.343   0.704
  701WAT     H1 2345   2.291   5.425   0.668
  701WAT     H2 2346   2.271   5.330   0.800
  702WAT      O 2347   3.001   8.278   0.083
  702WAT     H1 2348   3.042   8.240   0.165
  702WAT     H2 2349   3.068   8.333   0.034
  703WAT      O 2350   6.161   8.184   8.759
  703WAT     H1 2351   6.254   8.169   8.725
  703WAT     H2 2352   6.120   8.261   8.711
  704WAT      O 2353   0.591   7.601   0.522
  704WAT     H1 2354   0.586   7.676   0.588
  704WAT     H2 2355   0.539   7.625   0.440
  705WAT      O 2356   9.428   5.759   8.259
  705WAT     H1 2357   9.494   5.691   8.229
  705WAT     H2 2358   9.425   5.834   8.193
  706WAT      O 2359   2.747   5.546   2.595
  706WAT     H1 2360   2.802   5.582   2.519
  706WAT     H2 2361   2.711   5.456   2.570
  707WAT      O 2362   3.485   0.407   6.685
  707WAT     H1 2363   3.522   0.490   6.727
  707WAT     H2 2364   3.488   0.332   6.752
  708WAT      O 2365   8.274   6.212   5.168
  708WAT     H1 2366   8.334   6.133   5.158
  708WAT     H2 2367   8.239   6.215   5.262
  709WAT      O 2368   8.379   5.699   3.353
  709WAT     H1 2369   8.417   5.768   3.291
  709WAT     H2 2370   8.315   5.743   3.416
  710WAT      O 2371   0.832   0.435   2.583
  710WAT     H1 2372   0.772   0.481   2.518
  710WAT     H2 2373   0.895   0.375   2.534
  711WAT      O 2374   8.999   3.174   8.546
  711WAT     H1 2375   9.053   3.124   8.478
  711WAT     H2 2376   9.055   3.191   8.627
  712WAT      O 2377   2.500   7.929   0.358
  712WAT     H1 2378   2.483   7.912   0.455
  712WAT     H2 2379   2.510   7.842   0.310
  713WAT      O 2380   9.414   5.588   3.036
  713WAT     H1 2381   9.366   5.601   3.123
  713WAT     H2 2382   9.453   5.496   3.033
  714WAT      O 2383   5.693   2.625   0.831
  714WAT     H1 2384   5.598   2.592   0.825
  714WAT     H2 2385   5.756   2.549   0.814
  715WAT      O 2386   7.305   9.234   7.113
  715WAT     H1 2387   7.351   9.208   7.197
  715WAT     H2 2388   7.211   9.261   7.133
  716WAT      O 2389   3.061   7.015   4.047
  716WAT     H1 2390   3.047   7.111   4.070
  716WAT     H2 2391   2.987   6.960   4.086
  717WAT      O 2392   5.454   2.623   8.023
  717WAT     H1 2393   5.429   2.527   8.016
  717WAT     H2 2394   5.382   2.673   8.071
  718WAT      O 2395   7.107   6.392   3.421
  718WAT     H1 2396   7.071   6.415   3.511
  718WAT     H2 2397   7.191   6.339   3.432
  719WAT      O 2398   0.830   3.321   5.439
  719WAT     H1 2399   0.804   3.225   5.426
  719WAT     H2 2400   0.783   3.358   5.520
  720WAT      O 2401   9.772   5.058   7.156
  720WAT     H1 2402   9.782   5.078   7.254
  720WAT     H2 2403   9.713   4.977   7.145
  721WAT      O 2404   1.023   5.929   1.188
  721WAT     H1 2405   1.079   5.914   1.106
  721WAT     H2 2406   1.083   5.949   1.266
  722WAT      O 2407   3.811   0.140   0.571
  722WAT     H1 2408   3.761   0.222   0.600
  722WAT     H2 2409   3.874   0.112   0.643
  723WAT      O 2410   1.156   9.196   2.572
  723WAT     H1 2411   1.109   9.226   2.489
  723WAT     H2 2412   1.207   9.273   2.610
  724WAT      O 2413   6.214   8.656   8.616
  724WAT     H1 2414   6.287   8.724   8.626
  724WAT     H2 2415   6.127   8.698   8.641
  725WAT      O 2416   5.362   7.193   8.074
  725WAT     H1 2417   5.459   7.217   8.065
  725WAT     H2 2418   5.326   7.230   8.159
  726WAT      O 2419   0.838   4.350   0.709
  726WAT     H1 2420   0.888   4.383   0.789
  726WAT     H2 2421   0.871   4.397   0.627
  727WAT      O 2422   1.812   6.206   2.885
  727WAT     H1 2423   1.724   6.213   2.931
  727WAT     H2 2424   1.800   6.159   2.797
  728WAT      O 2425   8.168   5.580   3.180
  728WAT     H1 2426   8.122   5.551   3.264
  728WAT     H2 2427   8.246   5.637   3.203
  729WAT      O 2428   9.837   4.002   4.104
  729WAT     H1 2429   9.795   4.079   4.057
  729WAT     H2 2430   9.766   3.941   4.138
  730WAT      O 2431   7.359   7.387   6.106
  730WAT     H1 2432   7.449   7.428   6.094
  730WAT     H2 2433   7.298   7.418   6.033
  731WAT      O 2434   2.510   5.971   9.739
  731WAT     H1 2435   2.436   6.033   9.766
  731WAT     H2 2436   2.548   5.928   9.821
  732WAT      O 2437   1.477   2.168   6.155
  732WAT     H1 2438   1.447   2.076   6.132
  732WAT     H2 2439   1.575   2.177   6.140
  733WAT      O 2440   2.221   1.008   7.667
  733WAT     H1 2441   2.312   1.008   7.625
  733WAT     H2 2442   2.228   0.981   7.763
  734WAT      O 2443   7.565   0.240   6.957
  734WAT     H1 2444   7.478   0.205   6.992
  734WAT     H2 2445   7.628   0.255   7.033
  735WAT      O 2446   7.216   3.157   5.984
  735WAT     H1 2447   7.229   3.251   5.953
  735WAT     H2 2448   7.147   3.113   5.926
  736WAT      O 2449   7.512   6.911   7.100
  736WAT     H1 2450   7.520   6.964   7.015
  736WAT     H2 2451   7.585   6.937   7.163
  737WAT      O 2452   7.767   0.732   5.961
  737WAT     H1 2453   7.690   0.729   6.024
  737WAT     H2 2454   7.848   0.766   6.010
  738WAT      O 2455   6.691   4.817   7.943
  738WAT     H1 2456   6.632   4.891   7.976
  738WAT     H2 2457   6.661   4.789   7.852
  739WAT      O 2458   2.377   9.381   9.042
  739WAT     H1 2459   2.475   9.403   9.033
  739WAT     H2 2460   2.367   9.289   9.082
  740WAT      O 2461   7.887   7.939   9.334
  740WAT     H1 2462   7.938   7.918   9.251
  740WAT     H2 2463   7.855   7.854   9.377
  741WAT      O 2464   1.231   1.333   2.367
  741WAT     H1 2465   1.317   1.354   2.320
  741WAT     H2 2466   1.244   1.255   2.428
  742WAT      O 2467   5.045   8.818   4.862
  742WAT     H1 2468   5.081   8.725   4.875
  742WAT     H2 2469   5.073   8.875   4.940
  743WAT      O 2470   9.548   4.269   2.557
  743WAT     H1 2471   9.593   4.214   2.488
  743WAT     H2 2472   9.580   4.363   2.552
  744WAT      O 2473   2.153   8.033   0.119
  744WAT     H1 2474   2.159   7.933   0.118
  744WAT     H2 2475   2.061   8.061   0.091
  745WAT      O 2476   3.987   1.073   5.738
  745WAT     H1 2477   3.988   1.135   5.659
  745WAT     H2 2478   3.941   0.988   5.713
  746WAT      O 2479   6.205   9.768   8.023
  746WAT     H1 2480   6.180   9.790   7.929
  746WAT     H2 2481   6.158   9.684   8.051
  747WAT      O 2482   8.524   0.197   8.347
  747WAT     H1 2483   8.495   0.229   8.257
  747WAT     H2 2484   8.489   0.105   8.363
  748WAT      O 2485   7.678   2.873   3.176
  748WAT     H1 2486   7.715   2.945   3.235
  748WAT     H2 2487   7.743   2.853   3.102
  749WAT      O 2488   8.074   9.280   3.695
  749WAT     H1 2489   7.977   9.259   3.679
  749WAT     H2 2490   8.125   9.266   3.610
  750WAT      O 2491   2.721   9.725   3.073
  750WAT     H1 2492   2.683   9.694   3.160
  750WAT     H2 2493   2.821   9.716   3.076
  751WAT      O 2494   8.306   7.149   6.873
  751WAT     H1 2495   8.270   7.213   6.940
  751WAT     H2 2496   8.405   7.146   6.878
  752WAT      O 2497   3.606   6.099   7.571
  752WAT     H1 2498   3.595   6.195   7.596
  752WAT     H2 2499   3.589   6.042   7.652
  753WAT      O 2500   1.498   9.300   1.852
  753WAT     H1 2501   1.594   9.282   1.872
  753WAT     H2 2502   1.478   9.271   1.758
  754WAT      O 2503   6.176   0.950   2.844
  754WAT     H1 2504   6.088   0.957   2.890
  754WAT     H2 2505   6.204   1.040   2.811
  755WAT      O 2506   1.085   2.055   1.263
  755WAT     H1 2507   1.139   2.032   1.345
  755WAT     H2 2508   1.137   2.119   1.207
  756WAT      O 2509   0.641   4.114   5.611
  756WAT     H1 2510   0.555   4.165   5.599
  756WAT     H2 2511   0.682   4.096   5.522
  757WAT      O 2512   9.702   5.725   7.984
  757WAT     H1 2513   9.660   5.734   7.894
  757WAT     H2 2514   9.647   5.662   8.040
  758WAT      O 2515   8.394   3.075   7.872
  758WAT     H1 2516   8.361   2.995   7.922
  758WAT     H2 2517   8.329   3.151   7.886
  759WAT      O 2518   4.483   8.051   7.588
  759WAT     H1 2519   4.405   8.113   7.600
  759WAT     H2 2520   4.568   8.098   7.613
  760WAT      O 2521   2.729   7.428   5.311
  760WAT     H1 2522   2.713   7.329   5.312
  760WAT     H2 2523   2.739   7.461   5.405
  761WAT      O 2524   7.750   6.597   7.065
  761WAT     H1 2525   7.757   6.509   7.017
  761WAT     H2 2526   7.657   6.606   7.103
  762WAT      O 2527   4.918   4.559   9.393
  762WAT     H1 2528   4.994   4.513   9.439
  762WAT     H2 2529   4.954   4.625   9.327
  763WAT      O 2530   7.033   8.920   5.822
  763WAT     H1 2531   6.941   8.931   5.787
  763WAT     H2 2532   7.088   8.869   5.755
  764WAT      O 2533   5.784   4.372   2.569
  764WAT     H1 2534   5.821   4.311   2.638
  764WAT     H2 2535   5.802   4.467   2.593
  765WAT      O 2536   5.498   0.806   0.384
  765WAT     H1 2537   5.417   0.747   0.379
  765WAT     H2 2538   5.527   0.814   0.479
  766WAT      O 2539   8.631   2.911   2.055
  766WAT     H1 2540   8.606   2.919   2.152
  766WAT     H2 2541   8.598   2.992   2.005
  767WAT      O 2542   2.636   9.214   7.557
  767WAT     H1 2543   2.563   9.263   7.605
  767WAT     H2 2544   2.628   9.116   7.577
  768WAT      O 2545   0.201   0.540   6.023
  768WAT     H1 2546   0.275   0.552   6.089
  768WAT     H2 2547   0.232   0.480   5.949
  769WAT      O 2548   5.028   2.391   0.107
  769WAT     H1 2549   5.097   2.460   0.130
  769WAT     H2 2550   4.987   2.355   0.191
  770WAT      O 2551   5.957   7.977   1.746
  770WAT     H1 2552   5.865   8.015   1.753
  770WAT     H2 2553   6.014   8.036   1.689
  771WAT      O 2554   1.616   2.958   3.916
  771WAT     H1 2555   1.598   3.031   3.850
  771WAT     H2 2556   1.710   2.966   3.949
  772WAT      O 2557   4.251   7.496   4.929
  772WAT     H1 2558   4.272   7.399   4.913
  772WAT     H2 2559   4.315   7.532   4.997
  773WAT      O 2560   6.456   8.834   6.190
  773WAT     H1 2561   6.521   8.802   6.122
  773WAT     H2 2562   6.473   8.930   6.211
  774WAT      O 2563   5.827   7.471   8.125
  774WAT     H1 2564   5.809   7.420   8.209
  774WAT     H2 2565   5.766   7.551   8.121
  775WAT      O 2566   6.132   1.844   3.337
  775WAT     H1 2567   6.055   1.894   3.378
  775WAT     H2 2568   6.119   1.746   3.351
  776WAT      O 2569   6.828   8.607   0.024
  776WAT     H1 2570   6.868   8.521  -0.005
  776WAT     H2 2571   6.827   8.671  -0.053
  777WAT      O 2572   4.678   3.460   4.432
  777WAT     H1 2573   4.745   3.528   4.464
  777WAT     H2 2574   4.591   3.505   4.414
  778WAT      O 2575   6.462   5.394   4.522
  778WAT     H1 2576   6.433   5.313   4.572
  778WAT     H2 2577   6.401   5.408   4.444
  779WAT      O 2578   3.379   1.085   4.965
  779WAT     H1 2579   3.296   1.033   4.945
  779WAT     H2 2580   3.414   1.060   5.056
  780WAT      O 2581   0.311   5.634   9.378
  780WAT     H1 2582   0.326   5.701   9.306
  780WAT     H2 2583   0.346   5.670   9.465
  781WAT      O 2584   5.550   4.411   1.403
  781WAT     H1 2585   5.482   4.346   1.370
  781WAT     H2 2586   5.639   4.389   1.362
  782WAT      O 2587   7.759   4.651   1.975
  782WAT     H1 2588   7.723   4.741   1.949
  782WAT     H2 2589   7.815   4.615   1.901
  783WAT      O 2590   8.015   7.054   7.876
  783WAT     H1 2591   7.983   7.119   7.807
  783WAT     H2 2592   7.943   6.988   7.896
  784WAT      O 2593   1.410   0.166   0.527
  784WAT     H1 2594   1.357   0.145   0.446
  784WAT     H2 2595   1.351   0.163   0.608
  785WAT      O 2596   3.282   5.386   0.857
  785WAT     H1 2597   3.238   5.459   0.805
  785WAT     H2 2598   3.254   5.297   0.820
  786WAT      O 2599   1.089   3.669   5.320
  786WAT     H1 2600   1.078   3.724   5.403
  786WAT     H2 2601   1.164   3.605   5.333
  787WAT      O 2602   3.200   1.258   3.166
  787WAT     H1 2603   3.206   1.228   3.261
  787WAT     H2 2604   3.289   1.245   3.121
  788WAT      O 2605   5.953   5.472   2.688
  788WAT     H1 2606   5.970   5.475   2.787
  788WAT     H2 2607   6.040   5.472   2.640
  789WAT      O 2608   7.446   1.181   9.624
  789WAT     H1 2609   7.509   1.120   9.575
  789WAT     H2 2610   7.454   1.164   9.722
  790WAT      O 2611   3.911   0.643   0.309
  790WAT     H1 2612   3.850   0.606   0.379
  790WAT     H2 2613   3.857   0.674   0.231
  791WAT      O 2614   0.551   2.308   5.904
  791WAT     H1 2615   0.561   2.320   5.806
  791WAT     H2 2616   0.499   2.385   5.942
  792WAT      O 2617   0.079   4.960   7.623
  792WAT     H1 2618   0.063   4.925   7.715
  792WAT     H2 2619   0.155   5.025   7.625
  793WAT      O 2620   1.990   6.343   6.010
  793WAT     H1 2621   1.895   6.332   6.040
  793WAT     H2 2622   2.007   6.286   5.930
  794WAT      O 2623   3.095   8.110   8.932
  794WAT     H1 2624   3.107   8.205   8.960
  794WAT     H2 2625   3.181   8.074   8.898
  795WAT      O 2626   7.044   1.068   8.036
  795WAT     H1 2627   7.111   1.143   8.039
  795WAT     H2 2628   7.091   0.981   8.048
  796WAT      O 2629   6.891   8.035   4.012
  796WAT     H1 2630   6.870   8.120   4.059
  796WAT     H2 2631   6.987   8.012   4.026
  797WAT      O 2632   6.902   1.878   3.228
  797WAT     H1 2633   6.924   1.783   3.251
  797WAT     H2 2634   6.890   1.931   3.313
  798WAT      O 2635   4.116   9.384   8.315
  798WAT     H1 2636   4.212   9.412   8.317
  798WAT     H2 2637   4.066   9.439   8.247
  799WAT      O 2638   5.735   8.006   0.789
  799WAT     H1 2639   5.687   8.027   0.874
  799WAT     H2 2640   5.792   7.925   0.802
  800WAT      O 2641   1.137   6.637   1.317
  800WAT     H1 2642   1.146   6.612   1.413
  800WAT     H2 2643   1.228   6.647   1.277
  801WAT      O 2644   3.164   2.484   6.616
  801WAT     H1 2645   3.075   2.490   6.661
  801WAT     H2 2646   3.206   2.396   6.639
  802WAT      O 2647   5.735   6.065   4.389
  802WAT     H1 2648   5.691   6.130   4.452
  802WAT     H2 2649   5.832   6.085   4.384
  803WAT      O 2650   0.504   6.483   4.147
  803WAT     H1 2651   0.494   6.519   4.054
  803WAT     H2 2652   0.417   6.447   4.179
  804WAT      O 2653   0.586   2.926   2.272
  804WAT     H1 2654   0.607   2.972   2.358
  804WAT     H2 2655   0.488   2.906   2.267
  805WAT      O 2656   4.312   0.779   2.632
  805WAT     H1 2657   4.322   0.871   2.669
  805WAT     H2 2658   4.374   0.717   2.679
  806WAT      O 2659   5.090   5.653   3.134
  806WAT     H1 2660   5.069   5.750   3.141
  806WAT     H2 2661   5.069   5.608   3.221
  807WAT      O 2662   7.559   5.711   2.940
  807WAT     H1 2663   7.596   5.801   2.914
  807WAT     H2 2664   7.607   5.639   2.890
  808WAT      O 2665   9.748   3.123   7.200
  808WAT     H1 2666   9.690   3.165   7.130
  808WAT     H2 2667   9.815   3.064   7.156
  809WAT      O 2668   9.847   3.076   5.186
  809WAT     H1 2669   9.788   3.089   5.106
  809WAT     H2 2670   9.796   3.101   5.269
  810WAT      O 2671   2.415   7.274   6.938
  810WAT     H1 2672   2.511   7.283   6.964
  810WAT     H2 2673   2.357   7.316   7.008
  811WAT      O 2674   7.261   5.144   9.704
  811WAT     H1 2675   7.167   5.142   9.668
  811WAT     H2 2676   7.259   5.142   9.804
  812WAT      O 2677   0.356   7.249   8.237
  812WAT     H1 2678   0.353   7.302   8.321
  812WAT     H2 2679   0.332   7.154   8.256
  813WAT      O 2680   6.070   4.020   4.077
  813WAT     H1 2681   5.996   3.998   4.142
  813WAT     H2 2682   6.068   4.118   4.056
  814WAT      O 2683   6.172   4.402   3.034
  814WAT     H1 2684   6.117   4.401   3.118
  814WAT     H2 2685   6.121   4.447   2.961
  815WAT      O 2686   2.713   2.567   6.568
  815WAT     H1 2687   2.774   2.591   6.493
  815WAT     H2 2688   2.677   2.650   6.611
  816WAT      O 2689   7.242   1.682   0.514
  816WAT     H1 2690   7.145   1.688   0.540
  816WAT     H2 2691   7.251   1.693   0.415
  817WAT      O 2692   6.620   8.738   7.963
  817WAT     H1 2693   6.706   8.721   7.915
  817WAT     H2 2694   6.629   8.820   8.019
  818WAT      O 2695   3.147   7.229   6.920
  818WAT     H1 2696   3.072   7.187   6.970
  818WAT     H2 2697   3.234   7.199   6.959
  819WAT      O 2698   8.033   6.675   8.776
  819WAT     H1 2699   8.106   6.630   8.724
  819WAT     H2 2700   8.055   6.772   8.788
  820WAT      O 2701   8.511   1.242   0.716
  820WAT     H1 2702   8.465   1.324   0.751
  820WAT     H2 2703   8.477   1.221   0.624
  821WAT      O 2704   3.213   3.758   8.733
  821WAT     H1 2705   3.247   3.705   8.655
  821WAT     H2 2706   3.125   3.799   8.710
  822WAT      O 2707   4.563   6.987   0.082
  822WAT     H1 2708   4.567   6.898   0.037
  822WAT     H2 2709   4.499   6.982   0.159
  823WAT      O 2710   4.563   9.232   2.946
  823WAT     H1 2711   4.534   9.321   2.912
  823WAT     H2 2712   4.486   9.187   2.991
  824WAT      O 2713   3.989   3.765   7.889
  824WAT     H1 2714   3.907   3.821   7.872
  824WAT     H2 2715   4.020   3.780   7.983
  825WAT      O 2716   6.529   3.689   4.875
  825WAT     H1 2717   6.475   3.773   4.866
  825WAT     H2 2718   6.626   3.710   4.862
  826WAT      O 2719   5.035   2.247   9.461
  826WAT     H1 2720   5.099   2.225   9.388
  826WAT     H2 2721   4.980   2.326   9.435
  827WAT      O 2722   7.049   0.018   0.266
  827WAT     H1 2723   6.970   0.007   0.326
  827WAT     H2 2724   7.132   0.020   0.320
  828WAT      O 2725   7.053   5.551   8.920
  828WAT     H1 2726   7.094   5.567   9.010
  828WAT     H2 2727   6.969   5.498   8.931
  829WAT      O 2728   3.098   8.639   2.477
  829WAT     H1 2729   3.077   8.733   2.453
  829WAT     H2 2730   3.042   8.577   2.422
  830WAT      O 2731   9.827   2.746   6.414
  830WAT     H1 2732   9.913   2.720   6.370
  830WAT     H2 2733   9.773   2.802   6.351
  831WAT      O 2734   1.913   2.649   5.181
  831WAT     H1 2735   1.958   2.720   5.126
  831WAT     H2 2736   1.926   2.669   5.278
  832WAT      O 2737   1.394   2.265   3.598
  832WAT     H1 2738   1.390   2.356   3.639
  832WAT     H2 2739   1.316   2.253   3.537
  833WAT      O 2740   8.578   9.250   9.259
  833WAT     H1 2741   8.500   9.191   9.237
  833WAT     H2 2742   8.546   9.330   9.310
  834WAT      O 2743   7.712   9.355   3.812
  834WAT     H1 2744   7.774   9.368   3.889
  834WAT     H2 2745   7.620   9.336   3.846
  835WAT      O 2746   2.516   8.282   2.223
  835WAT     H1 2747   2.437   8.291   2.284
  835WAT     H2 2748   2.483   8.265   2.130
  836WAT      O 2749   0.299   4.683   7.608
  836WAT     H1 2750   0.200   4.688   7.622
  836WAT     H2 2751   0.321   4.713   7.516
  837WAT      O 2752   4.106   2.360   7.373
  837WAT     H1 2753   4.156   2.295   7.430
  837WAT     H2 2754   4.008   2.352   7.391
  838WAT      O 2755   1.606   6.924   7.309
  838WAT     H1 2756   1.508   6.935   7.293
  838WAT     H2 2757   1.647   6.872   7.234
  839WAT      O 2758   1.329   8.114   9.582
  839WAT     H1 2759   1.283   8.042   9.634
  839WAT     H2 2760   1.377   8.074   9.504
  840WAT      O 2761   1.790   4.947   7.314
  840WAT     H1 2762   1.698   4.910   7.314
  840WAT     H2 2763   1.831   4.936   7.223
  841WAT      O 2764   5.196   0.350   6.606
  841WAT     H1 2765   5.123   0.329   6.671
  841WAT     H2 2766   5.284   0.334   6.650
  842WAT      O 2767   1.640   0.270   2.493
  842WAT     H1 2768   1.600   0.244   2.581
  842WAT     H2 2769   1.590   0.225   2.419
  843WAT      O 2770   3.135   0.955   7.785
  843WAT     H1 2771   3.083   1.040   7.782
  843WAT     H2 2772   3.147   0.926   7.880
  844WAT      O 2773   2.555   1.510   6.095
  844WAT     H1 2774   2.643   1.524   6.141
  844WAT     H2 2775   2.562   1.433   6.032
  845WAT      O 2776   4.821   3.382   5.665
  845WAT     H1 2777   4.793   3.337   5.580
  845WAT     H2 2778   4.905   3.341   5.698
  846WAT      O 2779   6.948   5.001   5.297
  846WAT     H1 2780   6.928   4.974   5.391
  846WAT     H2 2781   7.038   5.046   5.294
  847WAT      O 2782   9.428   1.672   5.124
  847WAT     H1 2783   9.447   1.765   5.092
  847WAT     H2 2784   9.440   1.608   5.048
  848WAT      O 2785   5.130   0.580   7.884
  848WAT     H1 2786   5.222   0.609   7.855
  848WAT     H2 2787   5.098   0.508   7.822
  849WAT      O 2788   0.535   5.303   5.891
  849WAT     H1 2789   0.462   5.242   5.860
  849WAT     H2 2790   0.553   5.372   5.821
  850WAT      O 2791   5.005   8.781   6.384
  850WAT     H1 2792   4.992   8.733   6.470
  850WAT     H2 2793   4.926   8.840   6.366
  851WAT      O 2794   9.857   6.640   3.945
  851WAT     H1 2795   9.888   6.560   3.895
  851WAT     H2 2796   9.824   6.709   3.880
  852WAT      O 2797   0.061   1.833   8.764
  852WAT     H1 2798   0.157   1.813   8.746
  852WAT     H2 2799   0.044   1.931   8.752
  853WAT      O 2800   6.767   4.407   9.880
  853WAT     H1 2801   6.725   4.335   9.935
  853WAT     H2 2802   6.698   4.476   9.856
  854WAT      O 2803   6.660   5.187   0.634
  854WAT     H1 2804   6.732   5.160   0.698
  854WAT     H2 2805   6.572   5.193   0.682
  855WAT      O 2806   4.529   3.464   7.961
  855WAT     H1 2807   4.521   3.526   7.884
  855WAT     H2 2808   4.438   3.437   7.993
  856WAT      O 2809   5.643   0.908   3.322
  856WAT     H1 2810   5.556   0.958   3.315
  856WAT     H2 2811   5.703   0.957   3.385
  857WAT      O 2812   2.676   0.386   6.309
  857WAT     H1 2813   2.656   0.288   6.302
  857WAT     H2 2814   2.757   0.407   6.255
  858WAT      O 2815   1.408   2.933   3.604
  858WAT     H1 2816   1.408   2.922   3.504
  858WAT     H2 2817   1.408   2.843   3.647
  859WAT      O 2818   9.076   3.114   6.095
  859WAT     H1 2819   9.155   3.056   6.075
  859WAT     H2 2820   9.014   3.066   6.157
  860WAT      O 2821   0.610   5.942   8.567
  860WAT     H1 2822   0.543   5.943   8.492
  860WAT     H2 2823   0.588   6.016   8.631
  861WAT      O 2824   5.395   8.384   4.873
  861WAT     H1 2825   5.433   8.475   4.852
  861WAT     H2 2826   5.464   8.314   4.852
  862WAT      O 2827   2.140   7.682   3.793
  862WAT     H1 2828   2.173   7.593   3.764
  862WAT     H2 2829   2.211   7.729   3.845
  863WAT      O 2830   3.401   5.516   7.406
  863WAT     H1 2831   3.338   5.456   7.355
  863WAT     H2 2832   3.475   5.461   7.445
  864WAT      O 2833   6.897   3.570   1.418
  864WAT     H1 2834   6.933   3.492   1.468
  864WAT     H2 2835   6.973   3.617   1.370
  865WAT      O 2836   3.706   2.524   7.619
  865WAT     H1 2837   3.675   2.618   7.633
  865WAT     H2 2838   3.805   2.519   7.632
  866WAT      O 2839   9.424   4.641   6.528
  866WAT     H1 2840   9.434   4.731   6.485
  866WAT     H2 2841   9.415   4.571   6.457
  867WAT      O 2842   1.958   4.597   1.806
  867WAT     H1 2843   1.957   4.621   1.903
  867WAT     H2 2844   2.034   4.534   1.788
  868WAT      O 2845   0.775   5.077   9.271
  868WAT     H1 2846   0.731   5.004   9.325
  868WAT     H2 2847   0.863   5.044   9.236
  869WAT      O 2848   9.031   5.647   4.493
  869WAT     H1 2849   9.080   5.601   4.418
  869WAT     H2 2850   8.962   5.709   4.454
  870WAT      O 2851   0.126   7.098   7.175
  870WAT     H1 2852   0.222   7.122   7.191
  870WAT     H2 2853   0.119   6.999   7.166
  871WAT      O 2854   8.302   9.084   2.462
  871WAT     H1 2855   8.269   9.151   2.396
  871WAT     H2 2856   8.394   9.055   2.436
  872WAT      O 2857   2.193   3.224   0.060
  872WAT     H1 2858   2.233   3.143   0.016
  872WAT     H2 2859   2.096   3.209   0.075
  873WAT      O 2860   2.593   8.566   0.634
  873WAT     H1 2861   2.660   8.627   0.675
  873WAT     H2 2862   2.640   8.496   0.580
  874WAT      O 2863   1.808   3.729   3.397
  874WAT     H1 2864   1.733   3.787   3.367
  874WAT     H2 2865   1.873   3.782   3.451
  875WAT      O 2866   6.996   1.829   5.349
  875WAT     H1 2867   7.008   1.823   5.448
  875WAT     H2 2868   6.974   1.739   5.312
  876WAT      O 2869   9.613   6.111   4.448
  876WAT     H1 2870   9.553   6.141   4.374
  876WAT     H2 2871   9.693   6.065   4.410
  877WAT      O 2872   2.205   8.753   5.164
  877WAT     H1 2873   2.132   8.693   5.131
  877WAT     H2 2874   2.185   8.783   5.257
  878WAT      O 2875   3.711   3.042   5.314
  878WAT     H1 2876   3.648   3.113   5.344
  878WAT     H2 2877   3.786   3.082   5.262
  879WAT      O 2878   3.107   2.422   5.091
  879WAT     H1 2879   3.035   2.357   5.113
  879WAT     H2 2880   3.179   2.417   5.161
  880WAT      O 2881   7.926   9.674   0.146
  880WAT     H1 2882   7.841   9.724   0.161
  880WAT     H2 2883   7.959   9.636   0.232
  881WAT      O 2884   2.357   7.707   2.907
  881WAT     H1 2885   2.411   7.668   2.832
  881WAT     H2 2886   2.278   7.648   2.926
  882WAT      O 2887   4.790   3.700   8.960
  882WAT     H1 2888   4.697   3.682   8.994
  882WAT     H2 2889   4.840   3.754   9.028
  883WAT      O 2890   1.062   3.600   4.785
  883WAT     H1 2891   0.975   3.551   4.779
  883WAT     H2 2892   1.121   3.557   4.852
  884WAT      O 2893   5.128   3.570   5.234
  884WAT     H1 2894   5.071   3.533   5.161
  884WAT     H2 2895   5.218   3.528   5.232
  885WAT      O 2896   0.213   4.288   1.666
  885WAT     H1 2897   0.152   4.232   1.722
  885WAT     H2 2898   0.204   4.262   1.570
  886WAT      O 2899   5.343   8.386   8.346
  886WAT     H1 2900   5.413   8.458   8.341
  886WAT     H2 2901   5.291   8.385   8.260
  887WAT      O 2902   7.195   1.860   9.439
  887WAT     H1 2903   7.146   1.882   9.355
  887WAT     H2 2904   7.182   1.763   9.460
  888WAT      O 2905   8.842   9.478   1.529
  888WAT     H1 2906   8.869   9.568   1.493
  888WAT     H2 2907   8.837   9.412   1.455
  889WAT      O 2908   4.689   1.270   4.244
  889WAT     H1 2909   4.607   1.216   4.227
  889WAT     H2 2910   4.696   1.291   4.341
  890WAT      O 2911   4.705   4.423   6.954
  890WAT     H1 2912   4.784   4.384   6.906
  890WAT     H2 2913   4.685   4.367   7.035
  891WAT      O 2914   8.575   2.810   0.998
  891WAT     H1 2915   8.487   2.768   0.975
  891WAT     H2 2916   8.604   2.781   1.089
  892WAT      O 2917   8.000   4.314   1.361
  892WAT     H1 2918   8.053   4.248   1.308
  892WAT     H2 2919   8.002   4.403   1.315
  893WAT      O 2920   8.561   8.767   2.478
  893WAT     H1 2921   8.588   8.681   2.435
  893WAT     H2 2922   8.562   8.840   2.409
  894WAT      O 2923   2.481   1.186   3.427
  894WAT     H1 2924   2.402   1.246   3.416
  894WAT     H2 2925   2.451   1.096   3.459
  895WAT      O 2926   7.240   5.759   1.848
  895WAT     H1 2927   7.313   5.798   1.905
  895WAT     H2 2928   7.191   5.833   1.801
  896WAT      O 2929   9.246   4.658   7.444
  896WAT     H1 2930   9.218   4.621   7.532
  896WAT     H2 2931   9.166   4.663   7.383
  897WAT      O 2932   8.718   8.608   1.599
  897WAT     H1 2933   8.730   8.534   1.665
  897WAT     H2 2934   8.620   8.627   1.588
  898WAT      O 2935   9.696   8.039   6.004
  898WAT     H1 2936   9.723   8.098   6.080
  898WAT     H2 2937   9.695   8.093   5.919
  899WAT      O 2938   8.161   4.006   9.044
  899WAT     H1 2939   8.156   4.038   9.139
  899WAT     H2 2940   8.257   3.999   9.017
  900WAT      O 2941   0.255   9.360   5.313
  900WAT     H1 2942   0.275   9.384   5.218
  900WAT     H2 2943   0.160   9.330   5.321
  901WAT      O 2944   5.575   3.891   8.524
  901WAT     H1 2945   5.662   3.904   8.572
  901WAT     H2 2946   5.500   3.915   8.585
  902WAT      O 2947   1.367   2.168   5.573
  902WAT     H1 2948   1.350   2.266   5.559
  902WAT     H2 2949   1.453   2.156   5.623
  903WAT      O 2950   0.023   4.153   2.701
  903WAT     H1 2951   0.038   4.072   2.645
  903WAT     H2 2952  -0.075   4.175   2.703
  904WAT      O 2953   7.323   4.568   8.170
  904WAT     H1 2954   7.384   4.544   8.246
  904WAT     H2 2955   7.240   4.611   8.206
  905WAT      O 2956   5.582   8.178   1.269
  905WAT     H1 2957   5.528   8.214   1.345
  905WAT     H2 2958   5.618   8.088   1.292
  906WAT      O 2959   4.549   0.624   2.297
  906WAT     H1 2960   4.618   0.612   2.369
  906WAT     H2 2961   4.509   0.716   2.305
  907WAT      O 2962   4.589   6.282   8.183
  907WAT     H1 2963   4.623   6.217   8.114
  907WAT     H2 2964   4.508   6.243   8.228
  908WAT      O 2965   7.915   5.017   4.617
  908WAT     H1 2966   7.941   5.110   4.643
  908WAT     H2 2967   7.952   4.953   4.684
  909WAT      O 2968   3.430   8.299   6.588
  909WAT     H1 2969   3.416   8.383   6.536
  909WAT     H2 2970   3.509   8.310   6.649
  910WAT      O 2971   4.711   2.378   8.016
  910WAT     H1 2972   4.810   2.387   8.020
  910WAT     H2 2973   4.678   2.341   8.103
  911WAT      O 2974   0.735   7.914   8.212
  911WAT     H1 2975   0.767   7.856   8.137
  911WAT     H2 2976   0.756   7.870   8.300
  912WAT      O 2977   2.863   0.332   2.893
  912WAT     H1 2978   2.932   0.267   2.858
  912WAT     H2 2979   2.799   0.283   2.953
  913WAT      O 2980   9.597   4.374   1.203
  913WAT     H1 2981   9.579   4.326   1.288
  913WAT     H2 2982   9.613   4.308   1.130
  914WAT      O 2983   6.831   5.541   0.467
  914WAT     H1 2984   6.790   5.582   0.549
  914WAT     H2 2985   6.765   5.543   0.392
  915WAT      O 2986   8.599   9.637   6.508
  915WAT     H1 2987   8.580   9.553   6.559
  915WAT     H2 2988   8.673   9.687   6.552
  916WAT      O 2989   7.809   8.185   8.969
  916WAT     H1 2990   7.826   8.087   8.956
  916WAT     H2 2991   7.870   8.237   8.910
  917WAT      O 2992   3.315   3.746   7.319
  917WAT     H1 2993   3.389   3.684   7.347
  917WAT     H2 2994   3.227   3.709   7.349
  918WAT      O 2995   5.062   1.101   7.929
  918WAT     H1 2996   4.991   1.069   7.865
  918WAT     H2 2997   5.101   1.023   7.977
  919WAT      O 2998   7.831   6.231   6.199
  919WAT     H1 2999   7.782   6.192   6.122
  919WAT     H2 3000   7.922   6.189   6.206
  920WAT      O 3001   2.642   9.074   0.510
  920WAT     H1 3002   2.705   9.150   0.497
  920WAT     H2 3003   2.574   9.073   0.437
  921WAT      O 3004   1.007   9.059   3.910
  921WAT     H1 3005   0.911   9.086   3.904
  921WAT     H2 3006   1.022   9.010   3.995
  922WAT      O 3007   6.381   3.259   2.714
  922WAT     H1 3008   6.305   3.274   2.777
  922WAT     H2 3009   6.346   3.252   2.621
  923WAT      O 3010   5.686   8.076   2.957
  923WAT     H1 3011   5.597   8.092   3.000
  923WAT     H2 3012   5.751   8.044   3.026
  924WAT      O 3013   9.783   2.847   9.716
  924WAT     H1 3014   9.763   2.945   9.708
  924WAT     H2 3015   9.698   2.795   9.710
  925WAT      O 3016   7.514   6.956   4.309
  925WAT     H1 3017   7.516   7.040   4.364
  925WAT     H2 3018   7.425   6.947   4.266
  926WAT      O 3019   1.146   1.018   4.637
  926WAT     H1 3020   1.215   1.075   4.592
  926WAT     H2 3021   1.056   1.041   4.600
  927WAT      O 3022   5.082   4.202   2.277
  927WAT     H1 3023   5.048   4.109   2.296
  927WAT     H2 3024   5.115   4.242   2.362
  928WAT      O 3025   1.046   9.099   7.946
  928WAT     H1 3026   1.128   9.157   7.940
  928WAT     H2 3027   1.061   9.015   7.894
  929WAT      O 3028   4.919   2.120   8.162
  929WAT     H1 3029   4.923   2.220   8.157
  929WAT     H2 3030   4.825   2.090   8.147
  930WAT      O 3031   5.660   5.884   3.069
  930WAT     H1 3032   5.694   5.799   3.029
  930WAT     H2 3033   5.653   5.875   3.168
  931WAT      O 3034   7.324   4.956   7.825
  931WAT     H1 3035   7.238   5.005   7.840
  931WAT     H2 3036   7.358   4.977   7.734
  932WAT      O 3037   3.718   8.934   8.721
  932WAT     H1 3038   3.742   8.871   8.647
  932WAT     H2 3039   3.691   8.881   8.802
  933WAT      O 3040   3.548   3.215   2.438
  933WAT     H1 3041   3.540   3.225   2.537
  933WAT     H2 3042   3.471   3.261   2.393
  934WAT      O 3043   2.874   1.635   8.475
  934WAT     H1 3044   2.892   1.732   8.460
  934WAT     H2 3045   2.825   1.597   8.397
  935WAT      O 3046   8.855   8.260   8.381
  935WAT     H1 3047   8.904   8.180   8.347
  935WAT     H2 3048   8.759   8.253   8.353
  936WAT      O 3049   2.710   1.544   5.778
  936WAT     H1 3050   2.698   1.467   5.715
  936WAT     H2 3051   2.621   1.587   5.795
  937WAT      O 3052   7.975   1.324   8.787
  937WAT     H1 3053   7.893   1.270   8.770
  937WAT     H2 3054   8.049   1.292   8.729
  938WAT      O 3055   2.567   8.911   5.141
  938WAT     H1 3056   2.664   8.917   5.164
  938WAT     H2 3057   2.515   8.972   5.201
  939WAT      O 3058   7.891   2.184   3.112
  939WAT     H1 3059   7.956   2.214   3.182
  939WAT     H2 3060   7.937   2.119   3.051
  940WAT      O 3061   3.134   4.345   8.353
  940WAT     H1 3062   3.232   4.366   8.352
  940WAT     H2 3063   3.089   4.398   8.424
  941WAT      O 3064   9.284   8.852   7.502
  941WAT     H1 3065   9.282   8.831   7.405
  941WAT     H2 3066   9.210   8.804   7.549
  942WAT      O 3067   4.188   0.464   9.176
  942WAT     H1 3068   4.241   0.403   9.235
  942WAT     H2 3069   4.101   0.420   9.153
  943WAT      O 3070   2.075   5.251   0.009
  943WAT     H1 3071   2.023   5.333   0.032
  943WAT     H2 3072   2.134   5.226   0.086
  944WAT      O 3073   4.810   5.955   6.907
  944WAT     H1 3074   4.893   5.967   6.851
  944WAT     H2 3075   4.815   6.016   6.986
  945WAT      O 3076   1.685   3.329   7.287
  945WAT     H1 3077   1.595   3.323   7.242
  945WAT     H2 3078   1.672   3.349   7.384
  946WAT      O 3079   6.850   6.071   2.545
  946WAT     H1 3080   6.900   6.028   2.620
  946WAT     H2 3081   6.752   6.062   2.561
  947WAT      O 3082   8.474   0.329   0.917
  947WAT     H1 3083   8.436   0.381   0.841
  947WAT     H2 3084   8.569   0.307   0.899
  948WAT      O 3085   6.340   3.418   8.770
  948WAT     H1 3086   6.245   3.448   8.776
  948WAT     H2 3087   6.344   3.320   8.752
  949WAT      O 3088   3.326   3.001   7.671
  949WAT     H1 3089   3.333   2.908   7.706
  949WAT     H2 3090   3.366   3.005   7.579
  950WAT      O 3091   8.712   7.077   7.631
  950WAT     H1 3092   8.639   7.066   7.699
  950WAT     H2 3093   8.799   7.050   7.671
  951WAT      O 3094   8.013   7.410   4.014
  951WAT     H1 3095   8.057   7.496   3.986
  951WAT     H2 3096   8.081   7.351   4.058
  952WAT      O 3097   6.508   9.563   2.692
  952WAT     H1 3098   6.512   9.657   2.724
  952WAT     H2 3099   6.562   9.554   2.608
  953WAT      O 3100   3.729   0.848   5.545
  953WAT     H1 3101   3.711   0.801   5.460
  953WAT     H2 3102   3.827   0.846   5.565
  954WAT      O 3103   9.762   1.597   0.925
  954WAT     H1 3104   9.854   1.628   0.900
  954WAT     H2 3105   9.767   1.504   0.962
  955WAT      O 3106   4.819   3.708   1.451
  955WAT     H1 3107   4.773   3.644   1.512
  955WAT     H2 3108   4.821   3.670   1.358
  956WAT      O 3109   4.655   2.910   0.076
  956WAT     H1 3110   4.707   2.838   0.122
  956WAT     H2 3111   4.557   2.892   0.087
  957WAT      O 3112   2.256   2.795   5.970
  957WAT     H1 3113   2.213   2.709   5.942
  957WAT     H2 3114   2.353   2.792   5.948
  958WAT      O 3115   5.153   6.929   9.781
  958WAT     H1 3116   5.096   6.893   9.707
  958WAT     H2 3117   5.249   6.913   9.760
  959WAT      O 3118   8.993   7.505   0.778
  959WAT     H1 3119   8.896   7.516   0.798
  959WAT     H2 3120   9.046   7.514   0.862
  960WAT      O 3121   0.330   7.116   4.629
  960WAT     H1 3122   0.304   7.034   4.680
  960WAT     H2 3123   0.359   7.090   4.537
  961WAT      O 3124   4.722   3.290   5.073
  961WAT     H1 3125   4.775   3.327   5.149
  961WAT     H2 3126   4.644   3.239   5.108
  962WAT      O 3127   3.664   1.337   7.889
  962WAT     H1 3128   3.641   1.277   7.812
  962WAT     H2 3129   3.762   1.352   7.892
  963WAT      O 3130   3.147   4.003   0.549
  963WAT     H1 3131   3.146   4.054   0.635
  963WAT     H2 3132   3.070   3.940   0.547
  964WAT      O 3133   2.102   1.655   6.263
  964WAT     H1 3134   2.202   1.662   6.270
  964WAT     H2 3135   2.063   1.747   6.257
  965WAT      O 3136   1.592   8.612   0.537
  965WAT     H1 3137   1.636   8.570   0.457
  965WAT     H2 3138   1.660   8.663   0.589
  966WAT      O 3139   4.643   9.567   7.308
  966WAT     H1 3140   4.584   9.641   7.276
  966WAT     H2 3141   4.589   9.484   7.323
  967WAT      O 3142   9.393   8.783   8.795
  967WAT     H1 3143   9.427   8.853   8.732
  967WAT     H2 3144   9.463   8.763   8.863
  968WAT      O 3145   8.330   7.693   6.531
  968WAT     H1 3146   8.239   7.698   6.490
  968WAT     H2 3147   8.396   7.665   6.461
  969WAT      O 3148   5.075   8.391   7.722
  969WAT     H1 3149   4.982   8.426   7.730
  969WAT     H2 3150   5.087   8.346   7.633
  970WAT      O 3151   0.908   1.560   6.991
  970WAT     H1 3152   0.917   1.634   7.058
  970WAT     H2 3153   0.999   1.526   6.966
  971WAT      O 3154   0.801   8.344   7.132
  971WAT     H1 3155   0.775   8.421   7.190
  971WAT     H2 3156   0.722   8.284   7.119
  972WAT      O 3157   0.110   5.891   1.542
  972WAT     H1 3158   0.097   5.819   1.474
  972WAT     H2 3159   0.127   5.978   1.495
  973WAT      O 3160   8.651   8.792   3.747
  973WAT     H1 3161   8.643   8.778   3.648
  973WAT     H2 3162   8.605   8.876   3.773
  974WAT      O 3163   7.627   3.489   5.053
  974WAT     H1 3164   7.657   3.395   5.065
  974WAT     H2 3165   7.694   3.539   4.999
  975WAT      O 3166   5.578   6.427   5.003
  975WAT     H1 3167   5.587   6.335   5.042
  975WAT     H2 3168   5.592   6.495   5.074
  976WAT      O 3169   2.719   3.195   7.311
  976WAT     H1 3170   2.799   3.210   7.370
  976WAT     H2 3171   2.674   3.109   7.337
  977WAT      O 3172   0.151   3.088   4.119
  977WAT     H1 3173   0.249   3.107   4.107
  977WAT     H2 3174   0.122   3.117   4.210
  978WAT      O 3175   3.551   9.715   4.982
  978WAT     H1 3176   3.469   9.760   5.016
  978WAT     H2 3177   3.555   9.724   4.882
  979WAT      O 3178   3.424   2.517   5.705
  979WAT     H1 3179   3.404   2.587   5.637
  979WAT     H2 3180   3.445   2.560   5.792
  980WAT      O 3181   7.794   2.726   2.391
  980WAT     H1 3182   7.781   2.637   2.434
  980WAT     H2 3183   7.824   2.714   2.297
  981WAT      O 3184   3.439   4.338   4.080
  981WAT     H1 3185   3.440   4.272   4.004
  981WAT     H2 3186   3.504   4.309   4.150
  982WAT      O 3187   8.572   5.502   7.835
  982WAT     H1 3188   8.657   5.504   7.782
  982WAT     H2 3189   8.563   5.587   7.887
  983WAT      O 3190   3.648   4.347   5.848
  983WAT     H1 3191   3.551   4.350   5.822
  983WAT     H2 3192   3.700   4.407   5.788
  984WAT      O 3193   5.819   6.785   6.033
  984WAT     H1 3194   5.754   6.786   6.109
  984WAT     H2 3195   5.769   6.783   5.946
  985WAT      O 3196   1.205   3.802   9.700
  985WAT     H1 3197   1.115   3.824   9.663
  985WAT     H2 3198   1.273   3.808   9.627
  986WAT      O 3199   3.810   6.801   9.574
  986WAT     H1 3200   3.781   6.792   9.479
  986WAT     H2 3201   3.745   6.753   9.633
  987WAT      O 3202   8.773   6.277   5.894
  987WAT     H1 3203   8.750   6.219   5.972
  987WAT     H2 3204   8.697   6.279   5.830
  988WAT      O 3205   1.603   0.664   0.906
  988WAT     H1 3206   1.585   0.761   0.886
  988WAT     H2 3207   1.549   0.636   0.985
  989WAT      O 3208   5.867   8.001   3.157
  989WAT     H1 3209   5.949   7.950   3.131
  989WAT     H2 3210   5.799   7.938   3.194
  990WAT      O 3211   9.607   3.562   3.238
  990WAT     H1 3212   9.512   3.578   3.261
  990WAT     H2 3213   9.629   3.465   3.251
  991WAT      O 3214   9.125   6.328   9.399
  991WAT     H1 3215   9.080   6.263   9.338
  991WAT     H2 3216   9.056   6.379   9.449
  992WAT      O 3217   9.466   1.792   3.748
  992WAT     H1 3218   9.426   1.799   3.656
  992WAT     H2 3219   9.549   1.736   3.744
  993WAT      O 3220   6.778   7.321   5.791
  993WAT     H1 3221   6.821   7.279   5.712
  993WAT     H2 3222   6.809   7.416   5.800
  994WAT      O 3223   9.188   8.027   2.597
  994WAT     H1 3224   9.138   8.110   2.625
  994WAT     H2 3225   9.257   8.006   2.666
  995WAT      O 3226   7.798   3.729   7.039
  995WAT     H1 3227   7.856   3.749   6.960
  995WAT     H2 3228   7.856   3.711   7.118
  996WAT      O 3229   5.943   0.119   6.280
  996WAT     H1 3230   6.042   0.132   6.276
  996WAT     H2 3231   5.903   0.187   6.341
  997WAT      O 3232   0.517   1.720   0.785
  997WAT     H1 3233   0.518   1.623   0.758
  997WAT     H2 3234   0.610   1.756   0.780
  998WAT      O 3235   9.559   8.458   9.530
  998WAT     H1 3236   9.627   8.456   9.604
  998WAT     H2 3237   9.505   8.542   9.537
  999WAT      O 3238   5.077   8.517   9.500
  999WAT     H1 3239   5.003   8.531   9.565
  999WAT     H2 3240   5.098   8.603   9.454
 1000WAT      O 3241   9.481   6.793   4.954
 1000WAT     H1 3242   9.427   6.877   4.967
 1000WAT     H2 3243   9.430   6.715   4.992
 1001WAT      O 3244   2.468   3.510   7.534
 1001WAT     H1 3245   2.435   3.438   7.473
 1001WAT     H2 3246   2.502   3.587   7.479
 1002WAT      O 3247   2.030   5.587   0.360
 1002WAT     H1 3248   2.021   5.549   0.268
 1002WAT     H2 3249   1.966   5.663   0.371
 1003WAT      O 3250   7.429   1.627   3.403
 1003WAT     H1 3251   7.354   1.667   3.455
 1003WAT     H2 3252   7.485   1.571   3.463
 1004WAT      O 3253   5.329   8.190   0.777
 1004WAT     H1 3254   5.337   8.095   0.807
 1004WAT     H2 3255   5.355   8.251   0.852
 1005WAT      O 3256   9.015   7.465   2.381
 1005WAT     H1 3257   9.048   7.540   2.324
 1005WAT     H2 3258   8.950   7.499   2.447
 1006WAT      O 3259   7.359   7.095   5.752
 1006WAT     H1 3260   7.450   7.082   5.790
 1006WAT     H2 3261   7.291   7.058   5.816
 1007WAT      O 3262   3.222   0.692   9.628
 1007WAT     H1 3263   3.292   0.734   9.570
 1007WAT     H2 3264   3.142   0.751   9.631
 1008WAT      O 3265   9.818   7.589   7.962
 1008WAT     H1 3266   9.732   7.604   7.913
 1008WAT     H2 3267   9.889   7.560   7.897
 1009WAT      O 3268   5.595   8.809   7.348
 1009WAT     H1 3269   5.545   8.832   7.265
 1009WAT     H2 3270   5.614   8.892   7.401
 1010WAT      O 3271   3.279   0.861   7.109
 1010WAT     H1 3272   3.299   0.793   7.180
 1010WAT     H2 3273   3.256   0.948   7.151
 1011WAT      O 3274   7.661   3.422   5.626
 1011WAT     H1 3275   7.698   3.404   5.718
 1011WAT     H2 3276   7.562   3.409   5.627
 1012WAT      O 3277   9.860   6.131   5.050
 1012WAT     H1 3278   9.922   6.108   4.975
 1012WAT     H2 3279   9.912   6.157   5.130
 1013WAT      O 3280   2.976   6.394   9.222
 1013WAT     H1 3281   3.031   6.415   9.141
 1013WAT     H2 3282   2.879   6.401   9.199
 1014WAT      O 3283   2.066   0.777   4.588
 1014WAT     H1 3284   2.120   0.796   4.670
 1014WAT     H2 3285   1.995   0.710   4.610
 1015WAT      O 3286   8.487   7.415   2.121
 1015WAT     H1 3287   8.532   7.488   2.070
 1015WAT     H2 3288   8.463   7.448   2.212
 1016WAT      O 3289   1.226   7.022   4.449
 1016WAT     H1 3290   1.193   6.970   4.528
 1016WAT     H2 3291   1.183   7.112   4.447
 1017WAT      O 3292   5.780   8.526   0.865
 1017WAT     H1 3293   5.836   8.560   0.940
 1017WAT     H2 3294   5.737   8.604   0.818
 1018WAT      O 3295   9.139   5.983   7.056
 1018WAT     H1 3296   9.172   5.924   6.983
 1018WAT     H2 3297   9.120   5.927   7.137
 1019WAT      O 3298   3.646   9.567   8.874
 1019WAT     H1 3299   3.610   9.507   8.946
 1019WAT     H2 3300   3.699   9.513   8.809
 1020WAT      O 3301   6.583   4.381   3.269
 1020WAT     H1 3302   6.668   4.431   3.253
 1020WAT     H2 3303   6.569   4.370   3.368
 1021WAT      O 3304   7.917   9.264   1.582
 1021WAT     H1 3305   7.877   9.326   1.514
 1021WAT     H2 3306   7.978   9.199   1.537
 1022WAT      O 3307   7.781   8.515   3.394
 1022WAT     H1 3308   7.763   8.446   3.324
 1022WAT     H2 3309   7.695   8.542   3.438
 1023WAT      O 3310   3.088   8.148   6.817
 1023WAT     H1 3311   3.119   8.241   6.799
 1023WAT     H2 3312   3.098   8.127   6.914
 1024WAT      O 3313   9.721   0.282   7.614
 1024WAT     H1 3314   9.793   0.238   7.667
 1024WAT     H2 3315   9.738   0.380   7.609
 1025WAT      O 3316   5.172   0.678   4.271
 1025WAT     H1 3317   5.107   0.719   4.335
 1025WAT     H2 3318   5.262   0.671   4.314
 1026WAT      O 3319   1.546   2.319   8.530
 1026WAT     H1 3320   1.496   2.282   8.608
 1026WAT     H2 3321   1.598   2.400   8.559
 1027WAT      O 3322   3.116   1.530   8.581
 1027WAT     H1 3323   3.050   1.563   8.514
 1027WAT     H2 3324   3.086   1.556   8.673
 1028WAT      O 3325   1.348   9.534   3.727
 1028WAT     H1 3326   1.272   9.582   3.772
 1028WAT     H2 3327   1.404   9.600   3.677
 1029WAT      O 3328   6.732   4.988   0.903
 1029WAT     H1 3329   6.790   4.929   0.959
 1029WAT     H2 3330   6.788   5.060   0.862
 1030WAT      O 3331   7.242   6.904   0.897
 1030WAT     H1 3332   7.262   6.811   0.925
 1030WAT     H2 3333   7.257   6.914   0.799
 1031WAT      O 3334   8.804   9.517   0.122
 1031WAT     H1 3335   8.770   9.601   0.164
 1031WAT     H2 3336   8.902   9.525   0.106
 1032WAT      O 3337   8.605   1.688   0.953
 1032WAT     H1 3338   8.685   1.700   0.895
 1032WAT     H2 3339   8.525   1.730   0.909
 1033WAT      O 3340   7.499   9.388   4.588
 1033WAT     H1 3341   7.567   9.326   4.549
 1033WAT     H2 3342   7.483   9.364   4.684
 1034WAT      O 3343   0.618   0.061   3.657
 1034WAT     H1 3344   0.717   0.069   3.671
 1034WAT     H2 3345   0.596   0.078   3.561
 1035WAT      O 3346   9.123   5.135   9.634
 1035WAT     H1 3347   9.065   5.060   9.665
 1035WAT     H2 3348   9.218   5.105   9.633
 1036WAT      O 3349   5.165   4.484   1.929
 1036WAT     H1 3350   5.133   4.578   1.938
 1036WAT     H2 3351   5.194   4.468   1.835
 1037WAT      O 3352   0.661   0.305   5.035
 1037WAT     H1 3353   0.580   0.319   4.978
 1037WAT     H2 3354   0.725   0.380   5.020
 1038WAT      O 3355   0.388   4.285   2.084
 1038WAT     H1 3356   0.298   4.291   2.039
 1038WAT     H2 3357   0.423   4.377   2.100
 1039WAT      O 3358   4.636   8.702   5.583
 1039WAT     H1 3359   4.695   8.657   5.650
 1039WAT     H2 3360   4.670   8.683   5.491
 1040WAT      O 3361   1.053   0.043   2.118
 1040WAT     H1 3362   1.103   0.032   2.204
 1040WAT     H2 3363   0.992  -0.035   2.105
 1041WAT      O 3364   8.211   3.257   6.819
 1041WAT     H1 3365   8.169   3.340   6.784
 1041WAT     H2 3366   8.310   3.259   6.801
 1042WAT      O 3367   2.435   4.559   7.967
 1042WAT     H1 3368   2.454   4.474   7.917
 1042WAT     H2 3369   2.522   4.605   7.987
 1043WAT      O 3370   9.014   1.834   2.157
 1043WAT     H1 3371   9.041   1.738   2.166
 1043WAT     H2 3372   9.081   1.883   2.102
 1044WAT      O 3373   8.740   7.339   5.051
 1044WAT     H1 3374   8.741   7.244   5.082
 1044WAT     H2 3375   8.820   7.388   5.088
 1045WAT      O 3376   1.819   3.729   5.796
 1045WAT     H1 3377   1.832   3.630   5.787
 1045WAT     H2 3378   1.863   3.761   5.880
 1046WAT      O 3379   1.494   0.852   3.682
 1046WAT     H1 3380   1.583   0.890   3.708
 1046WAT     H2 3381   1.508   0.779   3.615
 1047WAT      O 3382   4.904   0.425   3.315
 1047WAT     H1 3383   4.972   0.436   3.388
 1047WAT     H2 3384   4.945   0.378   3.237
 1048WAT      O 3385   3.671   8.551   5.006
 1048WAT     H1 3386   3.660   8.532   4.908
 1048WAT     H2 3387   3.733   8.629   5.018
 1049WAT      O 3388   7.617   1.516   8.034
 1049WAT     H1 3389   7.597   1.606   8.073
 1049WAT     H2 3390   7.610   1.520   7.934
 1050WAT      O 3391   5.675   8.027   3.474
 1050WAT     H1 3392   5.639   8.070   3.557
 1050WAT     H2 3393   5.720   7.941   3.498
 1051WAT      O 3394   2.064   0.582   2.362
 1051WAT     H1 3395   2.102   0.498   2.399
 1051WAT     H2 3396   1.965   0.583   2.376
 1052WAT      O 3397   2.546   0.299   3.799
 1052WAT     H1 3398   2.453   0.262   3.807
 1052WAT     H2 3399   2.612   0.227   3.823
 1053WAT      O 3400   4.795   1.511   9.132
 1053WAT     H1 3401   4.708   1.467   9.110
 1053WAT     H2 3402   4.870   1.445   9.124
 1054WAT      O 3403   4.120   2.944   3.410
 1054WAT     H1 3404   4.043   2.905   3.359
 1054WAT     H2 3405   4.203   2.938   3.354
 1055WAT      O 3406   1.053   4.682   5.868
 1055WAT     H1 3407   1.052   4.660   5.965
 1055WAT     H2 3408   1.072   4.599   5.815
 1056WAT      O 3409   5.572   9.292   9.827
 1056WAT     H1 3410   5.512   9.221   9.789
 1056WAT     H2 3411   5.543   9.314   9.920
 1057WAT      O 3412   9.486   5.342   3.243
 1057WAT     H1 3413   9.390   5.365   3.231
 1057WAT     H2 3414   9.494   5.261   3.302
 1058WAT      O 3415   1.522   4.122   9.265
 1058WAT     H1 3416   1.504   4.035   9.219
 1058WAT     H2 3417   1.611   4.158   9.237
 1059WAT      O 3418   0.788   8.026   4.298
 1059WAT     H1 3419   0.828   8.117   4.293
 1059WAT     H2 3420   0.751   8.010   4.389
 1060WAT      O 3421   9.381   8.743   1.085
 1060WAT     H1 3422   9.455   8.780   1.028
 1060WAT     H2 3423   9.339   8.817   1.137
 1061WAT      O 3424   6.311   5.298   8.487
 1061WAT     H1 3425   6.411   5.298   8.497
 1061WAT     H2 3426   6.276   5.206   8.504
 1062WAT      O 3427   8.351   7.292   8.845
 1062WAT     H1 3428   8.352   7.210   8.788
 1062WAT     H2 3429   8.442   7.332   8.848
 1063WAT      O 3430   5.687   5.240   0.110
 1063WAT     H1 3431   5.745   5.253   0.191
 1063WAT     H2 3432   5.591   5.252   0.135
 1064WAT      O 3433   9.270   4.911   9.368
 1064WAT     H1 3434   9.304   4.911   9.462
 1064WAT     H2 3435   9.346   4.900   9.304
 1065WAT      O 3436   9.726   2.830   4.049
 1065WAT     H1 3437   9.725   2.813   4.147
 1065WAT     H2 3438   9.817   2.862   4.021
 1066WAT      O 3439   6.548   0.817   5.773
 1066WAT     H1 3440   6.532   0.902   5.723
 1066WAT     H2 3441   6.490   0.816   5.855
 1067WAT      O 3442   1.800   7.416   3.958
 1067WAT     H1 3443   1.843   7.492   3.911
 1067WAT     H2 3444   1.701   7.419   3.944
 1068WAT      O 3445   2.747   9.798   8.847
 1068WAT     H1 3446   2.714   9.764   8.935
 1068WAT     H2 3447   2.669   9.828   8.792
 1069WAT      O 3448   8.941   1.336   0.871
 1069WAT     H1 3449   8.884   1.269   0.822
 1069WAT     H2 3450   9.037   1.308   0.864
 1070WAT      O 3451   8.514   9.643   1.335
 1070WAT     H1 3452   8.420   9.653   1.367
 1070WAT     H2 3453   8.532   9.547   1.314
 1071WAT      O 3454   0.106   5.265   6.783
 1071WAT     H1 3455   0.195   5.238   6.746
 1071WAT     H2 3456   0.097   5.365   6.780
 1072WAT      O 3457   7.366   4.966   4.417
 1072WAT     H1 3458   7.323   5.042   4.465
 1072WAT     H2 3459   7.449   4.938   4.466
 1073WAT      O 3460   1.238   1.624   9.331
 1073WAT     H1 3461   1.141   1.603   9.324
 1073WAT     H2 3462   1.279   1.623   9.240
 1074WAT      O 3463   5.256   7.348   3.387
 1074WAT     H1 3464   5.172   7.316   3.344
 1074WAT     H2 3465   5.265   7.307   3.478
 1075WAT      O 3466   2.747   3.804   3.119
 1075WAT     H1 3467   2.766   3.870   3.192
 1075WAT     H2 3468   2.667   3.750   3.144
 1076WAT      O 3469   7.519   9.391   2.452
 1076WAT     H1 3470   7.516   9.306   2.400
 1076WAT     H2 3471   7.520   9.469   2.389
 1077WAT      O 3472   0.517   1.591   5.661
 1077WAT     H1 3473   0.494   1.503   5.702
 1077WAT     H2 3474   0.482   1.665   5.719
 1078WAT      O 3475   0.060   0.357   4.321
 1078WAT     H1 3476   0.117   0.276   4.337
 1078WAT     H2 3477   0.090   0.432   4.380
 1079WAT      O 3478   8.729   4.685   8.255
 1079WAT     H1 3479   8.816   4.672   8.208
 1079WAT     H2 3480   8.707   4.603   8.308
 1080WAT      O 3481   4.036   3.781   4.707
 1080WAT     H1 3482   4.053   3.796   4.805
 1080WAT     H2 3483   4.118   3.804   4.655
 1081WAT      O 3484   7.251   3.504   8.806
 1081WAT     H1 3485   7.241   3.501   8.706
 1081WAT     H2 3486   7.336   3.458   8.832
 1082WAT      O 3487   1.323   5.076   7.857
 1082WAT     H1 3488   1.421   5.078   7.877
 1082WAT     H2 3489   1.309   5.051   7.761
 1083WAT      O 3490   6.215   8.082   9.553
 1083WAT     H1 3491   6.138   8.066   9.614
 1083WAT     H2 3492   6.187   8.064   9.458
 1084WAT      O 3493   9.310   2.529   8.059
 1084WAT     H1 3494   9.404   2.497   8.045
 1084WAT     H2 3495   9.312   2.623   8.094
 1085WAT      O 3496   7.680   7.774   7.896
 1085WAT     H1 3497   7.770   7.812   7.917
 1085WAT     H2 3498   7.609   7.838   7.927
 1086WAT      O 3499   6.712   5.217   4.387
 1086WAT     H1 3500   6.635   5.277   4.363
 1086WAT     H2 3501   6.776   5.213   4.310
 1087WAT      O 3502   5.915   5.681   3.349
 1087WAT     H1 3503   5.994   5.702   3.406
 1087WAT     H2 3504   5.904   5.753   3.280
 1088WAT      O 3505   2.556   0.589   8.332
 1088WAT     H1 3506   2.483   0.546   8.386
 1088WAT     H2 3507   2.636   0.603   8.390
 1089WAT      O 3508   9.777   6.247   8.100
 1089WAT     H1 3509   9.831   6.254   8.016
 1089WAT     H2 3510   9.716   6.326   8.108
 1090WAT      O 3511   6.073   0.612   5.922
 1090WAT     H1 3512   6.089   0.515   5.908
 1090WAT     H2 3513   6.106   0.664   5.844
 1091WAT      O 3514   4.987   8.627   1.509
 1091WAT     H1 3515   4.942   8.541   1.533
 1091WAT     H2 3516   5.010   8.627   1.412
 1092WAT      O 3517   3.430   6.388   7.250
 1092WAT     H1 3518   3.486   6.468   7.274
 1092WAT     H2 3519   3.472   6.305   7.287
 1093WAT      O 3520   0.799   6.666   7.079
 1093WAT     H1 3521   0.890   6.627   7.065
 1093WAT     H2 3522   0.754   6.678   6.991
 1094WAT      O 3523   3.921   6.400   7.453
 1094WAT     H1 3524   3.941   6.331   7.383
 1094WAT     H2 3525   3.903   6.356   7.540
 1095WAT      O 3526   1.481   0.492   7.389
 1095WAT     H1 3527   1.442   0.454   7.473
 1095WAT     H2 3528   1.580   0.478   7.390
 1096WAT      O 3529   2.246   3.321   6.333
 1096WAT     H1 3530   2.243   3.417   6.360
 1096WAT     H2 3531   2.281   3.266   6.409
 1097WAT      O 3532   5.093   8.831   7.562
 1097WAT     H1 3533   5.102   8.854   7.659
 1097WAT     H2 3534   5.170   8.870   7.511
 1098WAT      O 3535   8.607   3.913   4.972
 1098WAT     H1 3536   8.555   3.880   5.051
 1098WAT     H2 3537   8.702   3.926   4.999
 1099WAT      O 3538   1.258   3.149   9.667
 1099WAT     H1 3539   1.184   3.143   9.600
 1099WAT     H2 3540   1.227   3.111   9.754
 1100WAT      O 3541   1.027   7.111   6.165
 1100WAT     H1 3542   1.052   7.139   6.072
 1100WAT     H2 3543   0.967   7.031   6.161
 1101WAT      O 3544   2.491   2.697   1.250
 1101WAT     H1 3545   2.526   2.667   1.338
 1101WAT     H2 3546   2.475   2.796   1.252
 1102WAT      O 3547   4.503   3.692   3.503
 1102WAT     H1 3548   4.548   3.771   3.545
 1102WAT     H2 3549   4.559   3.611   3.518
 1103WAT      O 3550   5.348   7.318   9.527
 1103WAT     H1 3551   5.275   7.382   9.552
 1103WAT     H2 3552   5.422   7.326   9.593
 1104WAT      O 3553   8.572   3.751   5.309
 1104WAT     H1 3554   8.617   3.825   5.357
 1104WAT     H2 3555   8.578   3.667   5.363
 1105WAT      O 3556   2.781   4.745   5.684
 1105WAT     H1 3557   2.782   4.843   5.667
 1105WAT     H2 3558   2.784   4.696   5.597
 1106WAT      O 3559   9.197   6.095   9.616
 1106WAT     H1 3560   9.137   6.021   9.646
 1106WAT     H2 3561   9.154   6.144   9.540
 1107WAT      O 3562   6.609   1.440   5.579
 1107WAT     H1 3563   6.691   1.492   5.603
 1107WAT     H2 3564   6.533   1.467   5.638
 1108WAT      O 3565   8.500   3.917   7.774
 1108WAT     H1 3566   8.459   3.825   7.778
 1108WAT     H2 3567   8.477   3.967   7.857
 1109WAT      O 3568   7.794   2.241   9.869
 1109WAT     H1 3569   7.794   2.145   9.896
 1109WAT     H2 3570   7.700   2.276   9.869
 1110WAT      O 3571   0.844   4.818   4.807
 1110WAT     H1 3572   0.894   4.884   4.863
 1110WAT     H2 3573   0.789   4.759   4.866
 1111WAT      O 3574   8.936   1.698   2.498
 1111WAT     H1 3575   8.845   1.664   2.473
 1111WAT     H2 3576   9.005   1.630   2.472
 1112WAT      O 3577   1.225   2.870   9.824
 1112WAT     H1 3578   1.240   2.873   9.923
 1112WAT     H2 3579   1.133   2.835   9.805
 1113WAT      O 3580   1.066   1.198   3.598
 1113WAT     H1 3581   1.132   1.178   3.525
 1113WAT     H2 3582   1.010   1.276   3.571
 1114WAT      O 3583   9.777   6.029   9.813
 1114WAT     H1 3584   9.748   5.944   9.857
 1114WAT     H2 3585   9.833   6.082   9.876
 1115WAT      O 3586   8.944   9.758   1.991
 1115WAT     H1 3587   8.970   9.664   2.013
 1115WAT     H2 3588   8.921   9.765   1.894
 1116WAT      O 3589   2.847   3.005   8.243
 1116WAT     H1 3590   2.878   3.096   8.213
 1116WAT     H2 3591   2.892   2.935   8.188
 1117WAT      O 3592   3.633   7.449   4.072
 1117WAT     H1 3593   3.726   7.485   4.078
 1117WAT     H2 3594   3.588   7.459   4.160
 1118WAT      O 3595   4.361   0.761   5.814
 1118WAT     H1 3596   4.311   0.696   5.871
 1118WAT     H2 3597   4.351   0.853   5.851
 1119WAT      O 3598   2.849   7.845   8.018
 1119WAT     H1 3599   2.917   7.774   8.037
 1119WAT     H2 3600   2.761   7.818   8.058
 1120WAT      O 3601   2.261   2.711   6.362
 1120WAT     H1 3602   2.191   2.689   6.430
 1120WAT     H2 3603   2.233   2.792   6.310
 1121WAT      O 3604   9.275   7.016   0.822
 1121WAT     H1 3605   9.348   7.077   0.852
 1121WAT     H2 3606   9.237   6.967   0.900
 1122WAT      O 3607   6.028   7.607   0.718
 1122WAT     H1 3608   6.096   7.667   0.675
 1122WAT     H2 3609   6.027   7.519   0.671
 1123WAT      O 3610   3.983   2.457   9.326
 1123WAT     H1 3611   4.055   2.413   9.273
 1123WAT     H2 3612   3.914   2.389   9.352
 1124WAT      O 3613   8.730   6.776   5.833
 1124WAT     H1 3614   8.695   6.802   5.743
 1124WAT     H2 3615   8.656   6.783   5.901
 1125WAT      O 3616   9.809   0.069   6.969
 1125WAT     H1 3617   9.776   0.117   6.888
 1125WAT     H2 3618   9.799   0.128   7.049
 1126WAT      O 3619   4.748   6.444   3.915
 1126WAT     H1 3620   4.710   6.362   3.958
 1126WAT     H2 3621   4.847   6.447   3.929
 1127WAT      O 3622   4.834   9.823   7.707
 1127WAT     H1 3623   4.789   9.749   7.656
 1127WAT     H2 3624   4.900   9.870   7.648
 1128WAT      O 3625   2.852   4.161   3.978
 1128WAT     H1 3626   2.864   4.240   3.917
 1128WAT     H2 3627   2.780   4.183   4.045
 1129WAT      O 3628   5.520   7.131   6.305
 1129WAT     H1 3629   5.619   7.127   6.321
 1129WAT     H2 3630   5.472   7.134   6.393
 1130WAT      O 3631   9.427   4.895   6.396
 1130WAT     H1 3632   9.439   4.828   6.323
 1130WAT     H2 3633   9.439   4.987   6.360
 1131WAT      O 3634   1.734   3.068   8.615
 1131WAT     H1 3635   1.738   2.978   8.572
 1131WAT     H2 3636   1.654   3.117   8.583
 1132WAT      O 3637   3.100   9.193   5.807
 1132WAT     H1 3638   3.021   9.211   5.748
 1132WAT     H2 3639   3.071   9.139   5.886
 1133WAT      O 3640   8.897   2.028   8.605
 1133WAT     H1 3641   8.973   2.050   8.665
 1133WAT     H2 3642   8.916   1.941   8.558
 1134WAT      O 3643   7.511   6.063   4.296
 1134WAT     H1 3644   7.558   5.978   4.272
 1134WAT     H2 3645   7.492   6.115   4.213
 1135WAT      O 3646   9.421   1.286   0.869
 1135WAT     H1 3647   9.477   1.204   0.885
 1135WAT     H2 3648   9.360   1.299   0.947
 1136WAT      O 3649   9.579   7.253   9.803
 1136WAT     H1 3650   9.649   7.277   9.870
 1136WAT     H2 3651   9.610   7.278   9.711
 1137WAT      O 3652   5.567   3.779   0.054
 1137WAT     H1 3653   5.582   3.778   0.153
 1137WAT     H2 3654   5.570   3.874   0.021
 1138WAT      O 3655   4.687   0.516   6.125
 1138WAT     H1 3656   4.735   0.544   6.042
 1138WAT     H2 3657   4.670   0.595   6.183
 1139WAT      O 3658   9.048   3.059   1.523
 1139WAT     H1 3659   8.960   3.050   1.477
 1139WAT     H2 3660   9.042   3.019   1.614
 1140WAT      O 3661   7.539   6.269   8.626
 1140WAT     H1 3662   7.493   6.310   8.705
 1140WAT     H2 3663   7.510   6.316   8.543
 1141WAT      O 3664   8.980   5.679   5.784
 1141WAT     H1 3665   8.910   5.747   5.804
 1141WAT     H2 3666   9.009   5.688   5.689
 1142WAT      O 3667   8.593   8.801   1.332
 1142WAT     H1 3668   8.687   8.785   1.302
 1142WAT     H2 3669   8.578   8.757   1.421
 1143WAT      O 3670   1.575   6.495   5.643
 1143WAT     H1 3671   1.549   6.422   5.707
 1143WAT     H2 3672   1.674   6.495   5.630
 1144WAT      O 3673   1.953   2.812   5.608
 1144WAT     H1 3674   1.980   2.876   5.679
 1144WAT     H2 3675   2.029   2.750   5.588
 1145WAT      O 3676   4.633   4.273   7.196
 1145WAT     H1 3677   4.664   4.179   7.209
 1145WAT     H2 3678   4.534   4.274   7.183
 1146WAT      O 3679   4.339   8.164   9.531
 1146WAT     H1 3680   4.411   8.219   9.487
 1146WAT     H2 3681   4.257   8.166   9.474
 1147WAT      O 3682   7.260   0.867   4.995
 1147WAT     H1 3683   7.316   0.948   4.978
 1147WAT     H2 3684   7.174   0.894   5.037
 1148WAT      O 3685   4.373   1.369   8.442
 1148WAT     H1 3686   4.457   1.395   8.394
 1148WAT     H2 3687   4.346   1.442   8.505
 1149WAT      O 3688   1.907   8.637   5.933
 1149WAT     H1 3689   1.976   8.675   5.995
 1149WAT     H2 3690   1.880   8.546   5.964
 1150WAT      O 3691   1.305   3.885   1.803
 1150WAT     H1 3692   1.326   3.851   1.895
 1150WAT     H2 3693   1.205   3.888   1.791
 1151WAT      O 3694   3.897   4.246   9.327
 1151WAT     H1 3695   3.941   4.188   9.395
 1151WAT     H2 3696   3.806   4.273   9.359
 1152WAT      O 3697   5.227   7.283   5.232
 1152WAT     H1 3698   5.298   7.354   5.226
 1152WAT     H2 3699   5.267   7.194   5.210
 1153WAT      O 3700   6.389   5.016   3.681
 1153WAT     H1 3701   6.323   5.089   3.701
 1153WAT     H2 3702   6.420   4.975   3.766
 1154WAT      O 3703   9.326   3.157   0.712
 1154WAT     H1 3704   9.320   3.061   0.741
 1154WAT     H2 3705   9.381   3.163   0.629
 1155WAT      O 3706   2.650   8.936   7.564
 1155WAT     H1 3707   2.623   8.840   7.555
 1155WAT     H2 3708   2.722   8.943   7.633
 1156WAT      O 3709   8.497   7.082   1.398
 1156WAT     H1 3710   8.436   7.004   1.415
 1156WAT     H2 3711   8.575   7.077   1.459
 1157WAT      O 3712   9.048   1.074   8.747
 1157WAT     H1 3713   9.027   1.100   8.653
 1157WAT     H2 3714   9.064   0.976   8.752
 1158WAT      O 3715   1.746   8.213   8.554
 1158WAT     H1 3716   1.812   8.284   8.579
 1158WAT     H2 3717   1.718   8.226   8.459
 1159WAT      O 3718   7.991   8.328   4.840
 1159WAT     H1 3719   8.031   8.240   4.866
 1159WAT     H2 3720   7.965   8.325   4.743
 1160WAT      O 3721   4.161   6.794   8.197
 1160WAT     H1 3722   4.207   6.705   8.196
 1160WAT     H2 3723   4.103   6.801   8.278
 1161WAT      O 3724   0.407   2.406   4.836
 1161WAT     H1 3725   0.398   2.504   4.821
 1161WAT     H2 3726   0.316   2.364   4.835
 1162WAT      O 3727   2.208   1.055   1.499
 1162WAT     H1 3728   2.236   1.132   1.557
 1162WAT     H2 3729   2.234   1.074   1.405
 1163WAT      O 3730   2.190   1.343   6.065
 1163WAT     H1 3731   2.188   1.349   6.165
 1163WAT     H2 3732   2.246   1.265   6.038
 1164WAT      O 3733   4.444   3.539   4.313
 1164WAT     H1 3734   4.367   3.504   4.367
 1164WAT     H2 3735   4.457   3.481   4.233
 1165WAT      O 3736   3.700   4.728   1.298
 1165WAT     H1 3737   3.646   4.702   1.378
 1165WAT     H2 3738   3.784   4.674   1.295
 1166WAT      O 3739   6.287   5.617   6.838
 1166WAT     H1 3740   6.385   5.631   6.833
 1166WAT     H2 3741   6.240   5.682   6.777
 1167WAT      O 3742   0.994   1.949   6.682
 1167WAT     H1 3743   0.934   1.900   6.617
 1167WAT     H2 3744   1.077   1.896   6.697
 1168WAT      O 3745   0.911   0.898   5.053
 1168WAT     H1 3746   0.886   0.943   5.138
 1168WAT     H2 3747   0.836   0.838   5.024
 1169WAT      O 3748   7.448   0.177   9.574
 1169WAT     H1 3749   7.511   0.102   9.596
 1169WAT     H2 3750   7.421   0.170   9.478
 1170WAT      O 3751   5.561   5.238   9.527
 1170WAT     H1 3752   5.617   5.192   9.597
 1170WAT     H2 3753   5.478   5.273   9.569
 1171WAT      O 3754   1.291   2.445   2.590
 1171WAT     H1 3755   1.265   2.395   2.673
 1171WAT     H2 3756   1.256   2.398   2.510
 1172WAT      O 3757   0.038   1.188   6.896
 1172WAT     H1 3758  -0.036   1.231   6.947
 1172WAT     H2 3759   0.025   1.205   6.798
 1173WAT      O 3760   0.850   8.646   9.710
 1173WAT     H1 3761   0.926   8.708   9.692
 1173WAT     H2 3762   0.803   8.625   9.624
 1174WAT      O 3763   1.370   9.645   2.809
 1174WAT     H1 3764   1.280   9.642   2.853
 1174WAT     H2 3765   1.441   9.647   2.879
 1175WAT      O 3766   2.184   1.286   2.322
 1175WAT     H1 3767   2.139   1.259   2.237
 1175WAT     H2 3768   2.271   1.237   2.329
 1176WAT      O 3769   6.030   8.339   8.033
 1176WAT     H1 3770   5.986   8.421   7.997
 1176WAT     H2 3771   6.025   8.338   8.132
 1177WAT      O 3772   0.972   6.055   6.573
 1177WAT     H1 3773   0.982   6.154   6.565
 1177WAT     H2 3774   0.896   6.035   6.635
 1178WAT      O 3775   4.889   9.811   0.690
 1178WAT     H1 3776   4.798   9.826   0.729
 1178WAT     H2 3777   4.958   9.837   0.758
 1179WAT      O 3778   9.816   5.352   1.601
 1179WAT     H1 3779   9.812   5.359   1.501
 1179WAT     H2 3780   9.728   5.377   1.640
 1180WAT      O 3781   1.360   7.819   8.628
 1180WAT     H1 3782   1.304   7.761   8.687
 1180WAT     H2 3783   1.313   7.833   8.541
 1181WAT      O 3784   9.339   3.413   4.663
 1181WAT     H1 3785   9.360   3.504   4.629
 1181WAT     H2 3786   9.293   3.360   4.591
 1182WAT      O 3787   6.128   4.402   9.256
 1182WAT     H1 3788   6.135   4.313   9.212
 1182WAT     H2 3789   6.219   4.434   9.281
 1183WAT      O 3790   8.423   6.035   6.565
 1183WAT     H1 3791   8.365   5.992   6.634
 1183WAT     H2 3792   8.452   5.967   6.498
 1184WAT      O 3793   1.031   7.449   5.572
 1184WAT     H1 3794   0.980   7.393   5.637
 1184WAT     H2 3795   1.124   7.413   5.563
 1185WAT      O 3796   9.761   2.745   5.564
 1185WAT     H1 3797   9.812   2.756   5.650
 1185WAT     H2 3798   9.824   2.745   5.487
 1186WAT      O 3799   6.046   8.031   6.933
 1186WAT     H1 3800   6.132   7.983   6.950
 1186WAT     H2 3801   5.971   7.965   6.933
 1187WAT      O 3802   6.313   0.468   2.472
 1187WAT     H1 3803   6.379   0.431   2.406
 1187WAT     H2 3804   6.272   0.551   2.434
 1188WAT      O 3805   6.996   0.792   6.600
 1188WAT     H1 3806   6.975   0.694   6.611
 1188WAT     H2 3807   6.923   0.835   6.546
 1189WAT      O 3808   1.602   0.857   8.021
 1189WAT     H1 3809   1.606   0.814   7.931
 1189WAT     H2 3810   1.518   0.829   8.067
 1190WAT      O 3811   6.586   7.710   1.720
 1190WAT     H1 3812   6.597   7.611   1.709
 1190WAT     H2 3813   6.579   7.732   1.817
 1191WAT      O 3814   2.474   7.256   5.593
 1191WAT     H1 3815   2.430   7.338   5.554
 1191WAT     H2 3816   2.440   7.175   5.546
 1192WAT      O 3817   1.824   9.614   1.959
 1192WAT     H1 3818   1.781   9.599   2.048
 1192WAT     H2 3819   1.887   9.539   1.940
 1193WAT      O 3820   0.091   4.141   9.308
 1193WAT     H1 3821   0.066   4.173   9.216
 1193WAT     H2 3822   0.166   4.075   9.301
 1194WAT      O 3823   6.684   2.716   1.665
 1194WAT     H1 3824   6.674   2.706   1.566
 1194WAT     H2 3825   6.743   2.795   1.685
 1195WAT      O 3826   3.122   0.513   4.307
 1195WAT     H1 3827   3.145   0.521   4.210
 1195WAT     H2 3828   3.201   0.475   4.356
 1196WAT      O 3829   6.135   8.773   9.383
 1196WAT     H1 3830   6.225   8.752   9.346
 1196WAT     H2 3831   6.066   8.759   9.312
 1197WAT      O 3832   3.503   6.361   2.697
 1197WAT     H1 3833   3.438   6.417   2.645
 1197WAT     H2 3834   3.569   6.419   2.744
 1198WAT      O 3835   2.270   0.686   7.587
 1198WAT     H1 3836   2.316   0.773   7.606
 1198WAT     H2 3837   2.311   0.613   7.641
 1199WAT      O 3838   8.310   2.279   1.593
 1199WAT     H1 3839   8.294   2.378   1.595
 1199WAT     H2 3840   8.395   2.259   1.642
 1200WAT      O 3841   4.496   4.404   0.344
 1200WAT     H1 3842   4.516   4.388   0.247
 1200WAT     H2 3843   4.562   4.470   0.380
 1201WAT      O 3844   6.756   0.720   3.644
 1201WAT     H1 3845   6.837   0.763   3.682
 1201WAT     H2 3846   6.674   0.758   3.687
 1202WAT      O 3847   0.655   3.538   0.719
 1202WAT     H1 3848   0.706   3.455   0.699
 1202WAT     H2 3849   0.711   3.599   0.776
 1203WAT      O 3850   4.940   5.873   5.256
 1203WAT     H1 3851   4.895   5.893   5.343
 1203WAT     H2 3852   4.880   5.817   5.199
 1204WAT      O 3853   1.576   0.804   5.098
 1204WAT     H1 3854   1.657   0.844   5.055
 1204WAT     H2 3855   1.601   0.719   5.143
 1205WAT      O 3856   4.190   0.020   7.070
 1205WAT     H1 3857   4.220  -0.066   7.111
 1205WAT     H2 3858   4.216   0.097   7.129
 1206WAT      O 3859   3.430   9.155   1.608
 1206WAT     H1 3860   3.445   9.193   1.517
 1206WAT     H2 3861   3.516   9.154   1.658
 1207WAT      O 3862   3.808   3.483   9.890
 1207WAT     H1 3863   3.886   3.490   9.828
 1207WAT     H2 3864   3.729   3.530   9.851
 1208WAT      O 3865   1.284   7.064   8.118
 1208WAT     H1 3866   1.234   7.090   8.201
 1208WAT     H2 3867   1.221   7.055   8.042
 1209WAT      O 3868   2.521   4.098   2.489
 1209WAT     H1 3869   2.612   4.108   2.448
 1209WAT     H2 3870   2.507   4.002   2.514
 1210WAT      O 3871   9.763   3.835   0.544
 1210WAT     H1 3872   9.711   3.749   0.544
 1210WAT     H2 3873   9.835   3.830   0.475
 1211WAT      O 3874   0.975   3.776   6.094
 1211WAT     H1 3875   1.016   3.845   6.154
 1211WAT     H2 3876   0.950   3.696   6.148
 1212WAT      O 3877   1.027   4.474   5.686
 1212WAT     H1 3878   0.928   4.463   5.695
 1212WAT     H2 3879   1.046   4.544   5.617
 1213WAT      O 3880   1.217   5.566   8.335
 1213WAT     H1 3881   1.180   5.547   8.426
 1213WAT     H2 3882   1.234   5.664   8.325
 1214WAT      O 3883   1.409   2.671   8.739
 1214WAT     H1 3884   1.498   2.692   8.780
 1214WAT     H2 3885   1.342   2.653   8.812
 1215WAT      O 3886   5.015   6.136   6.343
 1215WAT     H1 3887   5.009   6.201   6.267
 1215WAT     H2 3888   5.108   6.138   6.380
 1216WAT      O 3889   1.961   4.711   4.421
 1216WAT     H1 3890   2.041   4.714   4.362
 1216WAT     H2 3891   1.977   4.765   4.504
 1217WAT      O 3892   0.017   6.048   7.509
 1217WAT     H1 3893  -0.037   5.982   7.560
 1217WAT     H2 3894   0.090   6.001   7.460
 1218WAT      O 3895   5.318   7.783   8.709
 1218WAT     H1 3896   5.412   7.808   8.687
 1218WAT     H2 3897   5.274   7.743   8.629
 1219WAT      O 3898   2.862   2.421   4.563
 1219WAT     H1 3899   2.937   2.485   4.577
 1219WAT     H2 3900   2.896   2.327   4.575
 1220WAT      O 3901   5.710   6.246   7.558
 1220WAT     H1 3902   5.774   6.243   7.635
 1220WAT     H2 3903   5.617   6.256   7.592
 1221WAT      O 3904   4.485   8.783   7.304
 1221WAT     H1 3905   4.429   8.720   7.359
 1221WAT     H2 3906   4.454   8.780   7.209
 1222WAT      O 3907   2.444   0.692   9.526
 1222WAT     H1 3908   2.363   0.718   9.475
 1222WAT     H2 3909   2.430   0.710   9.624
 1223WAT      O 3910   1.096   8.004   9.269
 1223WAT     H1 3911   1.151   7.936   9.219
 1223WAT     H2 3912   1.109   8.094   9.228
 1224WAT      O 3913   0.662   2.913   4.288
 1224WAT     H1 3914   0.759   2.938   4.287
 1224WAT     H2 3915   0.652   2.816   4.265
 1225WAT      O 3916   7.909   5.862   4.809
 1225WAT     H1 3917   7.837   5.828   4.748
 1225WAT     H2 3918   7.991   5.807   4.797
 1226WAT      O 3919   9.398   6.673   1.329
 1226WAT     H1 3920   9.415   6.584   1.287
 1226WAT     H2 3921   9.356   6.733   1.261
 1227WAT      O 3922   5.536   1.430   4.457
 1227WAT     H1 3923   5.508   1.526   4.448
 1227WAT     H2 3924   5.634   1.423   4.437
 1228WAT      O 3925   1.103   2.890   0.319
 1228WAT     H1 3926   1.012   2.879   0.281
 1228WAT     H2 3927   1.163   2.818   0.284
 1229WAT      O 3928   1.959   1.246   9.675
 1229WAT     H1 3929   1.869   1.262   9.635
 1229WAT     H2 3930   2.001   1.334   9.698
 1230WAT      O 3931   8.774   8.481   5.516
 1230WAT     H1 3932   8.710   8.428   5.460
 1230WAT     H2 3933   8.785   8.572   5.476
 1231WAT      O 3934   9.404   5.614   6.306
 1231WAT     H1 3935   9.375   5.538   6.248
 1231WAT     H2 3936   9.363   5.605   6.397
 1232WAT      O 3937   3.670   8.255   6.733
 1232WAT     H1 3938   3.630   8.331   6.784
 1232WAT     H2 3939   3.770   8.262   6.733
 1233WAT      O 3940   6.987   6.008   5.614
 1233WAT     H1 3941   6.979   6.026   5.516
 1233WAT     H2 3942   7.056   5.937   5.630
 1234WAT      O 3943   3.414   5.786   8.343
 1234WAT     H1 3944   3.451   5.704   8.300
 1234WAT     H2 3945   3.404   5.859   8.275
 1235WAT      O 3946   8.121   9.639   6.626
 1235WAT     H1 3947   8.067   9.621   6.544
 1235WAT     H2 3948   8.195   9.702   6.604
 1236WAT      O 3949   6.301   8.839   8.301
 1236WAT     H1 3950   6.256   8.856   8.389
 1236WAT     H2 3951   6.358   8.757   8.308
 1237WAT      O 3952   3.890   1.980   1.522
 1237WAT     H1 3953   3.829   2.060   1.516
 1237WAT     H2 3954   3.861   1.911   1.456
 1238WAT      O 3955   8.606   1.772   7.055
 1238WAT     H1 3956   8.594   1.773   7.154
 1238WAT     H2 3957   8.517   1.779   7.010
 1239WAT      O 3958   0.240   5.724   7.613
 1239WAT     H1 3959   0.203   5.794   7.675
 1239WAT     H2 3960   0.293   5.658   7.666
 1240WAT      O 3961   1.754   3.073   7.673
 1240WAT     H1 3962   1.702   3.006   7.619
 1240WAT     H2 3963   1.796   3.027   7.751
 1241WAT      O 3964   5.777   1.381   2.116
 1241WAT     H1 3965   5.834   1.437   2.055
 1241WAT     H2 3966   5.682   1.385   2.084
 1242WAT      O 3967   5.101   2.836   4.083
 1242WAT     H1 3968   5.068   2.770   4.015
 1242WAT     H2 3969   5.025   2.866   4.140
 1243WAT      O 3970   6.329   6.994   2.506
 1243WAT     H1 3971   6.238   6.955   2.522
 1243WAT     H2 3972   6.398   6.922   2.512
 1244WAT      O 3973   3.196   0.155   6.993
 1244WAT     H1 3974   3.127   0.183   6.926
 1244WAT     H2 3975   3.160   0.169   7.086
 1245WAT      O 3976   0.972   0.466   6.306
 1245WAT     H1 3977   0.890   0.511   6.339
 1245WAT     H2 3978   0.948   0.397   6.238
 1246WAT      O 3979   9.101   0.554   3.411
 1246WAT     H1 3980   9.099   0.594   3.503
 1246WAT     H2 3981   9.092   0.626   3.343
 1247WAT      O 3982   2.030   2.114   7.301
 1247WAT     H1 3983   1.967   2.191   7.314
 1247WAT     H2 3984   2.116   2.132   7.349
 1248WAT      O 3985   1.063   3.933   0.996
 1248WAT     H1 3986   1.082   3.887   1.082
 1248WAT     H2 3987   1.003   4.012   1.013
 1249WAT      O 3988   7.375   9.076   4.750
 1249WAT     H1 3989   7.410   9.160   4.791
 1249WAT     H2 3990   7.295   9.045   4.801
 1250WAT      O 3991   3.375   5.002   4.663
 1250WAT     H1 3992   3.349   5.036   4.572
 1250WAT     H2 3993   3.333   5.060   4.733
 1251WAT      O 3994   2.309   5.842   0.066
 1251WAT     H1 3995   2.381   5.793   0.017
 1251WAT     H2 3996   2.314   5.939   0.044
 1252WAT      O 3997   6.012   1.169   1.985
 1252WAT     H1 3998   5.961   1.201   1.905
 1252WAT     H2 3999   6.090   1.231   2.001
 1253WAT      O 4000   6.614   6.715   8.974
 1253WAT     H1 4001   6.638   6.773   9.052
 1253WAT     H2 4002   6.679   6.731   8.900
 1254WAT      O 4003   1.998   0.159   8.069
 1254WAT     H1 4004   2.061   0.082   8.077
 1254WAT     H2 4005   1.995   0.209   8.155
 1255WAT      O 4006   6.033   8.878   0.785
 1255WAT     H1 4007   6.085   8.860   0.702
 1255WAT     H2 4008   5.944   8.831   0.779
 1256WAT      O 4009   5.648   6.526   8.406
 1256WAT     H1 4010   5.594   6.609   8.417
 1256WAT     H2 4011   5.608   6.452   8.461
 1257WAT      O 4012   5.037   5.295   2.585
 1257WAT     H1 4013   5.012   5.279   2.680
 1257WAT     H2 4014   5.104   5.369   2.580
 1258WAT      O 4015   4.236   7.813   0.105
 1258WAT     H1 4016   4.322   7.864   0.108
 1258WAT     H2 4017   4.255   7.716   0.087
 1259WAT      O 4018   1.991   1.243   2.508
 1259WAT     H1 4019   2.063   1.262   2.442
 1259WAT     H2 4020   1.986   1.145   2.525
 1260WAT      O 4021   6.732   3.530   7.516
 1260WAT     H1 4022   6.781   3.475   7.583
 1260WAT     H2 4023   6.701   3.615   7.559
 1261WAT      O 4024   0.768   9.755   3.441
 1261WAT     H1 4025   0.861   9.790   3.436
 1261WAT     H2 4026   0.703   9.831   3.426
 1262WAT      O 4027   4.680   2.297   5.985
 1262WAT     H1 4028   4.695   2.368   6.054
 1262WAT     H2 4029   4.737   2.315   5.905
 1263WAT      O 4030   2.420   2.614   4.589
 1263WAT     H1 4031   2.505   2.630   4.639
 1263WAT     H2 4032   2.344   2.654   4.641
 1264WAT      O 4033   0.447   3.173   6.722
 1264WAT     H1 4034   0.471   3.120   6.804
 1264WAT     H2 4035   0.526   3.227   6.693
 1265WAT      O 4036   6.121   5.771   3.524
 1265WAT     H1 4037   6.118   5.807   3.617
 1265WAT     H2 4038   6.205   5.803   3.478
 1266WAT      O 4039   9.529   2.411   3.081
 1266WAT     H1 4040   9.480   2.472   3.018
 1266WAT     H2 4041   9.626   2.410   3.058
 1267WAT      O 4042   7.882   8.926   8.703
 1267WAT     H1 4043   7.958   8.925   8.637
 1267WAT     H2 4044   7.893   8.850   8.767
 1268WAT      O 4045   7.559   7.117   3.070
 1268WAT     H1 4046   7.645   7.070   3.091
 1268WAT     H2 4047   7.495   7.053   3.030
 1269WAT      O 4048   2.491   8.245   6.621
 1269WAT     H1 4049   2.569   8.196   6.581
 1269WAT     H2 4050   2.435   8.180   6.672
 1270WAT      O 4051   4.710   7.440   3.720
 1270WAT     H1 4052   4.657   7.367   3.677
 1270WAT     H2 4053   4.773   7.400   3.787
 1271WAT      O 4054   6.725   5.624   7.650
 1271WAT     H1 4055   6.754   5.620   7.554
 1271WAT     H2 4056   6.632   5.589   7.657
 1272WAT      O 4057   5.203   1.439   4.146
 1272WAT     H1 4058   5.188   1.536   4.129
 1272WAT     H2 4059   5.208   1.390   4.059
 1273WAT      O 4060   0.591   5.143   6.385
 1273WAT     H1 4061   0.616   5.217   6.322
 1273WAT     H2 4062   0.514   5.092   6.347
 1274WAT      O 4063   8.054   3.257   6.462
 1274WAT     H1 4064   7.959   3.257   6.431
 1274WAT     H2 4065   8.089   3.164   6.465
 1275WAT      O 4066   4.873   7.319   1.769
 1275WAT     H1 4067   4.834   7.308   1.677
 1275WAT     H2 4068   4.800   7.309   1.837
 1276WAT      O 4069   9.515   8.723   5.910
 1276WAT     H1 4070   9.521   8.772   5.823
 1276WAT     H2 4071   9.421   8.695   5.926
 1277WAT      O 4072   4.748   6.472   5.772
 1277WAT     H1 4073   4.824   6.535   5.786
 1277WAT     H2 4074   4.705   6.451   5.860
 1278WAT      O 4075   9.386   4.612   8.818
 1278WAT     H1 4076   9.391   4.700   8.865
 1278WAT     H2 4077   9.432   4.618   8.730
 1279WAT      O 4078   8.413   8.638   2.665
 1279WAT     H1 4079   8.462   8.691   2.596
 1279WAT     H2 4080   8.314   8.653   2.656
 1280WAT      O 4081   0.547   9.784   2.826
 1280WAT     H1 4082   0.476   9.829   2.879
 1280WAT     H2 4083   0.506   9.728   2.754
 1281WAT      O 4084   1.594   1.836   5.468
 1281WAT     H1 4085   1.672   1.892   5.495
 1281WAT     H2 4086   1.527   1.834   5.543
 1282WAT      O 4087   9.771   8.590   5.389
 1282WAT     H1 4088   9.739   8.496   5.397
 1282WAT     H2 4089   9.701   8.646   5.345
 1283WAT      O 4090   0.565   1.212   1.888
 1283WAT     H1 4091   0.527   1.168   1.806
 1283WAT     H2 4092   0.503   1.198   1.965
 1284WAT      O 4093   1.277   3.038   7.796
 1284WAT     H1 4094   1.283   2.950   7.748
 1284WAT     H2 4095   1.330   3.033   7.881
 1285WAT      O 4096   0.576   2.025   8.812
 1285WAT     H1 4097   0.608   1.930   8.802
 1285WAT     H2 4098   0.487   2.025   8.856
 1286WAT      O 4099   4.357   2.095   4.296
 1286WAT     H1 4100   4.409   2.010   4.289
 1286WAT     H2 4101   4.409   2.170   4.254
 1287WAT      O 4102   3.069   4.781   1.328
 1287WAT     H1 4103   2.995   4.806   1.391
 1287WAT     H2 4104   3.132   4.718   1.374
 1288WAT      O 4105   5.273   3.789   2.693
 1288WAT     H1 4106   5.244   3.768   2.600
 1288WAT     H2 4107   5.253   3.712   2.753
 1289WAT      O 4108   6.266   4.017   2.806
 1289WAT     H1 4109   6.349   4.064   2.775
 1289WAT     H2 4110   6.231   3.959   2.733
 1290WAT      O 4111   4.220   9.132   6.492
 1290WAT     H1 4112   4.121   9.141   6.483
 1290WAT     H2 4113   4.258   9.216   6.530
 1291WAT      O 4114   8.159   1.067   8.359
 1291WAT     H1 4115   8.185   1.133   8.289
 1291WAT     H2 4116   8.142   0.978   8.316
 1292WAT      O 4117   6.720   1.906   9.630
 1292WAT     H1 4118   6.685   1.831   9.574
 1292WAT     H2 4119   6.819   1.913   9.617
 1293WAT      O 4120   3.233   8.991   4.515
 1293WAT     H1 4121   3.272   8.913   4.564
 1293WAT     H2 4122   3.172   8.959   4.443
 1294WAT      O 4123   3.632   4.266   4.350
 1294WAT     H1 4124   3.695   4.223   4.285
 1294WAT     H2 4125   3.672   4.262   4.441
 1295WAT      O 4126   3.414   2.653   5.440
 1295WAT     H1 4127   3.497   2.685   5.395
 1295WAT     H2 4128   3.353   2.731   5.456
 1296WAT      O 4129   9.241   1.970   6.071
 1296WAT     H1 4130   9.329   2.013   6.050
 1296WAT     H2 4131   9.241   1.937   6.165
 1297WAT      O 4132   2.905   2.655   9.236
 1297WAT     H1 4133   2.871   2.629   9.146
 1297WAT     H2 4134   2.981   2.720   9.225
 1298WAT      O 4135   6.224   7.358   1.692
 1298WAT     H1 4136   6.216   7.288   1.622
 1298WAT     H2 4137   6.183   7.325   1.777
 1299WAT      O 4138   5.498   4.266   1.656
 1299WAT     H1 4139   5.423   4.212   1.617
 1299WAT     H2 4140   5.564   4.287   1.583
 1300WAT      O 4141   1.878   2.068   1.098
 1300WAT     H1 4142   1.913   2.147   1.148
 1300WAT     H2 4143   1.855   2.096   1.005
 1301WAT      O 4144   6.852   0.525   1.435
 1301WAT     H1 4145   6.903   0.442   1.457
 1301WAT     H2 4146   6.846   0.536   1.336
 1302WAT      O 4147   2.235   0.165   7.283
 1302WAT     H1 4148   2.231   0.262   7.258
 1302WAT     H2 4149   2.147   0.121   7.260
 1303WAT      O 4150   2.991   5.298   7.678
 1303WAT     H1 4151   2.945   5.303   7.767
 1303WAT     H2 4152   2.984   5.386   7.631
 1304WAT      O 4153   6.962   1.385   8.105
 1304WAT     H1 4154   7.030   1.346   8.044
 1304WAT     H2 4155   6.938   1.318   8.176
 1305WAT      O 4156   5.717   7.617   3.100
 1305WAT     H1 4157   5.643   7.553   3.082
 1305WAT     H2 4158   5.682   7.696   3.150
 1306WAT      O 4159   0.262   3.677   0.729
 1306WAT     H1 4160   0.302   3.647   0.816
 1306WAT     H2 4161   0.302   3.624   0.654
 1307WAT      O 4162   2.208   7.057   2.215
 1307WAT     H1 4163   2.265   7.037   2.136
 1307WAT     H2 4164   2.260   7.111   2.281
 1308WAT      O 4165   5.292   6.027   5.517
 1308WAT     H1 4166   5.223   6.021   5.589
 1308WAT     H2 4167   5.267   5.966   5.441
 1309WAT      O 4168   9.640   6.445   6.774
 1309WAT     H1 4169   9.637   6.532   6.727
 1309WAT     H2 4170   9.579   6.448   6.854
 1310WAT      O 4171   7.209   9.051   3.148
 1310WAT     H1 4172   7.187   9.148   3.133
 1310WAT     H2 4173   7.223   9.007   3.059
 1311WAT      O 4174   2.107   9.561   3.191
 1311WAT     H1 4175   2.201   9.529   3.201
 1311WAT     H2 4176   2.100   9.622   3.112
 1312WAT      O 4177   9.349   3.882   2.528
 1312WAT     H1 4178   9.294   3.798   2.518
 1312WAT     H2 4179   9.313   3.936   2.603
 1313WAT      O 4180   7.933   1.403   7.382
 1313WAT     H1 4181   7.936   1.491   7.429
 1313WAT     H2 4182   7.849   1.397   7.328
 1314WAT      O 4183   3.109   6.806   6.536
 1314WAT     H1 4184   3.103   6.805   6.635
 1314WAT     H2 4185   3.205   6.806   6.508
 1315WAT      O 4186   2.543   9.791   8.661
 1315WAT     H1 4187   2.470   9.755   8.719
 1315WAT     H2 4188   2.521   9.885   8.635
 1316WAT      O 4189   6.114   6.018   7.284
 1316WAT     H1 4190   6.146   5.947   7.347
 1316WAT     H2 4191   6.193   6.068   7.248
 1317WAT      O 4192   2.474   2.870   7.937
 1317WAT     H1 4193   2.437   2.891   8.027
 1317WAT     H2 4194   2.573   2.866   7.941
 1318WAT      O 4195   4.625   8.726   9.532
 1318WAT     H1 4196   4.579   8.783   9.464
 1318WAT     H2 4197   4.659   8.783   9.607
 1319WAT      O 4198   3.459   9.400   9.010
 1319WAT     H1 4199   3.467   9.302   8.994
 1319WAT     H2 4200   3.370   9.432   8.977
 1320WAT      O 4201   0.419   4.350   1.275
 1320WAT     H1 4202   0.335   4.325   1.227
 1320WAT     H2 4203   0.482   4.274   1.274
 1321WAT      O 4204   3.245   3.170   5.503
 1321WAT     H1 4205   3.219   3.075   5.521
 1321WAT     H2 4206   3.273   3.214   5.588
 1322WAT      O 4207   4.688   6.978   2.448
 1322WAT     H1 4208   4.769   7.025   2.482
 1322WAT     H2 4209   4.606   7.018   2.489
 1323WAT      O 4210   3.422   1.484   6.079
 1323WAT     H1 4211   3.464   1.415   6.021
 1323WAT     H2 4212   3.329   1.455   6.102
 1324WAT      O 4213   6.924   4.756   8.068
 1324WAT     H1 4214   6.980   4.698   8.009
 1324WAT     H2 4215   6.840   4.780   8.021
 1325WAT      O 4216   7.738   2.801   1.518
 1325WAT     H1 4217   7.833   2.820   1.494
 1325WAT     H2 4218   7.679   2.873   1.482
 1326WAT      O 4219   8.025   2.629   2.990
 1326WAT     H1 4220   7.943   2.685   2.972
 1326WAT     H2 4221   8.075   2.668   3.067
 1327WAT      O 4222   7.289   7.524   2.461
 1327WAT     H1 4223   7.269   7.598   2.526
 1327WAT     H2 4224   7.207   7.470   2.446
 1328WAT      O 4225   6.523   5.998   2.647
 1328WAT     H1 4226   6.587   6.056   2.697
 1328WAT     H2 4227   6.430   6.032   2.660
 1329WAT      O 4228   8.164   9.799   8.147
 1329WAT     H1 4229   8.113   9.867   8.199
 1329WAT     H2 4230   8.236   9.760   8.206
 1330WAT      O 4231   0.232   4.487   8.895
 1330WAT     H1 4232   0.274   4.396   8.893
 1330WAT     H2 4233   0.282   4.546   8.958
 1331WAT      O 4234   1.034   6.118   9.200
 1331WAT     H1 4235   1.028   6.097   9.297
 1331WAT     H2 4236   0.975   6.196   9.178
 1332WAT      O 4237   8.693   2.556   8.676
 1332WAT     H1 4238   8.648   2.482   8.726
 1332WAT     H2 4239   8.779   2.521   8.637
 1333WAT      O 4240   3.257   4.067   8.130
 1333WAT     H1 4241   3.192   4.014   8.184
 1333WAT     H2 4242   3.297   4.009   8.059
 1334WAT      O 4243   6.117   2.097   0.848
 1334WAT     H1 4244   6.189   2.116   0.781
 1334WAT     H2 4245   6.159   2.081   0.938
 1335WAT      O 4246   2.431   1.448   4.846
 1335WAT     H1 4247   2.382   1.377   4.795
 1335WAT     H2 4248   2.366   1.516   4.880
 1336WAT      O 4249   5.930   3.988   5.354
 1336WAT     H1 4250   5.894   4.050   5.285
 1336WAT     H2 4251   5.944   4.038   5.440
 1337WAT      O 4252   3.541   9.324   1.380
 1337WAT     H1 4253   3.520   9.414   1.418
 1337WAT     H2 4254   3.639   9.318   1.359
 1338WAT      O 4255   2.812   6.677   3.606
 1338WAT     H1 4256   2.900   6.711   3.573
 1338WAT     H2 4257   2.827   6.621   3.688
 1339WAT      O 4258   9.039   0.933   8.236
 1339WAT     H1 4259   9.108   0.868   8.205
 1339WAT     H2 4260   8.971   0.885   8.292
 1340WAT      O 4261   6.166   9.315   4.979
 1340WAT     H1 4262   6.082   9.369   4.987
 1340WAT     H2 4263   6.241   9.363   5.026
 1341WAT      O 4264   8.519   4.438   8.363
 1341WAT     H1 4265   8.452   4.377   8.405
 1341WAT     H2 4266   8.475   4.492   8.291
 1342WAT      O 4267   2.564   2.450   3.140
 1342WAT     H1 4268   2.503   2.529   3.135
 1342WAT     H2 4269   2.594   2.437   3.234
 1343WAT      O 4270   2.631   0.314   2.333
 1343WAT     H1 4271   2.591   0.234   2.290
 1343WAT     H2 4272   2.659   0.379   2.263
 1344WAT      O 4273   4.837   5.836   1.044
 1344WAT     H1 4274   4.761   5.795   0.994
 1344WAT     H2 4275   4.892   5.763   1.085
 1345WAT      O 4276   2.782   0.196   1.787
 1345WAT     H1 4277   2.729   0.151   1.714
 1345WAT     H2 4278   2.870   0.149   1.798
 1346WAT      O 4279   0.035   7.396   1.481
 1346WAT     H1 4280  -0.014   7.456   1.418
 1346WAT     H2 4281   0.090   7.451   1.544
 1347WAT      O 4282   3.140   3.338   6.763
 1347WAT     H1 4283   3.172   3.283   6.686
 1347WAT     H2 4284   3.129   3.434   6.734
 1348WAT      O 4285   3.451   0.208   1.451
 1348WAT     H1 4286   3.445   0.117   1.408
 1348WAT     H2 4287   3.467   0.276   1.380
 1349WAT      O 4288   9.774   8.302   5.457
 1349WAT     H1 4289   9.776   8.228   5.526
 1349WAT     H2 4290   9.849   8.289   5.393
 1350WAT      O 4291   0.322   0.825   2.125
 1350WAT     H1 4292   0.294   0.804   2.031
 1350WAT     H2 4293   0.401   0.886   2.123
 1351WAT      O 4294   8.811   9.698   1.731
 1351WAT     H1 4295   8.726   9.721   1.684
 1351WAT     H2 4296   8.822   9.599   1.734
 1352WAT      O 4297   7.822   5.514   4.513
 1352WAT     H1 4298   7.910   5.481   4.547
 1352WAT     H2 4299   7.826   5.523   4.413
 1353WAT      O 4300   8.013   8.500   9.654
 1353WAT     H1 4301   7.994   8.558   9.734
 1353WAT     H2 4302   8.097   8.530   9.610
 1354WAT      O 4303   4.339   1.628   7.870
 1354WAT     H1 4304   4.270   1.681   7.918
 1354WAT     H2 4305   4.411   1.600   7.934
 1355WAT      O 4306   4.795   2.275   7.732
 1355WAT     H1 4307   4.884   2.317   7.750
 1355WAT     H2 4308   4.746   2.263   7.819
 1356WAT      O 4309   2.984   2.570   9.753
 1356WAT     H1 4310   2.888   2.593   9.769
 1356WAT     H2 4311   3.016   2.507   9.824
 1357WAT      O 4312   7.997   3.946   9.616
 1357WAT     H1 4313   7.962   3.932   9.523
 1357WAT     H2 4314   7.952   4.025   9.657
 1358WAT      O 4315   0.936   8.593   1.860
 1358WAT     H1 4316   1.028   8.619   1.889
 1358WAT     H2 4317   0.874   8.672   1.868
 1359WAT      O 4318   1.107   6.325   7.078
 1359WAT     H1 4319   1.199   6.316   7.116
 1359WAT     H2 4320   1.040   6.312   7.150
 1360WAT      O 4321   5.222   1.471   8.732
 1360WAT     H1 4322   5.224   1.528   8.649
 1360WAT     H2 4323   5.172   1.387   8.713
 1361WAT      O 4324   2.583   0.846   1.360
 1361WAT     H1 4325   2.511   0.776   1.354
 1361WAT     H2 4326   2.641   0.827   1.440
 1362WAT      O 4327   3.872   7.392   4.977
 1362WAT     H1 4328   3.916   7.428   5.059
 1362WAT     H2 4329   3.934   7.400   4.899
 1363WAT      O 4330   9.643   7.443   3.308
 1363WAT     H1 4331   9.683   7.355   3.335
 1363WAT     H2 4332   9.716   7.509   3.293
 1364WAT      O 4333   0.926   8.041   5.444
 1364WAT     H1 4334   0.978   8.085   5.371
 1364WAT     H2 4335   0.926   8.100   5.525
 1365WAT      O 4336   0.248   6.993   3.743
 1365WAT     H1 4337   0.299   6.992   3.829
 1365WAT     H2 4338   0.265   6.909   3.692
 1366WAT      O 4339   3.355   7.643   5.304
 1366WAT     H1 4340   3.308   7.700   5.372
 1366WAT     H2 4341   3.307   7.556   5.295
 1367WAT      O 4342   4.519   0.782   7.890
 1367WAT     H1 4343   4.577   0.704   7.916
 1367WAT     H2 4344   4.451   0.798   7.961
 1368WAT      O 4345   6.360   3.052   5.688
 1368WAT     H1 4346   6.294   3.101   5.745
 1368WAT     H2 4347   6.392   2.971   5.738
 1369WAT      O 4348   0.912   3.258   5.127
 1369WAT     H1 4349   0.980   3.204   5.178
 1369WAT     H2 4350   0.882   3.335   5.183
 1370WAT      O 4351   8.252   4.899   3.049
 1370WAT     H1 4352   8.261   4.800   3.039
 1370WAT     H2 4353   8.156   4.922   3.069
 1371WAT      O 4354   2.589   3.160   4.784
 1371WAT     H1 4355   2.536   3.102   4.845
 1371WAT     H2 4356   2.630   3.104   4.712
 1372WAT      O 4357   0.147   1.859   9.548
 1372WAT     H1 4358   0.077   1.886   9.613
 1372WAT     H2 4359   0.201   1.939   9.522
 1373WAT      O 4360   2.883   5.219   6.708
 1373WAT     H1 4361   2.917   5.199   6.799
 1373WAT     H2 4362   2.790   5.256   6.714
 1374WAT      O 4363   0.637   9.435   2.331
 1374WAT     H1 4364   0.580   9.492   2.272
 1374WAT     H2 4365   0.707   9.492   2.374
 1375WAT      O 4366   7.818   3.085   3.350
 1375WAT     H1 4367   7.827   3.183   3.366
 1375WAT     H2 4368   7.788   3.041   3.435
 1376WAT      O 4369   9.023   4.223   4.286
 1376WAT     H1 4370   9.010   4.274   4.201
 1376WAT     H2 4371   9.004   4.283   4.364
 1377WAT      O 4372   4.762   8.810   0.880
 1377WAT     H1 4373   4.702   8.752   0.935
 1377WAT     H2 4374   4.711   8.846   0.802
 1378WAT      O 4375   3.064   5.547   8.375
 1378WAT     H1 4376   3.118   5.619   8.419
 1378WAT     H2 4377   2.998   5.511   8.441
 1379WAT      O 4378   7.089   4.160   9.847
 1379WAT     H1 4379   7.189   4.161   9.856
 1379WAT     H2 4380   7.058   4.250   9.818
 1380WAT      O 4381   8.947   1.461   4.000
 1380WAT     H1 4382   8.945   1.377   3.947
 1380WAT     H2 4383   8.988   1.444   4.090
 1381WAT      O 4384   5.608   6.674   0.732
 1381WAT     H1 4385   5.693   6.722   0.756
 1381WAT     H2 4386   5.630   6.594   0.676
 1382WAT      O 4387   8.395   3.233   9.739
 1382WAT     H1 4388   8.320   3.268   9.796
 1382WAT     H2 4389   8.381   3.261   9.644
 1383WAT      O 4390   7.411   2.143   5.783
 1383WAT     H1 4391   7.358   2.226   5.762
 1383WAT     H2 4392   7.507   2.158   5.761
 1384WAT      O 4393   0.017   4.989   9.766
 1384WAT     H1 4394   0.024   5.032   9.676
 1384WAT     H2 4395   0.071   5.042   9.831
 1385WAT      O 4396   3.064   7.675   6.734
 1385WAT     H1 4397   3.140   7.693   6.672
 1385WAT     H2 4398   3.098   7.631   6.817
 1386WAT      O 4399   7.024   2.417   9.564
 1386WAT     H1 4400   6.932   2.456   9.556
 1386WAT     H2 4401   7.033   2.341   9.500
 1387WAT      O 4402   1.696   7.174   1.591
 1387WAT     H1 4403   1.774   7.217   1.545
 1387WAT     H2 4404   1.613   7.228   1.574
 1388WAT      O 4405   8.984   2.987   2.999
 1388WAT     H1 4406   8.980   2.918   2.927
 1388WAT     H2 4407   8.915   2.966   3.069
 1389WAT      O 4408   4.955   1.952   7.102
 1389WAT     H1 4409   4.857   1.932   7.109
 1389WAT     H2 4410   5.007   1.872   7.132
 1390WAT      O 4411   5.305   6.815   1.965
 1390WAT     H1 4412   5.318   6.782   2.059
 1390WAT     H2 4413   5.307   6.915   1.965
 1391WAT      O 4414   2.245   7.292   8.291
 1391WAT     H1 4415   2.281   7.318   8.201
 1391WAT     H2 4416   2.304   7.329   8.362
 1392WAT      O 4417   7.159   5.490   4.445
 1392WAT     H1 4418   7.088   5.536   4.392
 1392WAT     H2 4419   7.130   5.483   4.540
 1393WAT      O 4420   5.778   3.709   7.968
 1393WAT     H1 4421   5.733   3.797   7.987
 1393WAT     H2 4422   5.721   3.634   8.001
 1394WAT      O 4423   3.173   6.991   9.081
 1394WAT     H1 4424   3.246   6.977   9.148
 1394WAT     H2 4425   3.087   6.954   9.118
 1395WAT      O 4426   7.914   2.023   1.344
 1395WAT     H1 4427   7.848   2.067   1.283
 1395WAT     H2 4428   7.896   2.052   1.438
 1396WAT      O 4429   5.267   4.346   0.041
 1396WAT     H1 4430   5.305   4.335   0.133
 1396WAT     H2 4431   5.319   4.415  -0.009
 1397WAT      O 4432   8.978   5.016   2.915
 1397WAT     H1 4433   9.041   5.027   2.838
 1397WAT     H2 4434   9.003   4.934   2.967
 1398WAT      O 4435   9.667   3.558   7.349
 1398WAT     H1 4436   9.660   3.633   7.284
 1398WAT     H2 4437   9.756   3.513   7.338
 1399WAT      O 4438   0.732   1.170   0.323
 1399WAT     H1 4439   0.716   1.094   0.385
 1399WAT     H2 4440   0.749   1.134   0.231
 1400WAT      O 4441   2.516   9.641   7.372
 1400WAT     H1 4442   2.426   9.605   7.395
 1400WAT     H2 4443   2.507   9.728   7.324
 1401WAT      O 4444   4.747   5.092   5.332
 1401WAT     H1 4445   4.666   5.062   5.382
 1401WAT     H2 4446   4.719   5.154   5.258
 1402WAT      O 4447   6.234   6.320   9.260
 1402WAT     H1 4448   6.170   6.337   9.336
 1402WAT     H2 4449   6.276   6.406   9.232
 1403WAT      O 4450   5.377   0.570   6.369
 1403WAT     H1 4451   5.322   0.653   6.370
 1403WAT     H2 4452   5.357   0.515   6.450
 1404WAT      O 4453   6.021   7.263   6.520
 1404WAT     H1 4454   6.072   7.207   6.586
 1404WAT     H2 4455   5.923   7.251   6.535
 1405WAT      O 4456   1.294   0.719   1.991
 1405WAT     H1 4457   1.370   0.734   1.927
 1405WAT     H2 4458   1.300   0.785   2.065
 1406WAT      O 4459   8.190   3.631   4.565
 1406WAT     H1 4460   8.181   3.546   4.513
 1406WAT     H2 4461   8.280   3.636   4.607
 1407WAT      O 4462   9.634   3.154   9.379
 1407WAT     H1 4463   9.704   3.199   9.324
 1407WAT     H2 4464   9.551   3.142   9.325
 1408WAT      O 4465   5.070   9.104   0.863
 1408WAT     H1 4466   5.034   9.129   0.773
 1408WAT     H2 4467   5.166   9.128   0.868
 1409WAT      O 4468   1.286   7.867   2.079
 1409WAT     H1 4469   1.340   7.951   2.079
 1409WAT     H2 4470   1.348   7.788   2.087
 1410WAT      O 4471   7.613   3.319   0.423
 1410WAT     H1 4472   7.562   3.314   0.509
 1410WAT     H2 4473   7.552   3.296   0.347
 1411WAT      O 4474   1.613   2.236   4.752
 1411WAT     H1 4475   1.625   2.246   4.653
 1411WAT     H2 4476   1.670   2.304   4.799
 1412WAT      O 4477   3.797   4.949   8.848
 1412WAT     H1 4478   3.860   4.877   8.820
 1412WAT     H2 4479   3.765   4.999   8.768
 1413WAT      O 4480   8.436   4.421   6.892
 1413WAT     H1 4481   8.422   4.512   6.929
 1413WAT     H2 4482   8.393   4.414   6.802
 1414WAT      O 4483   5.210   6.453   7.981
 1414WAT     H1 4484   5.162   6.535   7.952
 1414WAT     H2 4485   5.144   6.385   8.013
 1415WAT      O 4486   6.560   2.447   4.397
 1415WAT     H1 4487   6.539   2.460   4.494
 1415WAT     H2 4488   6.659   2.433   4.386
 1416WAT      O 4489   9.182   3.942   0.051
 1416WAT     H1 4490   9.107   3.902   0.104
 1416WAT     H2 4491   9.186   4.041   0.069
 1417WAT      O 4492   2.787   3.985   9.464
 1417WAT     H1 4493   2.848   3.988   9.385
 1417WAT     H2 4494   2.819   3.916   9.529
 1418WAT      O 4495   4.868   0.043   3.751
 1418WAT     H1 4496   4.832   0.053   3.844
 1418WAT     H2 4497   4.968   0.039   3.754
 1419WAT      O 4498   3.032   8.490   5.022
 1419WAT     H1 4499   3.119   8.465   4.980
 1419WAT     H2 4500   2.980   8.547   4.959
 1420WAT      O 4501  -0.000   8.602   7.467
 1420WAT     H1 4502   0.041   8.635   7.382
 1420WAT     H2 4503  -0.027   8.506   7.456
 1421WAT      O 4504   8.212   5.188   6.579
 1421WAT     H1 4505   8.299   5.227   6.549
 1421WAT     H2 4506   8.181   5.120   6.512
 1422WAT      O 4507   0.112   1.437   0.713
 1422WAT     H1 4508   0.124   1.369   0.641
 1422WAT     H2 4509   0.083   1.391   0.797
 1423WAT      O 4510   8.244   8.378   2.640
 1423WAT     H1 4511   8.201   8.364   2.729
 1423WAT     H2 4512   8.324   8.437   2.650
 1424WAT      O 4513   5.539   7.231   4.988
 1424WAT     H1 4514   5.468   7.189   4.931
 1424WAT     H2 4515   5.522   7.330   4.995
 1425WAT      O 4516   4.171   5.847   8.754
 1425WAT     H1 4517   4.090   5.905   8.741
 1425WAT     H2 4518   4.248   5.886   8.704
 1426WAT      O 4519   3.853   9.486   2.156
 1426WAT     H1 4520   3.772   9.485   2.215
 1426WAT     H2 4521   3.844   9.414   2.086
 1427WAT      O 4522   2.753   5.041   3.496
 1427WAT     H1 4523   2.788   5.066   3.586
 1427WAT     H2 4524   2.754   5.121   3.436
 1428WAT      O 4525   3.041   7.322   9.304
 1428WAT     H1 4526   2.950   7.337   9.267
 1428WAT     H2 4527   3.078   7.408   9.340
 1429WAT      O 4528   3.498   8.204   0.313
 1429WAT     H1 4529   3.415   8.161   0.276
 1429WAT     H2 4530   3.492   8.303   0.302
 1430WAT      O 4531   2.140   2.926   2.313
 1430WAT     H1 4532   2.189   3.005   2.350
 1430WAT     H2 4533   2.203   2.870   2.260
 1431WAT      O 4534   7.816   4.185   9.598
 1431WAT     H1 4535   7.836   4.166   9.694
 1431WAT     H2 4536   7.809   4.284   9.585
 1432WAT      O 4537   0.885   4.573   3.646
 1432WAT     H1 4538   0.800   4.570   3.593
 1432WAT     H2 4539   0.892   4.662   3.692
 1433WAT      O 4540   8.418   8.292   4.847
 1433WAT     H1 4541   8.385   8.359   4.781
 1433WAT     H2 4542   8.423   8.202   4.804
 1434WAT      O 4543   4.079   9.625   0.680
 1434WAT     H1 4544   4.032   9.649   0.595
 1434WAT     H2 4545   4.052   9.533   0.708
 1435WAT      O 4546   7.845   3.893   3.877
 1435WAT     H1 4547   7.814   3.982   3.843
 1435WAT     H2 4548   7.906   3.906   3.955
 1436WAT      O 4549   2.598   3.505   8.027
 1436WAT     H1 4550   2.516   3.535   7.979
 1436WAT     H2 4551   2.639   3.429   7.978
 1437WAT      O 4552   3.937   1.345   7.620
 1437WAT     H1 4553   3.992   1.326   7.701
 1437WAT     H2 4554   3.888   1.431   7.631
 1438WAT      O 4555   7.803   8.034   0.519
 1438WAT     H1 4556   7.882   8.000   0.570
 1438WAT     H2 4557   7.835   8.088   0.441
 1439WAT      O 4558   6.562   4.401   5.679
 1439WAT     H1 4559   6.503   4.355   5.746
 1439WAT     H2 4560   6.518   4.485   5.649
 1440WAT      O 4561   1.954   0.179   6.320
 1440WAT     H1 4562   1.898   0.143   6.245
 1440WAT     H2 4563   2.040   0.215   6.284
 1441WAT      O 4564   5.282   0.921   0.194
 1441WAT     H1 4565   5.255   0.991   0.260
 1441WAT     H2 4566   5.380   0.902   0.205
 1442WAT      O 4567   4.696   7.976   6.881
 1442WAT     H1 4568   4.710   7.909   6.954
 1442WAT     H2 4569   4.598   7.991   6.868
 1443WAT      O 4570   3.025   1.567   7.413
 1443WAT     H1 4571   2.968   1.555   7.332
 1443WAT     H2 4572   2.973   1.616   7.483
 1444WAT      O 4573   2.179   8.000   1.072
 1444WAT     H1 4574   2.095   7.952   1.047
 1444WAT     H2 4575   2.159   8.067   1.143
 1445WAT      O 4576   8.945   7.393   6.955
 1445WAT     H1 4577   8.928   7.317   7.018
 1445WAT     H2 4578   8.966   7.475   7.008
 1446WAT      O 4579   8.514   7.352   0.026
 1446WAT     H1 4580   8.610   7.351  -0.002
 1446WAT     H2 4581   8.477   7.259   0.021
 1447WAT      O 4582   7.358   7.610   9.622
 1447WAT     H1 4583   7.420   7.681   9.656
 1447WAT     H2 4584   7.276   7.608   9.679
 1448WAT      O 4585   3.249   2.437   5.350
 1448WAT     H1 4586   3.324   2.478   5.400
 1448WAT     H2 4587   3.279   2.351   5.308
 1449WAT      O 4588   8.675   3.428   6.678
 1449WAT     H1 4589   8.721   3.506   6.636
 1449WAT     H2 4590   8.700   3.345   6.629
 1450WAT      O 4591   7.386   4.592   6.597
 1450WAT     H1 4592   7.355   4.617   6.689
 1450WAT     H2 4593   7.306   4.584   6.537
 1451WAT      O 4594   5.711   5.960   9.508
 1451WAT     H1 4595   5.685   5.896   9.435
 1451WAT     H2 4596   5.633   5.976   9.568
 1452WAT      O 4597   9.175   1.488   6.077
 1452WAT     H1 4598   9.273   1.493   6.094
 1452WAT     H2 4599   9.142   1.395   6.094
 1453WAT      O 4600   2.016   8.484   0.459
 1453WAT     H1 4601   2.010   8.576   0.497
 1453WAT     H2 4602   2.101   8.440   0.490
 1454WAT      O 4603   5.767   8.544   6.806
 1454WAT     H1 4604   5.756   8.600   6.888
 1454WAT     H2 4605   5.752   8.448   6.830
 1455WAT      O 4606   2.864   9.015   2.894
 1455WAT     H1 4607   2.844   9.113   2.896
 1455WAT     H2 4608   2.780   8.964   2.878
 1456WAT      O 4609   4.166   4.040   4.231
 1456WAT     H1 4610   4.077   4.075   4.261
 1456WAT     H2 4611   4.173   4.045   4.132
 1457WAT      O 4612   0.173   9.329   7.813
 1457WAT     H1 4613   0.189   9.242   7.765
 1457WAT     H2 4614   0.121   9.311   7.896
 1458WAT      O 4615   5.449   6.037   7.097
 1458WAT     H1 4616   5.450   5.949   7.144
 1458WAT     H2 4617   5.496   6.106   7.153
 1459WAT      O 4618   3.388   3.372   7.380
 1459WAT     H1 4619   3.464   3.435   7.361
 1459WAT     H2 4620   3.354   3.388   7.472
 1460WAT      O 4621   0.993   4.437   2.066
 1460WAT     H1 4622   0.994   4.339   2.087
 1460WAT     H2 4623   1.022   4.488   2.147
 1461WAT      O 4624   9.316   2.782   8.990
 1461WAT     H1 4625   9.354   2.854   8.932
 1461WAT     H2 4626   9.246   2.731   8.939
 1462WAT      O 4627   0.318   6.139   2.368
 1462WAT     H1 4628   0.298   6.156   2.465
 1462WAT     H2 4629   0.297   6.043   2.347
 1463WAT      O 4630   3.870   4.841   6.345
 1463WAT     H1 4631   3.950   4.814   6.291
 1463WAT     H2 4632   3.868   4.941   6.353
 1464WAT      O 4633   7.298   9.256   0.375
 1464WAT     H1 4634   7.245   9.311   0.312
 1464WAT     H2 4635   7.304   9.302   0.463
 1465WAT      O 4636   5.458   4.033   0.776
 1465WAT     H1 4637   5.404   4.029   0.692
 1465WAT     H2 4638   5.465   4.128   0.807
 1466WAT      O 4639   1.881   8.401   5.183
 1466WAT     H1 4640   1.874   8.311   5.226
 1466WAT     H2 4641   1.813   8.409   5.110
 1467WAT      O 4642   8.745   4.503   6.656
 1467WAT     H1 4643   8.752   4.503   6.756
 1467WAT     H2 4644   8.678   4.571   6.627
 1468WAT      O 4645   1.549   7.276   2.904
 1468WAT     H1 4646   1.574   7.337   2.829
 1468WAT     H2 4647   1.458   7.303   2.939
 1469WAT      O 4648   9.721   0.718   3.380
 1469WAT     H1 4649   9.771   0.730   3.294
 1469WAT     H2 4650   9.700   0.621   3.393
 1470WAT      O 4651   7.450   4.169   2.205
 1470WAT     H1 4652   7.473   4.234   2.278
 1470WAT     H2 4653   7.486   4.202   2.118
 1471WAT      O 4654   1.295   5.544   2.325
 1471WAT     H1 4655   1.251   5.533   2.414
 1471WAT     H2 4656   1.322   5.454   2.290
 1472WAT      O 4657   8.125   9.710   6.959
 1472WAT     H1 4658   8.108   9.669   7.049
 1472WAT     H2 4659   8.197   9.659   6.913
 1473WAT      O 4660   8.742   1.906   2.165
 1473WAT     H1 4661   8.821   1.861   2.207
 1473WAT     H2 4662   8.771   1.953   2.081
 1474WAT      O 4663   0.447   6.123   6.371
 1474WAT     H1 4664   0.523   6.090   6.315
 1474WAT     H2 4665   0.370   6.147   6.313
 1475WAT      O 4666   6.182   4.075   0.210
 1475WAT     H1 4667   6.240   4.090   0.130
 1475WAT     H2 4668   6.233   4.024   0.279
 1476WAT      O 4669   1.113   3.243   0.065
 1476WAT     H1 4670   1.089   3.333   0.026
 1476WAT     H2 4671   1.169   3.256   0.146
 1477WAT      O 4672   7.157   4.323   7.608
 1477WAT     H1 4673   7.094   4.313   7.685
 1477WAT     H2 4674   7.163   4.419   7.582
 1478WAT      O 4675   6.414   1.442   0.836
 1478WAT     H1 4676   6.325   1.416   0.800
 1478WAT     H2 4677   6.403   1.480   0.928
 1479WAT      O 4678   0.840   3.445   9.272
 1479WAT     H1 4679   0.934   3.480   9.278
 1479WAT     H2 4680   0.818   3.425   9.176
 1480WAT      O 4681   5.426   2.291   0.382
 1480WAT     H1 4682   5.440   2.306   0.480
 1480WAT     H2 4683   5.380   2.204   0.367
 1481WAT      O 4684   2.367   2.948   8.167
 1481WAT     H1 4685   2.443   2.913   8.221
 1481WAT     H2 4686   2.319   3.020   8.218
 1482WAT      O 4687   3.429   7.880   0.406
 1482WAT     H1 4688   3.529   7.880   0.410
 1482WAT     H2 4689   3.392   7.885   0.499
 1483WAT      O 4690   1.410   9.415   6.375
 1483WAT     H1 4691   1.499   9.383   6.408
 1483WAT     H2 4692   1.368   9.345   6.318
 1484WAT      O 4693   3.288   4.232   9.766
 1484WAT     H1 4694   3.208   4.262   9.817
 1484WAT     H2 4695   3.259   4.183   9.684
 1485WAT      O 4696   6.598   4.194   5.491
 1485WAT     H1 4697   6.623   4.104   5.526
 1485WAT     H2 4698   6.595   4.260   5.567
 1486WAT      O 4699   7.234   8.402   5.689
 1486WAT     H1 4700   7.205   8.358   5.604
 1486WAT     H2 4701   7.156   8.449   5.729
 1487WAT      O 4702   7.228   2.105   6.222
 1487WAT     H1 4703   7.165   2.182   6.212
 1487WAT     H2 4704   7.317   2.139   6.253
 1488WAT      O 4705   7.252   3.335   7.033
 1488WAT     H1 4706   7.240   3.371   7.125
 1488WAT     H2 4707   7.290   3.406   6.974
 1489WAT      O 4708   3.511   0.368   8.050
 1489WAT     H1 4709   3.478   0.349   8.143
 1489WAT     H2 4710   3.607   0.341   8.043
 1490WAT      O 4711   8.916   6.293   7.512
 1490WAT     H1 4712   8.871   6.227   7.451
 1490WAT     H2 4713   8.929   6.379   7.464
 1491WAT      O 4714   6.835   4.838   2.951
 1491WAT     H1 4715   6.819   4.937   2.949
 1491WAT     H2 4716   6.747   4.790   2.955
 1492WAT      O 4717   2.365   3.407   8.709
 1492WAT     H1 4718   2.274   3.442   8.687
 1492WAT     H2 4719   2.361   3.354   8.794
 1493WAT      O 4720   1.623   8.141   0.216
 1493WAT     H1 4721   1.569   8.081   0.158
 1493WAT     H2 4722   1.708   8.095   0.243
 1494WAT      O 4723   6.742   2.680   4.936
 1494WAT     H1 4724   6.702   2.758   4.888
 1494WAT     H2 4725   6.784   2.618   4.871
 1495WAT      O 4726   6.796   4.959   6.104
 1495WAT     H1 4727   6.773   4.900   6.182
 1495WAT     H2 4728   6.742   5.043   6.110
 1496WAT      O 4729   4.591   0.090   8.797
 1496WAT     H1 4730   4.520   0.152   8.831
 1496WAT     H2 4731   4.556  -0.004   8.797
 1497WAT      O 4732   1.444   8.283   4.955
 1497WAT     H1 4733   1.525   8.340   4.966
 1497WAT     H2 4734   1.425   8.270   4.858
 1498WAT      O 4735   3.508   0.595   4.506
 1498WAT     H1 4736   3.491   0.672   4.445
 1498WAT     H2 4737   3.604   0.596   4.535
 1499WAT      O 4738   9.585   0.268   0.767
 1499WAT     H1 4739   9.530   0.350   0.754
 1499WAT     H2 4740   9.532   0.188   0.738
 1500WAT      O 4741   9.296   5.649   3.332
 1500WAT     H1 4742   9.337   5.738   3.312
 1500WAT     H2 4743   9.346   5.607   3.408
 1501WAT      O 4744   7.140   4.927   9.270
 1501WAT     H1 4745   7.051   4.889   9.296
 1501WAT     H2 4746   7.204   4.852   9.253
 1502WAT      O 4747   0.843   0.554   5.237
 1502WAT     H1 4748   0.838   0.456   5.257
 1502WAT     H2 4749   0.817   0.571   5.142
 1503WAT      O 4750   8.495   4.704   1.686
 1503WAT     H1 4751   8.536   4.667   1.602
 1503WAT     H2 4752   8.501   4.636   1.758
 1504WAT      O 4753   8.826   3.991   4.571
 1504WAT     H1 4754   8.884   3.927   4.619
 1504WAT     H2 4755   8.815   3.962   4.476
 1505WAT      O 4756   8.602   1.574   5.903
 1505WAT     H1 4757   8.583   1.502   5.971
 1505WAT     H2 4758   8.700   1.579   5.886
 1506WAT      O 4759   9.851   6.153   2.195
 1506WAT     H1 4760   9.787   6.159   2.118
 1506WAT     H2 4761   9.937   6.197   2.169
 1507WAT      O 4762   7.228   5.188   4.519
 1507WAT     H1 4763   7.204   5.284   4.503
 1507WAT     H2 4764   7.212   5.165   4.615
 1508WAT      O 4765   7.874   4.472   0.958
 1508WAT     H1 4766   7.955   4.461   0.901
 1508WAT     H2 4767   7.848   4.569   0.961
 1509WAT      O 4768   5.526   8.902   1.024
 1509WAT     H1 4769   5.586   8.970   1.067
 1509WAT     H2 4770   5.436   8.905   1.066
 1510WAT      O 4771   5.974   5.909   5.686
 1510WAT     H1 4772   6.017   5.998   5.695
 1510WAT     H2 4773   5.918   5.907   5.603
 1511WAT      O 4774   5.876   7.422   3.839
 1511WAT     H1 4775   5.975   7.431   3.836
 1511WAT     H2 4776   5.843   7.445   3.930
 1512WAT      O 4777   6.593   1.296   1.638
 1512WAT     H1 4778   6.688   1.327   1.633
 1512WAT     H2 4779   6.586   1.221   1.703
 1513WAT      O 4780   5.164   0.444   1.003
 1513WAT     H1 4781   5.190   0.536   0.975
 1513WAT     H2 4782   5.246   0.394   1.033
 1514WAT      O 4783   7.362   6.304   1.788
 1514WAT     H1 4784   7.381   6.283   1.693
 1514WAT     H2 4785   7.290   6.243   1.822
 1515WAT      O 4786   7.283   5.827   6.187
 1515WAT     H1 4787   7.257   5.763   6.259
 1515WAT     H2 4788   7.233   5.804   6.103
 1516WAT      O 4789   9.584   0.266   9.260
 1516WAT     H1 4790   9.617   0.232   9.348
 1516WAT     H2 4791   9.595   0.366   9.256
 1517WAT      O 4792   8.920   5.579   9.446
 1517WAT     H1 4793   9.005   5.612   9.486
 1517WAT     H2 4794   8.939   5.495   9.394
 1518WAT      O 4795   2.067   2.233   2.650
 1518WAT     H1 4796   2.147   2.175   2.669
 1518WAT     H2 4797   1.988   2.175   2.630
 1519WAT      O 4798   7.813   3.225   8.619
 1519WAT     H1 4799   7.768   3.190   8.701
 1519WAT     H2 4800   7.849   3.317   8.638
 1520WAT      O 4801   3.089   6.074   0.962
 1520WAT     H1 4802   3.001   6.042   0.997
 1520WAT     H2 4803   3.075   6.122   0.875
 1521WAT      O 4804   9.630   5.932   3.056
 1521WAT     H1 4805   9.641   6.009   3.118
 1521WAT     H2 4806   9.704   5.931   2.989
 1522WAT      O 4807   5.492   0.239   7.376
 1522WAT     H1 4808   5.509   0.260   7.280
 1522WAT     H2 4809   5.539   0.155   7.401
 1523WAT      O 4810   8.985   3.369   1.177
 1523WAT     H1 4811   9.078   3.347   1.147
 1523WAT     H2 4812   8.988   3.409   1.269
 1524WAT      O 4813   2.172   9.220   2.485
 1524WAT     H1 4814   2.161   9.196   2.388
 1524WAT     H2 4815   2.140   9.144   2.541
 1525WAT      O 4816   1.733   1.093   5.124
 1525WAT     H1 4817   1.760   1.074   5.218
 1525WAT     H2 4818   1.746   1.011   5.068
 1526WAT      O 4819   7.556   1.457   3.565
 1526WAT     H1 4820   7.499   1.425   3.641
 1526WAT     H2 4821   7.648   1.476   3.599
 1527WAT      O 4822   1.485   8.366   1.621
 1527WAT     H1 4823   1.563   8.429   1.629
 1527WAT     H2 4824   1.481   8.332   1.527
 1528WAT      O 4825   8.526   8.814   5.618
 1528WAT     H1 4826   8.446   8.844   5.669
 1528WAT     H2 4827   8.577   8.746   5.672
 1529WAT      O 4828   9.481   2.566   8.792
 1529WAT     H1 4829   9.413   2.493   8.781
 1529WAT     H2 4830   9.446   2.650   8.750
 1530WAT      O 4831   3.464   4.620   9.590
 1530WAT     H1 4832   3.413   4.688   9.537
 1530WAT     H2 4833   3.445   4.528   9.554
 1531WAT      O 4834   0.197   2.903   4.812
 1531WAT     H1 4835   0.229   2.914   4.717
 1531WAT     H2 4836   0.164   2.991   4.845
 1532WAT      O 4837   9.217   6.702   3.815
 1532WAT     H1 4838   9.150   6.697   3.889
 1532WAT     H2 4839   9.296   6.756   3.844
 1533WAT      O 4840   4.183   6.695   9.561
 1533WAT     H1 4841   4.278   6.721   9.576
 1533WAT     H2 4842   4.179   6.600   9.530
 1534WAT      O 4843   9.826   3.454   4.886
 1534WAT     H1 4844   9.869   3.505   4.960
 1534WAT     H2 4845   9.897   3.418   4.825
 1535WAT      O 4846   1.664   7.871   3.760
 1535WAT     H1 4847   1.565   7.875   3.745
 1535WAT     H2 4848   1.697   7.780   3.736
 1536WAT      O 4849   5.642   5.472   1.956
 1536WAT     H1 4850   5.649   5.390   2.013
 1536WAT     H2 4851   5.677   5.551   2.007
 1537WAT      O 4852   9.709   1.742   0.467
 1537WAT     H1 4853   9.730   1.651   0.502
 1537WAT     H2 4854   9.751   1.811   0.526
 1538WAT      O 4855   4.500   1.868   3.626
 1538WAT     H1 4856   4.488   1.967   3.639
 1538WAT     H2 4857   4.463   1.842   3.537
 1539WAT      O 4858   2.241   4.134   9.533
 1539WAT     H1 4859   2.292   4.216   9.507
 1539WAT     H2 4860   2.304   4.065   9.567
 1540WAT      O 4861   4.742   3.946   1.332
 1540WAT     H1 4862   4.777   3.871   1.388
 1540WAT     H2 4863   4.751   3.922   1.235
 1541WAT      O 4864   5.701   6.284   2.843
 1541WAT     H1 4865   5.716   6.233   2.928
 1541WAT     H2 4866   5.605   6.313   2.838
 1542WAT      O 4867   1.820   6.987   6.942
 1542WAT     H1 4868   1.763   7.067   6.921
 1542WAT     H2 4869   1.855   6.996   7.036
 1543WAT      O 4870   7.613   0.691   7.406
 1543WAT     H1 4871   7.664   0.768   7.444
 1543WAT     H2 4872   7.609   0.700   7.306
 1544WAT      O 4873   8.428   2.536   6.471
 1544WAT     H1 4874   8.482   2.486   6.538
 1544WAT     H2 4875   8.338   2.494   6.462
 1545WAT      O 4876   1.795   3.573   2.661
 1545WAT     H1 4877   1.858   3.586   2.737
 1545WAT     H2 4878   1.714   3.523   2.692
 1546WAT      O 4879   6.244   2.636   1.850
 1546WAT     H1 4880   6.172   2.671   1.789
 1546WAT     H2 4881   6.202   2.575   1.918
 1547WAT      O 4882   9.446   2.092   0.167
 1547WAT     H1 4883   9.481   2.077   0.260
 1547WAT     H2 4884   9.375   2.024   0.148
 1548WAT      O 4885   7.568   5.265   2.838
 1548WAT     H1 4886   7.605   5.317   2.761
 1548WAT     H2 4887   7.468   5.264   2.834
 1549WAT      O 4888   5.167   5.255   7.654
 1549WAT     H1 4889   5.176   5.199   7.571
 1549WAT     H2 4890   5.258   5.282   7.686
 1550WAT      O 4891   4.221   8.151   5.545
 1550WAT     H1 4892   4.320   8.144   5.550
 1550WAT     H2 4893   4.181   8.125   5.633
 1551WAT      O 4894   4.786   6.333   4.601
 1551WAT     H1 4895   4.750   6.421   4.571
 1551WAT     H2 4896   4.770   6.264   4.530
 1552WAT      O 4897   9.254   8.252   6.581
 1552WAT     H1 4898   9.211   8.341   6.598
 1552WAT     H2 4899   9.183   8.185   6.558
 1553WAT      O 4900   6.095   2.817   3.192
 1553WAT     H1 4901   6.159   2.850   3.122
 1553WAT     H2 4902   6.033   2.750   3.151
 1554WAT      O 4903   7.953   3.401   7.025
 1554WAT     H1 4904   7.948   3.476   7.090
 1554WAT     H2 4905   8.043   3.357   7.031
 1555WAT      O 4906   2.434   9.378   6.981
 1555WAT     H1 4907   2.520   9.352   7.025
 1555WAT     H2 4908   2.362   9.313   7.006
 1556WAT      O 4909   5.194   8.354   5.225
 1556WAT     H1 4910   5.155   8.362   5.317
 1556WAT     H2 4911   5.254   8.432   5.208
 1557WAT      O 4912   1.643   5.711   0.709
 1557WAT     H1 4913   1.579   5.667   0.646
 1557WAT     H2 4914   1.632   5.810   0.705
 1558WAT      O 4915   0.564   9.194   4.436
 1558WAT     H1 4916   0.570   9.117   4.372
 1558WAT     H2 4917   0.490   9.255   4.408
 1559WAT      O 4918   4.030   0.125   6.064
 1559WAT     H1 4919   4.118   0.161   6.034
 1559WAT     H2 4920   4.041   0.032   6.097
 1560WAT      O 4921   6.886   8.461   0.602
 1560WAT     H1 4922   6.834   8.377   0.617
 1560WAT     H2 4923   6.826   8.531   0.565
 1561WAT      O 4924   2.953   8.048   5.408
 1561WAT     H1 4925   2.920   7.967   5.457
 1561WAT     H2 4926   2.996   8.111   5.473
 1562WAT      O 4927   0.755   2.064   7.164
 1562WAT     H1 4928   0.854   2.052   7.157
 1562WAT     H2 4929   0.722   2.118   7.086
 1563WAT      O 4930   9.113   9.774   8.276
 1563WAT     H1 4931   9.068   9.697   8.322
 1563WAT     H2 4932   9.090   9.859   8.324
 1564WAT      O 4933   2.129   6.734   9.448
 1564WAT     H1 4934   2.049   6.764   9.395
 1564WAT     H2 4935   2.131   6.634   9.452
 1565WAT      O 4936   3.455   8.584   9.660
 1565WAT     H1 4937   3.356   8.571   9.652
 1565WAT     H2 4938   3.474   8.657   9.725
 1566WAT      O 4939   7.908   1.900   5.588
 1566WAT     H1 4940   7.885   1.959   5.511
 1566WAT     H2 4941   7.999   1.924   5.622
 1567WAT      O 4942   3.288   7.944   3.030
 1567WAT     H1 4943   3.235   8.025   3.055
 1567WAT     H2 4944   3.264   7.868   3.091
 1568WAT      O 4945   9.475   7.989   1.422
 1568WAT     H1 4946   9.390   7.967   1.373
 1568WAT     H2 4947   9.453   8.026   1.512
 1569WAT      O 4948   8.110   3.364   0.251
 1569WAT     H1 4949   8.193   3.337   0.301
 1569WAT     H2 4950   8.031   3.315   0.288
 1570WAT      O 4951   3.125   3.387   8.766
 1570WAT     H1 4952   3.174   3.461   8.811
 1570WAT     H2 4953   3.027   3.406   8.767
 1571WAT      O 4954   2.705   9.221   3.228
 1571WAT     H1 4955   2.760   9.138   3.224
 1571WAT     H2 4956   2.754   9.292   3.278
 1572WAT      O 4957   4.827   5.294   0.322
 1572WAT     H1 4958   4.884   5.342   0.255
 1572WAT     H2 4959   4.744   5.262   0.277
 1573WAT      O 4960   6.950   0.468   9.693
 1573WAT     H1 4961   7.038   0.485   9.647
 1573WAT     H2 4962   6.875   0.496   9.633
 1574WAT      O 4963   0.432   9.714   5.876
 1574WAT     H1 4964   0.470   9.801   5.843
 1574WAT     H2 4965   0.485   9.682   5.954
 1575WAT      O 4966   4.146   5.137   8.096
 1575WAT     H1 4967   4.197   5.196   8.033
 1575WAT     H2 4968   4.079   5.191   8.146
 1576WAT      O 4969   5.344   9.113   0.668
 1576WAT     H1 4970   5.360   9.111   0.767
 1576WAT     H2 4971   5.335   9.019   0.635
 1577WAT      O 4972   1.970   2.995   8.968
 1577WAT     H1 4973   1.945   3.083   8.928
 1577WAT     H2 4974   2.014   3.009   9.056
 1578WAT      O 4975   9.589   1.448   4.690
 1578WAT     H1 4976   9.621   1.543   4.695
 1578WAT     H2 4977   9.541   1.434   4.604
 1579WAT      O 4978   6.344   3.655   2.921
 1579WAT     H1 4979   6.389   3.677   3.008
 1579WAT     H2 4980   6.404   3.681   2.846
 1580WAT      O 4981   7.971   0.638   6.907
 1580WAT     H1 4982   8.046   0.650   6.972
 1580WAT     H2 4983   7.897   0.702   6.929
 1581WAT      O 4984   0.681   4.498   7.056
 1581WAT     H1 4985   0.720   4.520   6.967
 1581WAT     H2 4986   0.590   4.458   7.044
 1582WAT      O 4987   2.609   7.384   9.887
 1582WAT     H1 4988   2.691   7.393   9.943
 1582WAT     H2 4989   2.633   7.393   9.791
 1583WAT      O 4990   6.237   2.300   8.178
 1583WAT     H1 4991   6.160   2.330   8.122
 1583WAT     H2 4992   6.206   2.277   8.270
 1584WAT      O 4993   8.147   4.959   0.173
 1584WAT     H1 4994   8.060   5.007   0.167
 1584WAT     H2 4995   8.200   4.973   0.090
 1585WAT      O 4996   5.191   8.892   6.200
 1585WAT     H1 4997   5.117   8.936   6.152
 1585WAT     H2 4998   5.154   8.832   6.271
 1586WAT      O 4999   5.449   4.324   2.340
 1586WAT     H1 5000   5.491   4.235   2.320
 1586WAT     H2 5001   5.465   4.347   2.436
 1587WAT      O 5002   9.749   0.482   6.712
 1587WAT     H1 5003   9.684   0.555   6.694
 1587WAT     H2 5004   9.824   0.488   6.646
 1588WAT      O 5005   9.653   8.315   6.081
 1588WAT     H1 5006   9.734   8.367   6.054
 1588WAT     H2 5007   9.571   8.363   6.048
 1589WAT      O 5008   2.449   0.208   4.861
 1589WAT     H1 5009   2.443   0.139   4.933
 1589WAT     H2 5010   2.545   0.236   4.851
 1590WAT      O 5011   2.563   6.680   3.452
 1590WAT     H1 5012   2.560   6.624   3.369
 1590WAT     H2 5013   2.654   6.675   3.492
 1591WAT      O 5014   5.661   9.056   1.223
 1591WAT     H1 5015   5.647   8.996   1.301
 1591WAT     H2 5016   5.741   9.114   1.239
 1592WAT      O 5017   3.170   6.333   5.710
 1592WAT     H1 5018   3.121   6.342   5.797
 1592WAT     H2 5019   3.246   6.397   5.707
 1593WAT      O 5020   1.966   4.129   4.173
 1593WAT     H1 5021   1.950   4.144   4.270
 1593WAT     H2 5022   2.035   4.057   4.161
 1594WAT      O 5023   7.614   2.744   5.029
 1594WAT     H1 5024   7.692   2.798   5.058
 1594WAT     H2 5025   7.645   2.655   4.996
 1595WAT      O 5026   2.927   8.090   3.109
 1595WAT     H1 5027   2.927   8.189   3.103
 1595WAT     H2 5028   2.860   8.060   3.177
 1596WAT      O 5029   2.707   9.790   6.045
 1596WAT     H1 5030   2.733   9.694   6.044
 1596WAT     H2 5031   2.612   9.800   6.016
 1597WAT      O 5032   0.537   5.394   8.322
 1597WAT     H1 5033   0.567   5.464   8.258
 1597WAT     H2 5034   0.520   5.309   8.274
 1598WAT      O 5035   6.412   1.807   9.696
 1598WAT     H1 5036   6.456   1.833   9.782
 1598WAT     H2 5037   6.313   1.797   9.711
 1599WAT      O 5038   7.496   6.474   6.798
 1599WAT     H1 5039   7.450   6.434   6.878
 1599WAT     H2 5040   7.552   6.405   6.754
 1600WAT      O 5041   8.647   7.837   7.611
 1600WAT     H1 5042   8.726   7.814   7.668
 1600WAT     H2 5043   8.662   7.803   7.518
 1601WAT      O 5044   5.614   4.107   7.692
 1601WAT     H1 5045   5.685   4.050   7.732
 1601WAT     H2 5046   5.552   4.051   7.638
 1602WAT      O 5047   5.983   2.378   8.037
 1602WAT     H1 5048   5.941   2.441   7.971
 1602WAT     H2 5049   5.914   2.345   8.101
 1603WAT      O 5050   3.128   5.386   8.674
 1603WAT     H1 5051   3.134   5.478   8.714
 1603WAT     H2 5052   3.052   5.383   8.609
 1604WAT      O 5053   2.646   5.366   6.721
 1604WAT     H1 5054   2.603   5.284   6.684
 1604WAT     H2 5055   2.682   5.422   6.646
 1605WAT      O 5056   6.810   2.951   5.757
 1605WAT     H1 5057   6.824   2.974   5.661
 1605WAT     H2 5058   6.712   2.934   5.774
 1606WAT      O 5059   6.937   9.510   2.882
 1606WAT     H1 5060   6.962   9.438   2.946
 1606WAT     H2 5061   6.886   9.582   2.930
 1607WAT      O 5062   4.916   8.963   7.921
 1607WAT     H1 5063   4.986   8.914   7.870
 1607WAT     H2 5064   4.840   8.985   7.860
 1608WAT      O 5065   0.392   9.623   3.230
 1608WAT     H1 5066   0.374   9.644   3.326
 1608WAT     H2 5067   0.315   9.655   3.174
 1609WAT      O 5068   9.787   3.314   9.198
 1609WAT     H1 5069   9.831   3.382   9.257
 1609WAT     H2 5070   9.855   3.271   9.139
 1610WAT      O 5071   9.596   6.709   9.687
 1610WAT     H1 5072   9.566   6.622   9.649
 1610WAT     H2 5073   9.624   6.697   9.782
 1611WAT      O 5074   8.527   0.990   8.957
 1611WAT     H1 5075   8.619   0.963   8.987
 1611WAT     H2 5076   8.530   1.084   8.923
 1612WAT      O 5077   8.844   4.369   5.778
 1612WAT     H1 5078   8.808   4.277   5.766
 1612WAT     H2 5079   8.851   4.390   5.876
 1613WAT      O 5080   5.871   8.083   7.250
 1613WAT     H1 5081   5.829   8.151   7.189
 1613WAT     H2 5082   5.808   8.062   7.325
 1614WAT      O 5083   5.677   8.054   1.487
 1614WAT     H1 5084   5.713   7.969   1.524
 1614WAT     H2 5085   5.594   8.080   1.538
 1615WAT      O 5086   4.270   7.545   7.382
 1615WAT     H1 5087   4.188   7.491   7.361
 1615WAT     H2 5088   4.245   7.617   7.447
 1616WAT      O 5089   3.749   8.082   2.915
 1616WAT     H1 5090   3.701   8.106   2.831
 1616WAT     H2 5091   3.843   8.116   2.912
 1617WAT      O 5092   4.142   5.540   2.201
 1617WAT     H1 5093   4.088   5.518   2.119
 1617WAT     H2 5094   4.239   5.535   2.178
 1618WAT      O 5095   9.537   7.034   7.991
 1618WAT     H1 5096   9.526   7.044   8.090
 1618WAT     H2 5097   9.621   6.985   7.971
 1619WAT      O 5098   9.639   8.585   8.720
 1619WAT     H1 5099   9.739   8.588   8.733
 1619WAT     H2 5100   9.594   8.621   8.802
 1620WAT      O 5101   4.335   6.284   6.996
 1620WAT     H1 5102   4.237   6.300   7.001
 1620WAT     H2 5103   4.374   6.339   6.922
 1621WAT      O 5104   2.972   0.641   6.910
 1621WAT     H1 5105   2.877   0.614   6.929
 1621WAT     H2 5106   3.003   0.597   6.826
 1622WAT      O 5107   0.757   5.215   4.561
 1622WAT     H1 5108   0.699   5.190   4.638
 1622WAT     H2 5109   0.715   5.185   4.475
 1623WAT      O 5110   0.939   7.371   0.186
 1623WAT     H1 5111   0.847   7.389   0.223
 1623WAT     H2 5112   0.960   7.438   0.115
 1624WAT      O 5113   6.061   1.843   5.720
 1624WAT     H1 5114   6.152   1.809   5.697
 1624WAT     H2 5115   5.995   1.768   5.712
 1625WAT      O 5116   3.019   3.911   3.609
 1625WAT     H1 5117   2.982   3.845   3.674
 1625WAT     H2 5118   2.959   3.991   3.605
 1626WAT      O 5119   4.897   7.940   8.922
 1626WAT     H1 5120   4.825   7.900   8.978
 1626WAT     H2 5121   4.932   8.023   8.966
 1627WAT      O 5122   5.294   0.515   9.838
 1627WAT     H1 5123   5.229   0.449   9.875
 1627WAT     H2 5124   5.373   0.467   9.799
 1628WAT      O 5125   8.455   2.309   4.865
 1628WAT     H1 5126   8.391   2.298   4.941
 1628WAT     H2 5127   8.404   2.330   4.781
 1629WAT      O 5128   3.363   5.931   8.120
 1629WAT     H1 5129   3.283   5.889   8.078
 1629WAT     H2 5130   3.337   6.019   8.161
 1630WAT      O 5131   6.973   5.472   1.161
 1630WAT     H1 5132   6.898   5.439   1.102
 1630WAT     H2 5133   7.010   5.395   1.213
 1631WAT      O 5134   5.092   4.666   7.476
 1631WAT     H1 5135   5.091   4.718   7.562
 1631WAT     H2 5136   5.036   4.584   7.486
 1632WAT      O 5137   6.838   4.057   1.850
 1632WAT     H1 5138   6.909   4.041   1.918
 1632WAT     H2 5139   6.767   3.987   1.858
 1633WAT      O 5140   9.610   6.431   1.553
 1633WAT     H1 5141   9.660   6.350   1.521
 1633WAT     H2 5142   9.513   6.421   1.530
 1634WAT      O 5143   7.319   4.003   3.275
 1634WAT     H1 5144   7.299   3.913   3.237
 1634WAT     H2 5145   7.376   4.054   3.211
 1635WAT      O 5146   9.087   3.784   2.247
 1635WAT     H1 5147   9.078   3.877   2.211
 1635WAT     H2 5148   8.997   3.742   2.252
 1636WAT      O 5149   3.865   4.993   9.128
 1636WAT     H1 5150   3.941   5.057   9.139
 1636WAT     H2 5151   3.830   4.998   9.034
 1637WAT      O 5152   3.247   5.023   6.381
 1637WAT     H1 5153   3.332   5.022   6.434
 1637WAT     H2 5154   3.173   5.058   6.438
 1638WAT      O 5155   9.033   4.585   7.269
 1638WAT     H1 5156   9.025   4.638   7.185
 1638WAT     H2 5157   8.945   4.586   7.317
 1639WAT      O 5158   9.669   6.556   0.380
 1639WAT     H1 5159   9.680   6.536   0.283
 1639WAT     H2 5160   9.725   6.635   0.405
 1640WAT      O 5161   4.319   2.444   2.735
 1640WAT     H1 5162   4.413   2.458   2.766
 1640WAT     H2 5163   4.314   2.460   2.636
 1641WAT      O 5164   5.956   8.768   1.180
 1641WAT     H1 5165   5.862   8.750   1.150
 1641WAT     H2 5166   5.956   8.796   1.276
 1642WAT      O 5167   5.778   5.582   0.300
 1642WAT     H1 5168   5.760   5.493   0.343
 1642WAT     H2 5169   5.795   5.570   0.203
 1643WAT      O 5170   5.591   9.584   5.221
 1643WAT     H1 5171   5.650   9.663   5.206
 1643WAT     H2 5172   5.530   9.572   5.143
 1644WAT      O 5173   5.198   4.019   8.031
 1644WAT     H1 5174   5.159   4.011   8.122
 1644WAT     H2 5175   5.268   3.948   8.018
 1645WAT      O 5176   0.187   3.759   3.730
 1645WAT     H1 5177   0.115   3.828   3.732
 1645WAT     H2 5178   0.247   3.770   3.809
 1646WAT      O 5179   9.122   7.435   2.058
 1646WAT     H1 5180   9.154   7.527   2.038
 1646WAT     H2 5181   9.027   7.438   2.088
 1647WAT      O 5182   6.615   0.157   7.637
 1647WAT     H1 5183   6.659   0.085   7.691
 1647WAT     H2 5184   6.562   0.115   7.563
 1648WAT      O 5185   0.586   3.804   7.127
 1648WAT     H1 5186   0.644   3.779   7.204
 1648WAT     H2 5187   0.583   3.904   7.118
 1649WAT      O 5188   9.273   5.614   6.537
 1649WAT     H1 5189   9.205   5.675   6.497
 1649WAT     H2 5190   9.291   5.640   6.632
 1650WAT      O 5191   3.734   1.516   7.310
 1650WAT     H1 5192   3.706   1.586   7.377
 1650WAT     H2 5193   3.652   1.480   7.264
 1651WAT      O 5194   8.727   1.998   7.084
 1651WAT     H1 5195   8.654   2.064   7.103
 1651WAT     H2 5196   8.687   1.908   7.070
 1652WAT      O 5197   9.146   7.517   4.033
 1652WAT     H1 5198   9.123   7.589   4.097
 1652WAT     H2 5199   9.062   7.468   4.006
 1653WAT      O 5200   1.498   1.561   1.350
 1653WAT     H1 5201   1.438   1.627   1.305
 1653WAT     H2 5202   1.545   1.506   1.280
 1654WAT      O 5203   6.626   2.985   0.106
 1654WAT     H1 5204   6.724   2.993   0.125
 1654WAT     H2 5205   6.575   3.030   0.179
 1655WAT      O 5206   8.551   8.602   1.103
 1655WAT     H1 5207   8.540   8.680   1.165
 1655WAT     H2 5208   8.566   8.519   1.157
 1656WAT      O 5209   0.176   0.429   7.674
 1656WAT     H1 5210   0.139   0.479   7.595
 1656WAT     H2 5211   0.104   0.414   7.741
 1657WAT      O 5212   6.807   4.223   7.467
 1657WAT     H1 5213   6.832   4.163   7.543
 1657WAT     H2 5214   6.710   4.246   7.472
 1658WAT      O 5215   1.747   6.238   6.119
 1658WAT     H1 5216   1.677   6.260   6.186
 1658WAT     H2 5217   1.704   6.203   6.036
 1659WAT      O 5218   1.008   3.690   0.583
 1659WAT     H1 5219   0.956   3.733   0.510
 1659WAT     H2 5220   1.041   3.601   0.552
 1660WAT      O 5221   0.461   9.102   8.811
 1660WAT     H1 5222   0.376   9.063   8.779
 1660WAT     H2 5223   0.528   9.030   8.829
 1661WAT      O 5224   6.155   4.644   4.629
 1661WAT     H1 5225   6.192   4.604   4.544
 1661WAT     H2 5226   6.196   4.734   4.643
 1662WAT      O 5227   9.647   6.390   7.473
 1662WAT     H1 5228   9.585   6.368   7.398
 1662WAT     H2 5229   9.612   6.468   7.524
 1663WAT      O 5230   1.690   1.036   9.440
 1663WAT     H1 5231   1.701   0.945   9.477
 1663WAT     H2 5232   1.636   1.032   9.355
 1664WAT      O 5233   6.282   5.896   7.481
 1664WAT     H1 5234   6.280   5.993   7.506
 1664WAT     H2 5235   6.358   5.879   7.419
 1665WAT      O 5236   5.407   7.476   5.212
 1665WAT     H1 5237   5.446   7.471   5.120
 1665WAT     H2 5238   5.482   7.481   5.279
 1666WAT      O 5239   2.534   9.413   6.083
 1666WAT     H1 5240   2.631   9.431   6.064
 1666WAT     H2 5241   2.499   9.484   6.144
 1667WAT      O 5242   8.561   0.257   2.699
 1667WAT     H1 5243   8.537   0.282   2.793
 1667WAT     H2 5244   8.609   0.169   2.699
 1668WAT      O 5245   9.722   1.337   9.188
 1668WAT     H1 5246   9.671   1.374   9.266
 1668WAT     H2 5247   9.718   1.402   9.112
 1669WAT      O 5248   5.977   1.210   2.722
 1669WAT     H1 5249   6.042   1.172   2.656
 1669WAT     H2 5250   5.947   1.138   2.784
 1670WAT      O 5251   5.257   6.485   7.067
 1670WAT     H1 5252   5.354   6.494   7.049
 1670WAT     H2 5253   5.243   6.432   7.151
 1671WAT      O 5254   6.725   0.896   1.694
 1671WAT     H1 5255   6.723   0.855   1.785
 1671WAT     H2 5256   6.632   0.915   1.665
 1672WAT      O 5257   1.266   7.062   2.020
 1672WAT     H1 5258   1.325   6.999   1.970
 1672WAT     H2 5259   1.182   7.079   1.968
 1673WAT      O 5260   2.051   7.388   6.729
 1673WAT     H1 5261   2.050   7.296   6.768
 1673WAT     H2 5262   2.138   7.432   6.750
 1674WAT      O 5263   1.671   2.253   9.525
 1674WAT     H1 5264   1.575   2.267   9.500
 1674WAT     H2 5265   1.686   2.156   9.545
 1675WAT      O 5266   8.729   5.187   1.626
 1675WAT     H1 5267   8.719   5.088   1.631
 1675WAT     H2 5268   8.640   5.228   1.607
 1676WAT      O 5269   1.363   8.893   9.370
 1676WAT     H1 5270   1.353   8.969   9.434
 1676WAT     H2 5271   1.364   8.807   9.421
 1677WAT      O 5272   9.672   8.150   5.006
 1677WAT     H1 5273   9.616   8.223   5.047
 1677WAT     H2 5274   9.717   8.185   4.924
 1678WAT      O 5275   0.946   4.738   1.064
 1678WAT     H1 5276   1.027   4.679   1.054
 1678WAT     H2 5277   0.903   4.750   0.975
 1679WAT      O 5278   0.423   9.406   3.061
 1679WAT     H1 5279   0.415   9.461   3.144
 1679WAT     H2 5280   0.502   9.346   3.068
 1680WAT      O 5281   5.206   6.244   4.109
 1680WAT     H1 5282   5.298   6.252   4.149
 1680WAT     H2 5283   5.141   6.294   4.166
 1681WAT      O 5284   7.584   5.200   6.135
 1681WAT     H1 5285   7.636   5.117   6.155
 1681WAT     H2 5286   7.639   5.281   6.156
 1682WAT      O 5287   3.128   1.738   9.222
 1682WAT     H1 5288   3.140   1.772   9.128
 1682WAT     H2 5289   3.158   1.808   9.287
 1683WAT      O 5290   4.302   1.975   3.139
 1683WAT     H1 5291   4.204   1.968   3.154
 1683WAT     H2 5292   4.323   2.058   3.088
 1684WAT      O 5293   9.632   6.893   8.481
 1684WAT     H1 5294   9.720   6.915   8.524
 1684WAT     H2 5295   9.612   6.962   8.411
 1685WAT      O 5296   3.361   3.361   9.687
 1685WAT     H1 5297   3.460   3.368   9.686
 1685WAT     H2 5298   3.322   3.447   9.720
 1686WAT      O 5299   4.456   1.723   1.754
 1686WAT     H1 5300   4.507   1.807   1.736
 1686WAT     H2 5301   4.520   1.646   1.761
 1687WAT      O 5302   2.359   7.969   2.943
 1687WAT     H1 5303   2.391   8.011   2.859
 1687WAT     H2 5304   2.359   7.870   2.934
 1688WAT      O 5305   7.649   3.706   4.027
 1688WAT     H1 5306   7.554   3.722   4.000
 1688WAT     H2 5307   7.710   3.747   3.959
 1689WAT      O 5308   8.404   7.449   3.942
 1689WAT     H1 5309   8.489   7.421   3.985
 1689WAT     H2 5310   8.345   7.369   3.930
 1690WAT      O 5311   8.364   5.541   7.669
 1690WAT     H1 5312   8.439   5.503   7.724
 1690WAT     H2 5313   8.393   5.547   7.573
 1691WAT      O 5314   6.605   5.472   1.978
 1691WAT     H1 5315   6.613   5.452   2.076
 1691WAT     H2 5316   6.688   5.516   1.946
 1692WAT      O 5317   3.543   3.698   7.822
 1692WAT     H1 5318   3.544   3.612   7.873
 1692WAT     H2 5319   3.527   3.679   7.725
 1693WAT      O 5320   6.432   9.653   1.252
 1693WAT     H1 5321   6.432   9.621   1.347
 1693WAT     H2 5322   6.340   9.681   1.227
 1694WAT      O 5323   7.034   5.905   4.355
 1694WAT     H1 5324   7.005   5.810   4.353
 1694WAT     H2 5325   6.954   5.965   4.357
 1695WAT      O 5326   8.237   9.413   8.519
 1695WAT     H1 5327   8.313   9.408   8.584
 1695WAT     H2 5328   8.261   9.367   8.434
 1696WAT      O 5329   0.199   8.519   4.616
 1696WAT     H1 5330   0.287   8.478   4.644
 1696WAT     H2 5331   0.129   8.448   4.613
 1697WAT      O 5332   5.746   2.515   9.226
 1697WAT     H1 5333   5.759   2.509   9.325
 1697WAT     H2 5334   5.698   2.434   9.193
 1698WAT      O 5335   1.860   2.445   4.801
 1698WAT     H1 5336   1.818   2.461   4.890
 1698WAT     H2 5337   1.911   2.360   4.803
 1699WAT      O 5338   4.980   9.466   0.962
 1699WAT     H1 5339   4.938   9.507   0.881
 1699WAT     H2 5340   4.958   9.521   1.042
 1700WAT      O 5341   9.754   7.115   5.081
 1700WAT     H1 5342   9.818   7.184   5.116
 1700WAT     H2 5343   9.800   7.027   5.075
 1701WAT      O 5344   2.348   6.297   7.097
 1701WAT     H1 5345   2.342   6.237   7.017
 1701WAT     H2 5346   2.290   6.260   7.170
 1702WAT      O 5347   5.903   0.169   9.777
 1702WAT     H1 5348   5.845   0.099   9.736
 1702WAT     H2 5349   5.964   0.207   9.707
 1703WAT      O 5350   3.019   8.815   0.264
 1703WAT     H1 5351   3.050   8.875   0.338
 1703WAT     H2 5352   2.970   8.869   0.196
 1704WAT      O 5353   0.072   1.618   9.454
 1704WAT     H1 5354   0.098   1.710   9.480
 1704WAT     H2 5355  -0.026   1.605   9.472
 1705WAT      O 5356   7.741   9.201   4.507
 1705WAT     H1 5357   7.705   9.109   4.488
 1705WAT     H2 5358   7.826   9.214   4.457
 1706WAT      O 5359   9.102   0.135   0.102
 1706WAT     H1 5360   9.081   0.201   0.031
 1706WAT     H2 5361   9.017   0.102   0.143
 1707WAT      O 5362   6.143   7.296   3.646
 1707WAT     H1 5363   6.116   7.267   3.738
 1707WAT     H2 5364   6.213   7.367   3.652
 1708WAT      O 5365   6.691   1.451   4.060
 1708WAT     H1 5366   6.624   1.469   3.987
 1708WAT     H2 5367   6.739   1.366   4.040
 1709WAT      O 5368   3.424   9.429   3.822
 1709WAT     H1 5369   3.508   9.396   3.866
 1709WAT     H2 5370   3.408   9.524   3.849
 1710WAT      O 5371   5.089   4.408   1.617
 1710WAT     H1 5372   5.083   4.309   1.623
 1710WAT     H2 5373   5.009   4.449   1.660
 1711WAT      O 5374   4.266   7.727   2.338
 1711WAT     H1 5375   4.364   7.732   2.359
 1711WAT     H2 5376   4.223   7.658   2.395
 1712WAT      O 5377   1.994   5.640   6.669
 1712WAT     H1 5378   2.003   5.667   6.573
 1712WAT     H2 5379   1.958   5.547   6.675
 1713WAT      O 5380   0.080   7.766   6.290
 1713WAT     H1 5381   0.099   7.846   6.233
 1713WAT     H2 5382   0.051   7.796   6.381
 1714WAT      O 5383   3.108   4.648   5.582
 1714WAT     H1 5384   3.203   4.662   5.552
 1714WAT     H2 5385   3.090   4.703   5.663
 1715WAT      O 5386   8.016   9.375   3.403
 1715WAT     H1 5387   8.098   9.317   3.404
 1715WAT     H2 5388   7.954   9.347   3.475
 1716WAT      O 5389   2.440   8.211   1.179
 1716WAT     H1 5390   2.340   8.209   1.188
 1716WAT     H2 5391   2.474   8.300   1.208
 1717WAT      O 5392   5.797   9.167   3.142
 1717WAT     H1 5393   5.706   9.140   3.111
 1717WAT     H2 5394   5.839   9.090   3.191
 1718WAT      O 5395   7.143   2.402   6.448
 1718WAT     H1 5396   7.168   2.496   6.424
 1718WAT     H2 5397   7.084   2.364   6.377
 1719WAT      O 5398   0.643   6.184   9.387
 1719WAT     H1 5399   0.683   6.275   9.391
 1719WAT     H2 5400   0.680   6.135   9.308
 1720WAT      O 5401   5.879   2.883   4.534
 1720WAT     H1 5402   5.940   2.902   4.458
 1720WAT     H2 5403   5.932   2.852   4.613
 1721WAT      O 5404   0.291   6.667   0.731
 1721WAT     H1 5405   0.298   6.727   0.652
 1721WAT     H2 5406   0.335   6.579   0.711
 1722WAT      O 5407   0.893   3.207   1.809
 1722WAT     H1 5408   0.842   3.137   1.758
 1722WAT     H2 5409   0.844   3.294   1.804
 1723WAT      O 5410   7.704   0.513   5.366
 1723WAT     H1 5411   7.782   0.457   5.337
 1723WAT     H2 5412   7.634   0.455   5.407
 1724WAT      O 5413   2.045   6.591   6.334
 1724WAT     H1 5414   2.004   6.502   6.351
 1724WAT     H2 5415   1.974   6.661   6.338
 1725WAT      O 5416   1.941   0.946   3.172
 1725WAT     H1 5417   1.851   0.904   3.180
 1725WAT     H2 5418   2.008   0.876   3.148
 1726WAT      O 5419   2.795   5.673   0.342
 1726WAT     H1 5420   2.780   5.642   0.248
 1726WAT     H2 5421   2.793   5.773   0.345
 1727WAT      O 5422   9.800   3.879   1.859
 1727WAT     H1 5423   9.811   3.832   1.772
 1727WAT     H2 5424   9.831   3.820   1.934
 1728WAT      O 5425   3.929   1.548   2.479
 1728WAT     H1 5426   4.022   1.560   2.513
 1728WAT     H2 5427   3.931   1.515   2.385
 1729WAT      O 5428   1.624   3.901   4.111
 1729WAT     H1 5429   1.671   3.814   4.096
 1729WAT     H2 5430   1.658   3.944   4.194
 1730WAT      O 5431   5.199   2.839   7.063
 1730WAT     H1 5432   5.139   2.780   7.009
 1730WAT     H2 5433   5.145   2.912   7.106
 1731WAT      O 5434   3.641   3.471   6.599
 1731WAT     H1 5435   3.647   3.529   6.518
 1731WAT     H2 5436   3.583   3.392   6.579
 1732WAT      O 5437   0.878   8.163   3.630
 1732WAT     H1 5438   0.783   8.185   3.653
 1732WAT     H2 5439   0.939   8.227   3.678
 1733WAT      O 5440   2.199   0.023   6.018
 1733WAT     H1 5441   2.177  -0.044   6.089
 1733WAT     H2 5442   2.295   0.050   6.026
 1734WAT      O 5443   4.625   5.685   8.750
 1734WAT     H1 5444   4.715   5.675   8.793
 1734WAT     H2 5445   4.615   5.777   8.714
 1735WAT      O 5446   3.853   3.176   0.969
 1735WAT     H1 5447   3.754   3.187   0.967
 1735WAT     H2 5448   3.880   3.102   0.907
 1736WAT      O 5449   8.070   3.959   7.270
 1736WAT     H1 5450   8.003   4.004   7.329
 1736WAT     H2 5451   8.112   3.882   7.320
 1737WAT      O 5452   0.930   2.266   7.661
 1737WAT     H1 5453   0.997   2.227   7.598
 1737WAT     H2 5454   0.973   2.338   7.715
 1738WAT      O 5455   9.589   0.952   7.143
 1738WAT     H1 5456   9.648   0.956   7.062
 1738WAT     H2 5457   9.611   1.029   7.203
 1739WAT      O 5458   2.187   9.029   5.145
 1739WAT     H1 5459   2.188   8.930   5.141
 1739WAT     H2 5460   2.092   9.061   5.137
 1740WAT      O 5461   1.468   6.245   9.660
 1740WAT     H1 5462   1.534   6.170   9.651
 1740WAT     H2 5463   1.423   6.260   9.571
 1741WAT      O 5464   8.697   6.260   2.084
 1741WAT     H1 5465   8.790   6.231   2.106
 1741WAT     H2 5466   8.665   6.326   2.152
 1742WAT      O 5467   6.420   7.273   2.543
 1742WAT     H1 5468   6.371   7.331   2.477
 1742WAT     H2 5469   6.402   7.177   2.523
 1743WAT      O 5470   2.833   1.404   6.793
 1743WAT     H1 5471   2.839   1.380   6.696
 1743WAT     H2 5472   2.908   1.361   6.843
 1744WAT      O 5473   7.217   5.297   1.888
 1744WAT     H1 5474   7.127   5.315   1.850
 1744WAT     H2 5475   7.283   5.362   1.849
 1745WAT      O 5476   7.825   1.576   0.092
 1745WAT     H1 5477   7.866   1.622   0.013
 1745WAT     H2 5478   7.742   1.625   0.120
 1746WAT      O 5479   5.509   6.721   1.436
 1746WAT     H1 5480   5.472   6.660   1.506
 1746WAT     H2 5481   5.454   6.714   1.353
 1747WAT      O 5482   5.765   8.513   6.536
 1747WAT     H1 5483   5.770   8.414   6.521
 1747WAT     H2 5484   5.779   8.532   6.633
 1748WAT      O 5485   8.587   3.962   1.694
 1748WAT     H1 5486   8.582   4.031   1.622
 1748WAT     H2 5487   8.527   3.885   1.672
 1749WAT      O 5488   9.599   0.826   9.169
 1749WAT     H1 5489   9.595   0.734   9.207
 1749WAT     H2 5490   9.515   0.875   9.191
 1750WAT      O 5491   8.626   4.858   7.326
 1750WAT     H1 5492   8.713   4.907   7.325
 1750WAT     H2 5493   8.641   4.762   7.303
 1751WAT      O 5494   4.972   3.818   8.616
 1751WAT     H1 5495   4.983   3.727   8.657
 1751WAT     H2 5496   5.034   3.827   8.539
 1752WAT      O 5497   0.415   6.297   0.046
 1752WAT     H1 5498   0.435   6.315  -0.051
 1752WAT     H2 5499   0.487   6.337   0.103
 1753WAT      O 5500   1.920   5.305   6.190
 1753WAT     H1 5501   1.953   5.214   6.164
 1753WAT     H2 5502   1.982   5.345   6.258
 1754WAT      O 5503   5.743   4.695   1.982
 1754WAT     H1 5504   5.741   4.729   1.888
 1754WAT     H2 5505   5.794   4.760   2.039
 1755WAT      O 5506   4.071   5.591   3.978
 1755WAT     H1 5507   4.091   5.543   3.893
 1755WAT     H2 5508   3.974   5.617   3.979
 1756WAT      O 5509   0.786   3.368   3.368
 1756WAT     H1 5510   0.752   3.324   3.452
 1756WAT     H2 5511   0.869   3.419   3.389
 1757WAT      O 5512   7.055   2.193   3.391
 1757WAT     H1 5513   7.067   2.193   3.292
 1757WAT     H2 5514   7.141   2.218   3.435
 1758WAT      O 5515   2.679   1.918   1.586
 1758WAT     H1 5516   2.590   1.942   1.547
 1758WAT     H2 5517   2.667   1.889   1.681
 1759WAT      O 5518   8.134   0.304   3.007
 1759WAT     H1 5519   8.177   0.274   2.922
 1759WAT     H2 5520   8.073   0.381   2.988
 1760WAT      O 5521   2.701   0.190   3.072
 1760WAT     H1 5522   2.652   0.257   3.128
 1760WAT     H2 5523   2.658   0.101   3.081
 1761WAT      O 5524   9.098   7.061   5.106
 1761WAT     H1 5525   9.067   7.147   5.148
 1761WAT     H2 5526   9.019   7.012   5.070
 1762WAT      O 5527   8.055   2.111   7.120
 1762WAT     H1 5528   8.037   2.142   7.213
 1762WAT     H2 5529   7.969   2.091   7.074
 1763WAT      O 5530   2.490   8.022   6.976
 1763WAT     H1 5531   2.484   7.960   7.054
 1763WAT     H2 5532   2.566   8.085   6.990
 1764WAT      O 5533   3.958   4.236   3.884
 1764WAT     H1 5534   4.048   4.277   3.900
 1764WAT     H2 5535   3.923   4.266   3.795
 1765WAT      O 5536   9.722   1.447   0.455
 1765WAT     H1 5537   9.804   1.419   0.403
 1765WAT     H2 5538   9.708   1.383   0.531
 1766WAT      O 5539   8.387   9.723   6.350
 1766WAT     H1 5540   8.362   9.650   6.286
 1766WAT     H2 5541   8.465   9.693   6.405
 1767WAT      O 5542   6.486   9.838   1.970
 1767WAT     H1 5543   6.536   9.760   1.933
 1767WAT     H2 5544   6.405   9.855   1.915
 1768WAT      O 5545   3.716   5.608   2.708
 1768WAT     H1 5546   3.680   5.581   2.619
 1768WAT     H2 5547   3.644   5.597   2.777
 1769WAT      O 5548   3.837   2.231   3.675
 1769WAT     H1 5549   3.756   2.215   3.730
 1769WAT     H2 5550   3.831   2.178   3.590
 1770WAT      O 5551   1.452   3.837   1.155
 1770WAT     H1 5552   1.427   3.933   1.172
 1770WAT     H2 5553   1.538   3.817   1.202
 1771WAT      O 5554   5.108   3.747   8.337
 1771WAT     H1 5555   5.102   3.839   8.299
 1771WAT     H2 5556   5.167   3.691   8.279
 1772WAT      O 5557   9.270   6.690   2.680
 1772WAT     H1 5558   9.313   6.602   2.660
 1772WAT     H2 5559   9.338   6.762   2.679
 1773WAT      O 5560   5.153   2.859   3.591
 1773WAT     H1 5561   5.136   2.792   3.663
 1773WAT     H2 5562   5.231   2.830   3.536
 1774WAT      O 5563   7.037   5.744   3.158
 1774WAT     H1 5564   7.092   5.734   3.241
 1774WAT     H2 5565   7.086   5.799   3.091
 1775WAT      O 5566   7.152   1.278   1.356
 1775WAT     H1 5567   7.056   1.260   1.377
 1775WAT     H2 5568   7.187   1.349   1.417
 1776WAT      O 5569   5.628   9.094   3.413
 1776WAT     H1 5570   5.548   9.075   3.355
 1776WAT     H2 5571   5.697   9.024   3.399
 1777WAT      O 5572   1.854   4.507   4.562
 1777WAT     H1 5573   1.822   4.432   4.504
 1777WAT     H2 5574   1.882   4.584   4.505
 1778WAT      O 5575   0.370   9.749   6.851
 1778WAT     H1 5576   0.282   9.765   6.897
 1778WAT     H2 5577   0.356   9.684   6.776
 1779WAT      O 5578   8.170   0.678   9.320
 1779WAT     H1 5579   8.162   0.659   9.222
 1779WAT     H2 5580   8.266   0.683   9.345
 1780WAT      O 5581   9.078   5.441   7.974
 1780WAT     H1 5582   9.019   5.502   7.922
 1780WAT     H2 5583   9.051   5.346   7.957
 1781WAT      O 5584   7.011   0.683   0.568
 1781WAT     H1 5585   6.950   0.604   0.556
 1781WAT     H2 5586   7.106   0.653   0.557
 1782WAT      O 5587   3.205   6.582   3.433
 1782WAT     H1 5588   3.263   6.616   3.359
 1782WAT     H2 5589   3.261   6.555   3.510
 1783WAT      O 5590   5.586   9.038   2.964
 1783WAT     H1 5591   5.552   8.952   2.927
 1783WAT     H2 5592   5.580   9.109   2.894
 1784WAT      O 5593   6.330   4.580   7.690
 1784WAT     H1 5594   6.337   4.558   7.593
 1784WAT     H2 5595   6.360   4.501   7.744
 1785WAT      O 5596   3.719   5.609   8.195
 1785WAT     H1 5597   3.624   5.584   8.212
 1785WAT     H2 5598   3.729   5.643   8.101
 1786WAT      O 5599   8.220   6.631   6.302
 1786WAT     H1 5600   8.311   6.663   6.326
 1786WAT     H2 5601   8.194   6.667   6.212
 1787WAT      O 5602   3.233   1.016   3.726
 1787WAT     H1 5603   3.321   0.972   3.748
 1787WAT     H2 5604   3.247   1.114   3.719
 1788WAT      O 5605   0.218   8.197   4.081
 1788WAT     H1 5606   0.183   8.123   4.138
 1788WAT     H2 5607   0.194   8.285   4.123
 1789WAT      O 5608   4.562   1.911   2.091
 1789WAT     H1 5609   4.501   1.832   2.081
 1789WAT     H2 5610   4.534   1.983   2.027
 1790WAT      O 5611   3.384   6.563   9.118
 1790WAT     H1 5612   3.397   6.600   9.210
 1790WAT     H2 5613   3.436   6.618   9.053
 1791WAT      O 5614   9.633   9.143   3.959
 1791WAT     H1 5615   9.558   9.152   3.893
 1791WAT     H2 5616   9.614   9.201   4.039
 1792WAT      O 5617   5.449   5.703   5.728
 1792WAT     H1 5618   5.543   5.732   5.748
 1792WAT     H2 5619   5.441   5.682   5.631
 1793WAT      O 5620   7.771   5.099   7.915
 1793WAT     H1 5621   7.712   5.050   7.979
 1793WAT     H2 5622   7.865   5.066   7.925
 1794WAT      O 5623   8.316   8.405   6.643
 1794WAT     H1 5624   8.305   8.424   6.546
 1794WAT     H2 5625   8.227   8.411   6.688
 1795WAT      O 5626   5.044   4.078   1.454
 1795WAT     H1 5627   4.950   4.102   1.479
 1795WAT     H2 5628   5.048   3.981   1.431
 1796WAT      O 5629   0.220   0.906   6.763
 1796WAT     H1 5630   0.319   0.913   6.773
 1796WAT     H2 5631   0.195   0.923   6.667
 1797WAT      O 5632   1.851   0.630   3.839
 1797WAT     H1 5633   1.945   0.605   3.862
 1797WAT     H2 5634   1.802   0.659   3.921
 1798WAT      O 5635   0.575   8.184   7.551
 1798WAT     H1 5636   0.654   8.166   7.609
 1798WAT     H2 5637   0.559   8.283   7.547
 1799WAT      O 5638   5.819   4.520   8.296
 1799WAT     H1 5639   5.749   4.450   8.305
 1799WAT     H2 5640   5.910   4.477   8.300
 1800WAT      O 5641   8.405   3.072   8.605
 1800WAT     H1 5642   8.413   3.056   8.507
 1800WAT     H2 5643   8.380   3.167   8.622
 1801WAT      O 5644   7.917   5.122   3.530
 1801WAT     H1 5645   7.825   5.104   3.565
 1801WAT     H2 5646   7.977   5.147   3.605
 1802WAT      O 5647   4.325   4.720   4.200
 1802WAT     H1 5648   4.383   4.750   4.276
 1802WAT     H2 5649   4.280   4.635   4.225
 1803WAT      O 5650   5.887   9.720   8.249
 1803WAT     H1 5651   5.870   9.762   8.338
 1803WAT     H2 5652   5.900   9.792   8.180
 1804WAT      O 5653   6.160   8.807   8.015
 1804WAT     H1 5654   6.220   8.849   7.948
 1804WAT     H2 5655   6.213   8.779   8.095
 1805WAT      O 5656   9.481   7.838   7.499
 1805WAT     H1 5657   9.523   7.921   7.465
 1805WAT     H2 5658   9.522   7.759   7.454
 1806WAT      O 5659   4.923   1.478   6.225
 1806WAT     H1 5660   4.898   1.549   6.159
 1806WAT     H2 5661   4.897   1.507   6.317
 1807WAT      O 5662   6.592   6.503   5.254
 1807WAT     H1 5663   6.690   6.515   5.237
 1807WAT     H2 5664   6.559   6.423   5.205
 1808WAT      O 5665   8.648   6.199   3.556
 1808WAT     H1 5666   8.692   6.246   3.480
 1808WAT     H2 5667   8.718   6.161   3.617
 1809WAT      O 5668   6.906   2.365   3.724
 1809WAT     H1 5669   6.860   2.445   3.685
 1809WAT     H2 5670   6.909   2.292   3.656
 1810WAT      O 5671   7.266   8.145   7.869
 1810WAT     H1 5672   7.301   8.092   7.792
 1810WAT     H2 5673   7.308   8.236   7.870
 1811WAT      O 5674   7.970   3.369   5.116
 1811WAT     H1 5675   7.885   3.317   5.107
 1811WAT     H2 5676   7.956   3.461   5.078
 1812WAT      O 5677   6.829   8.683   8.777
 1812WAT     H1 5678   6.836   8.682   8.877
 1812WAT     H2 5679   6.913   8.724   8.739
 1813WAT      O 5680   6.977   3.393   7.359
 1813WAT     H1 5681   7.014   3.305   7.331
 1813WAT     H2 5682   6.944   3.387   7.453
 1814WAT      O 5683   1.308   0.782   9.067
 1814WAT     H1 5684   1.253   0.858   9.033
 1814WAT     H2 5685   1.249   0.703   9.085
 1815WAT      O 5686   7.222   6.265   4.056
 1815WAT     H1 5687   7.166   6.194   4.013
 1815WAT     H2 5688   7.318   6.237   4.053
 1816WAT      O 5689   7.293   2.356   0.144
 1816WAT     H1 5690   7.283   2.258   0.162
 1816WAT     H2 5691   7.239   2.380   0.064
 1817WAT      O 5692   9.338   4.641   7.947
 1817WAT     H1 5693   9.241   4.646   7.925
 1817WAT     H2 5694   9.350   4.648   8.046
 1818WAT      O 5695   7.945   3.985   1.759
 1818WAT     H1 5696   7.910   4.033   1.840
 1818WAT     H2 5697   7.875   3.984   1.688
 1819WAT      O 5698   0.088   8.277   5.274
 1819WAT     H1 5699   0.166   8.307   5.329
 1819WAT     H2 5700   0.078   8.337   5.195
 1820WAT      O 5701   7.069   1.493   8.340
 1820WAT     H1 5702   7.040   1.481   8.245
 1820WAT     H2 5703   7.027   1.575   8.377
 1821WAT      O 5704   8.168   3.717   3.271
 1821WAT     H1 5705   8.163   3.618   3.253
 1821WAT     H2 5706   8.264   3.743   3.282
 1822WAT      O 5707   4.437   6.583   0.608
 1822WAT     H1 5708   4.462   6.494   0.568
 1822WAT     H2 5709   4.455   6.655   0.541
 1823WAT      O 5710   3.618   3.709   5.229
 1823WAT     H1 5711   3.615   3.808   5.241
 1823WAT     H2 5712   3.712   3.680   5.212
 1824WAT      O 5713   6.348   2.696   7.125
 1824WAT     H1 5714   6.396   2.663   7.207
 1824WAT     H2 5715   6.250   2.676   7.134
 1825WAT      O 5716   4.620   4.760   5.304
 1825WAT     H1 5717   4.586   4.847   5.340
 1825WAT     H2 5718   4.718   4.768   5.283
 1826WAT      O 5719   5.737   2.875   1.782
 1826WAT     H1 5720   5.667   2.851   1.715
 1826WAT     H2 5721   5.740   2.806   1.854
 1827WAT      O 5722   6.548   0.811   9.082
 1827WAT     H1 5723   6.622   0.745   9.080
 1827WAT     H2 5724   6.465   0.770   9.043
 1828WAT      O 5725   0.936   0.528   4.032
 1828WAT     H1 5726   0.968   0.572   3.948
 1828WAT     H2 5727   0.977   0.574   4.111
 1829WAT      O 5728   2.811   8.876   6.005
 1829WAT     H1 5729   2.763   8.963   5.996
 1829WAT     H2 5730   2.762   8.817   6.069
 1830WAT      O 5731   8.096   1.876   7.831
 1830WAT     H1 5732   8.068   1.891   7.736
 1830WAT     H2 5733   8.085   1.960   7.883
 1831WAT      O 5734   2.801   5.017   5.633
 1831WAT     H1 5735   2.838   5.028   5.541
 1831WAT     H2 5736   2.782   5.107   5.672
 1832WAT      O 5737   2.739   9.176   1.969
 1832WAT     H1 5738   2.651   9.135   1.996
 1832WAT     H2 5739   2.738   9.195   1.871
 1833WAT      O 5740   3.812   1.632   3.095
 1833WAT     H1 5741   3.883   1.616   3.027
 1833WAT     H2 5742   3.833   1.715   3.147
 1834WAT      O 5743   3.295   9.628   9.422
 1834WAT     H1 5744   3.378   9.612   9.476
 1834WAT     H2 5745   3.320   9.670   9.335
 1835WAT      O 5746   4.038   3.893   3.678
 1835WAT     H1 5747   4.089   3.835   3.742
 1835WAT     H2 5748   4.093   3.972   3.653
 1836WAT      O 5749   9.276   3.135   6.773
 1836WAT     H1 5750   9.262   3.054   6.715
 1836WAT     H2 5751   9.199   3.144   6.836
 1837WAT      O 5752   1.651   2.640   5.989
 1837WAT     H1 5753   1.555   2.625   6.013
 1837WAT     H2 5754   1.657   2.687   5.901
 1838WAT      O 5755   3.952   1.633   5.433
 1838WAT     H1 5756   4.014   1.676   5.368
 1838WAT     H2 5757   3.858   1.645   5.403
 1839WAT      O 5758   6.833   3.194   0.888
 1839WAT     H1 5759   6.762   3.261   0.870
 1839WAT     H2 5760   6.922   3.231   0.859
 1840WAT      O 5761   6.103   6.136   2.493
 1840WAT     H1 5762   6.137   6.105   2.404
 1840WAT     H2 5763   6.113   6.236   2.500
 1841WAT      O 5764   0.310   6.945   0.594
 1841WAT     H1 5765   0.298   6.861   0.541
 1841WAT     H2 5766   0.357   7.013   0.538
 1842WAT      O 5767   2.045   3.904   2.033
 1842WAT     H1 5768   2.123   3.842   2.037
 1842WAT     H2 5769   2.077   3.999   2.028
 1843WAT      O 5770   6.801   1.854   6.755
 1843WAT     H1 5771   6.758   1.813   6.834
 1843WAT     H2 5772   6.885   1.805   6.732
 1844WAT      O 5773   5.809   8.805   7.929
 1844WAT     H1 5774   5.781   8.758   7.845
 1844WAT     H2 5775   5.857   8.890   7.905
 1845WAT      O 5776   4.578   1.334   3.824
 1845WAT     H1 5777   4.562   1.296   3.733
 1845WAT     H2 5778   4.500   1.389   3.852
 1846WAT      O 5779   3.330   4.524   6.132
 1846WAT     H1 5780   3.391   4.456   6.172
 1846WAT     H2 5781   3.321   4.508   6.034
 1847WAT      O 5782   7.697   0.699   1.685
 1847WAT     H1 5783   7.690   0.622   1.622
 1847WAT     H2 5784   7.743   0.775   1.640
 1848WAT      O 5785   9.160   1.583   7.834
 1848WAT     H1 5786   9.131   1.577   7.739
 1848WAT     H2 5787   9.203   1.496   7.861
 1849WAT      O 5788   6.254   3.049   8.073
 1849WAT     H1 5789   6.231   3.134   8.025
 1849WAT     H2 5790   6.248   2.973   8.009
 1850WAT      O 5791   9.512   8.151   0.986
 1850WAT     H1 5792   9.425   8.140   1.034
 1850WAT     H2 5793   9.504   8.224   0.919
 1851WAT      O 5794   8.969   7.018   7.737
 1851WAT     H1 5795   8.962   6.947   7.668
 1851WAT     H2 5796   9.066   7.035   7.758
 1852WAT      O 5797   1.311   0.800   9.488
 1852WAT     H1 5798   1.321   0.702   9.510
 1852WAT     H2 5799   1.285   0.850   9.571
 1853WAT      O 5800   8.848   2.739   9.301
 1853WAT     H1 5801   8.902   2.702   9.377
 1853WAT     H2 5802   8.815   2.831   9.325
 1854WAT      O 5803   1.099   7.228   1.468
 1854WAT     H1 5804   1.010   7.201   1.504
 1854WAT     H2 5805   1.164   7.237   1.544
 1855WAT      O 5806   3.810   6.166   0.601
 1855WAT     H1 5807   3.896   6.214   0.618
 1855WAT     H2 5808   3.827   6.068   0.593
 1856WAT      O 5809   9.309   5.103   2.165
 1856WAT     H1 5810   9.348   5.076   2.077
 1856WAT     H2 5811   9.213   5.130   2.151
 1857WAT      O 5812   0.923   5.627   2.574
 1857WAT     H1 5813   0.885   5.698   2.633
 1857WAT     H2 5814   0.984   5.669   2.507
 1858WAT      O 5815   5.105   0.805   8.290
 1858WAT     H1 5816   5.111   0.717   8.338
 1858WAT     H2 5817   5.094   0.878   8.357
 1859WAT      O 5818   7.776   9.591   0.916
 1859WAT     H1 5819   7.779   9.641   1.002
 1859WAT     H2 5820   7.796   9.652   0.840
 1860WAT      O 5821   3.344   8.368   7.007
 1860WAT     H1 5822   3.419   8.410   6.956
 1860WAT     H2 5823   3.286   8.439   7.045
 1861WAT      O 5824   6.416   3.579   6.337
 1861WAT     H1 5825   6.453   3.560   6.428
 1861WAT     H2 5826   6.343   3.647   6.344
 1862WAT      O 5827   0.446   5.078   4.245
 1862WAT     H1 5828   0.531   5.131   4.242
 1862WAT     H2 5829   0.465   4.987   4.281
 1863WAT      O 5830   5.611   5.241   6.896
 1863WAT     H1 5831   5.680   5.179   6.858
 1863WAT     H2 5832   5.655   5.326   6.923
 1864WAT      O 5833   7.040   0.934   0.155
 1864WAT     H1 5834   7.106   0.992   0.201
 1864WAT     H2 5835   7.014   0.859   0.215
 1865WAT      O 5836   2.287   7.825   9.004
 1865WAT     H1 5837   2.341   7.877   9.070
 1865WAT     H2 5838   2.349   7.777   8.941
 1866WAT      O 5839   2.341   5.259   0.966
 1866WAT     H1 5840   2.421   5.199   0.963
 1866WAT     H2 5841   2.278   5.227   1.037
 1867WAT      O 5842   9.680   7.209   7.601
 1867WAT     H1 5843   9.751   7.243   7.539
 1867WAT     H2 5844   9.613   7.156   7.549
 1868WAT      O 5845   1.451   5.585   1.954
 1868WAT     H1 5846   1.425   5.489   1.945
 1868WAT     H2 5847   1.395   5.628   2.025
 1869WAT      O 5848   8.047   5.950   4.197
 1869WAT     H1 5849   8.065   5.863   4.243
 1869WAT     H2 5850   7.998   6.011   4.259
 1870WAT      O 5851   2.370   9.371   0.333
 1870WAT     H1 5852   2.294   9.309   0.314
 1870WAT     H2 5853   2.366   9.449   0.270
 1871WAT      O 5854   2.603   3.768   5.319
 1871WAT     H1 5855   2.573   3.821   5.239
 1871WAT     H2 5856   2.548   3.685   5.327
 1872WAT      O 5857   3.061   7.575   9.387
 1872WAT     H1 5858   2.998   7.537   9.454
 1872WAT     H2 5859   3.127   7.635   9.433
 1873WAT      O 5860   2.162   2.374   5.504
 1873WAT     H1 5861   2.153   2.387   5.405
 1873WAT     H2 5862   2.240   2.315   5.522
 1874WAT      O 5863   6.665   1.399   6.471
 1874WAT     H1 5864   6.644   1.373   6.565
 1874WAT     H2 5865   6.620   1.335   6.408
 1875WAT      O 5866   9.247   4.694   1.190
 1875WAT     H1 5867   9.159   4.710   1.146
 1875WAT     H2 5868   9.303   4.635   1.133
 1876WAT      O 5869   4.614   3.486   2.183
 1876WAT     H1 5870   4.635   3.578   2.215
 1876WAT     H2 5871   4.670   3.420   2.232
 1877WAT      O 5872   4.644   0.449   8.741
 1877WAT     H1 5873   4.607   0.399   8.663
 1877WAT     H2 5874   4.671   0.384   8.812
 1878WAT      O 5875   2.064   1.813   0.842
 1878WAT     H1 5876   2.074   1.899   0.792
 1878WAT     H2 5877   2.055   1.833   0.940
 1879WAT      O 5878   6.167   7.444   0.187
 1879WAT     H1 5879   6.214   7.522   0.229
 1879WAT     H2 5880   6.139   7.380   0.259
 1880WAT      O 5881   0.019   5.392   1.870
 1880WAT     H1 5882  -0.070   5.355   1.897
 1880WAT     H2 5883   0.027   5.389   1.771
 1881WAT      O 5884   3.319   3.008   8.911
 1881WAT     H1 5885   3.252   2.958   8.856
 1881WAT     H2 5886   3.283   3.099   8.934
 1882WAT      O 5887   9.643   5.362   6.906
 1882WAT     H1 5888   9.655   5.357   7.005
 1882WAT     H2 5889   9.576   5.293   6.877
 1883WAT      O 5890   1.758   8.435   2.307
 1883WAT     H1 5891   1.690   8.379   2.356
 1883WAT     H2 5892   1.813   8.376   2.248
 1884WAT      O 5893   7.676   8.859   1.694
 1884WAT     H1 5894   7.714   8.951   1.693
 1884WAT     H2 5895   7.672   8.824   1.600
 1885WAT      O 5896   2.730   0.786   7.766
 1885WAT     H1 5897   2.784   0.782   7.851
 1885WAT     H2 5898   2.675   0.703   7.758
 1886WAT      O 5899   1.897   0.396   5.426
 1886WAT     H1 5900   1.931   0.330   5.494
 1886WAT     H2 5901   1.809   0.365   5.391
 1887WAT      O 5902   5.160   2.415   3.268
 1887WAT     H1 5903   5.236   2.381   3.323
 1887WAT     H2 5904   5.192   2.437   3.176
 1888WAT      O 5905   1.470   9.497   7.892
 1888WAT     H1 5906   1.493   9.402   7.913
 1888WAT     H2 5907   1.483   9.515   7.795
 1889WAT      O 5908   2.612   9.020   6.953
 1889WAT     H1 5909   2.592   8.971   6.869
 1889WAT     H2 5910   2.557   8.983   7.028
 1890WAT      O 5911   1.569   5.071   7.084
 1890WAT     H1 5912   1.497   5.102   7.022
 1890WAT     H2 5913   1.640   5.140   7.090
 1891WAT      O 5914   1.800   5.771   8.887
 1891WAT     H1 5915   1.882   5.795   8.939
 1891WAT     H2 5916   1.826   5.727   8.801
 1892WAT      O 5917   0.812   1.064   0.072
 1892WAT     H1 5918   0.796   1.087  -0.024
 1892WAT     H2 5919   0.796   0.966   0.086
 1893WAT      O 5920   2.440   2.451   5.293
 1893WAT     H1 5921   2.490   2.442   5.207
 1893WAT     H2 5922   2.344   2.471   5.273
 1894WAT      O 5923   7.177   0.843   6.204
 1894WAT     H1 5924   7.235   0.795   6.138
 1894WAT     H2 5925   7.094   0.789   6.219
 1895WAT      O 5926   5.642   2.388   7.311
 1895WAT     H1 5927   5.665   2.300   7.353
 1895WAT     H2 5928   5.650   2.460   7.380
 1896WAT      O 5929   2.116   9.651   6.187
 1896WAT     H1 5930   2.053   9.623   6.115
 1896WAT     H2 5931   2.105   9.592   6.266
 1897WAT      O 5932   8.069   2.225   3.344
 1897WAT     H1 5933   8.119   2.138   3.350
 1897WAT     H2 5934   8.130   2.296   3.310
 1898WAT      O 5935   1.383   5.251   0.410
 1898WAT     H1 5936   1.390   5.185   0.485
 1898WAT     H2 5937   1.416   5.209   0.326
 1899WAT      O 5938   7.243   8.464   9.883
 1899WAT     H1 5939   7.327   8.438   9.836
 1899WAT     H2 5940   7.235   8.413   9.969
 1900WAT      O 5941   5.693   0.465   5.035
 1900WAT     H1 5942   5.602   0.504   5.024
 1900WAT     H2 5943   5.691   0.393   5.104
 1901WAT      O 5944   4.579   6.257   1.101
 1901WAT     H1 5945   4.620   6.268   1.011
 1901WAT     H2 5946   4.648   6.272   1.172
 1902WAT      O 5947   4.977   6.568   7.317
 1902WAT     H1 5948   4.910   6.572   7.243
 1902WAT     H2 5949   4.930   6.581   7.405
 1903WAT      O 5950   5.679   2.150   7.500
 1903WAT     H1 5951   5.585   2.179   7.519
 1903WAT     H2 5952   5.678   2.079   7.429
 1904WAT      O 5953   6.431   0.711   0.314
 1904WAT     H1 5954   6.522   0.748   0.332
 1904WAT     H2 5955   6.431   0.659   0.229
 1905WAT      O 5956   0.501   6.762   4.669
 1905WAT     H1 5957   0.559   6.835   4.634
 1905WAT     H2 5958   0.422   6.802   4.716
 1906WAT      O 5959   5.814   8.370   0.161
 1906WAT     H1 5960   5.729   8.364   0.214
 1906WAT     H2 5961   5.793   8.394   0.066
 1907WAT      O 5962   1.788   8.922   4.640
 1907WAT     H1 5963   1.693   8.910   4.669
 1907WAT     H2 5964   1.848   8.922   4.720
 1908WAT      O 5965   0.345   3.351   0.157
 1908WAT     H1 5966   0.280   3.415   0.199
 1908WAT     H2 5967   0.434   3.361   0.202
 1909WAT      O 5968   6.267   9.750   4.037
 1909WAT     H1 5969   6.230   9.771   4.128
 1909WAT     H2 5970   6.239   9.821   3.973
 1910WAT      O 5971   4.467   7.948   0.077
 1910WAT     H1 5972   4.472   8.044   0.050
 1910WAT     H2 5973   4.486   7.940   0.175
 1911WAT      O 5974   0.587   1.953   3.153
 1911WAT     H1 5975   0.624   1.911   3.236
 1911WAT     H2 5976   0.503   2.003   3.176
 1912WAT      O 5977   1.925   0.312   2.024
 1912WAT     H1 5978   1.947   0.238   2.088
 1912WAT     H2 5979   1.871   0.275   1.948
 1913WAT      O 5980   5.244   1.980   4.870
 1913WAT     H1 5981   5.252   2.075   4.841
 1913WAT     H2 5982   5.150   1.962   4.897
 1914WAT      O 5983   6.600   3.609   5.862
 1914WAT     H1 5984   6.634   3.700   5.838
 1914WAT     H2 5985   6.502   3.615   5.883
 1915WAT      O 5986   2.588   8.774   0.151
 1915WAT     H1 5987   2.651   8.782   0.074
 1915WAT     H2 5988   2.605   8.688   0.199
 1916WAT      O 5989   1.817   1.609   8.677
 1916WAT     H1 5990   1.798   1.593   8.580
 1916WAT     H2 5991   1.787   1.701   8.702
 1917WAT      O 5992   3.360   8.056   9.864
 1917WAT     H1 5993   3.422   7.981   9.844
 1917WAT     H2 5994   3.302   8.032   9.942
 1918WAT      O 5995   7.776   8.066   2.264
 1918WAT     H1 5996   7.794   8.002   2.190
 1918WAT     H2 5997   7.753   8.016   2.347
 1919WAT      O 5998   2.545   6.683   7.333
 1919WAT     H1 5999   2.500   6.769   7.361
 1919WAT     H2 6000   2.492   6.606   7.367
 1920WAT      O 6001   3.553   4.099   1.265
 1920WAT     H1 6002   3.621   4.057   1.205
 1920WAT     H2 6003   3.539   4.041   1.345
 1921WAT      O 6004   1.351   1.002   1.427
 1921WAT     H1 6005   1.367   1.100   1.417
 1921WAT     H2 6006   1.273   0.975   1.371
 1922WAT      O 6007   9.032   6.011   0.775
 1922WAT     H1 6008   8.963   5.968   0.716
 1922WAT     H2 6009   9.123   5.994   0.737
 1923WAT      O 6010   2.632   1.495   5.014
 1923WAT     H1 6011   2.537   1.501   4.982
 1923WAT     H2 6012   2.683   1.574   4.980
 1924WAT      O 6013   7.826   3.628   9.741
 1924WAT     H1 6014   7.797   3.562   9.672
 1924WAT     H2 6015   7.926   3.624   9.751
 1925WAT      O 6016   7.135   5.367   1.487
 1925WAT     H1 6017   7.054   5.425   1.492
 1925WAT     H2 6018   7.113   5.283   1.438
 1926WAT      O 6019   8.091   5.912   2.593
 1926WAT     H1 6020   8.083   5.990   2.531
 1926WAT     H2 6021   8.186   5.881   2.596
 1927WAT      O 6022   1.522   5.611   3.124
 1927WAT     H1 6023   1.488   5.594   3.031
 1927WAT     H2 6024   1.621   5.599   3.126
 1928WAT      O 6025   7.838   2.622   0.665
 1928WAT     H1 6026   7.920   2.570   0.689
 1928WAT     H2 6027   7.835   2.638   0.567
 1929WAT      O 6028   0.015   2.063   4.648
 1929WAT     H1 6029   0.083   2.062   4.575
 1929WAT     H2 6030   0.060   2.055   4.737
 1930WAT      O 6031   7.744   0.556   2.870
 1930WAT     H1 6032   7.644   0.550   2.868
 1930WAT     H2 6033   7.783   0.464   2.870
 1931WAT      O 6034   3.819   7.456   1.431
 1931WAT     H1 6035   3.871   7.541   1.442
 1931WAT     H2 6036   3.874   7.389   1.382
 1932WAT      O 6037   4.882   8.415   6.373
 1932WAT     H1 6038   4.891   8.495   6.433
 1932WAT     H2 6039   4.822   8.347   6.417
 1933WAT      O 6040   9.731   3.150   0.493
 1933WAT     H1 6041   9.804   3.213   0.520
 1933WAT     H2 6042   9.767   3.084   0.428
 1934WAT      O 6043   8.778   0.278   7.411
 1934WAT     H1 6044   8.850   0.328   7.458
 1934WAT     H2 6045   8.689   0.317   7.435
 1935WAT      O 6046   2.819   3.688   2.668
 1935WAT     H1 6047   2.722   3.680   2.645
 1935WAT     H2 6048   2.871   3.618   2.619
 1936WAT      O 6049   5.424   9.525   1.055
 1936WAT     H1 6050   5.354   9.566   1.113
 1936WAT     H2 6051   5.467   9.449   1.104
 1937WAT      O 6052   9.636   7.648   7.353
 1937WAT     H1 6053   9.672   7.705   7.279
 1937WAT     H2 6054   9.598   7.564   7.315
 1938WAT      O 6055   5.644   7.871   3.819
 1938WAT     H1 6056   5.561   7.815   3.812
 1938WAT     H2 6057   5.619   7.968   3.814
 1939WAT      O 6058   0.185   3.349   2.790
 1939WAT     H1 6059   0.227   3.433   2.756
 1939WAT     H2 6060   0.126   3.311   2.719
 1940WAT      O 6061   3.995   3.236   2.510
 1940WAT     H1 6062   3.977   3.147   2.553
 1940WAT     H2 6063   4.002   3.306   2.580
 1941WAT      O 6064   2.641   4.654   3.696
 1941WAT     H1 6065   2.715   4.595   3.664
 1941WAT     H2 6066   2.606   4.709   3.620
 1942WAT      O 6067   9.554   5.337   5.213
 1942WAT     H1 6068   9.500   5.411   5.173
 1942WAT     H2 6069   9.494   5.259   5.232
 1943WAT      O 6070   3.626   9.076   1.763
 1943WAT     H1 6071   3.608   9.122   1.850
 1943WAT     H2 6072   3.663   8.985   1.781
 1944WAT      O 6073   5.844   1.465   1.232
 1944WAT     H1 6074   5.749   1.473   1.201
 1944WAT     H2 6075   5.859   1.375   1.273
 1945WAT      O 6076   2.494   4.645   1.685
 1945WAT     H1 6077   2.549   4.673   1.764
 1945WAT     H2 6078   2.397   4.648   1.709
 1946WAT      O 6079   2.795   5.681   7.913
 1946WAT     H1 6080   2.720   5.743   7.891
 1946WAT     H2 6081   2.812   5.621   7.835
 1947WAT      O 6082   5.362   4.194   6.907
 1947WAT     H1 6083   5.369   4.293   6.894
 1947WAT     H2 6084   5.346   4.175   7.004
 1948WAT      O 6085   2.433   4.648   8.706
 1948WAT     H1 6086   2.457   4.662   8.802
 1948WAT     H2 6087   2.489   4.709   8.649
 1949WAT      O 6088   4.385   2.960   1.352
 1949WAT     H1 6089   4.392   3.048   1.398
 1949WAT     H2 6090   4.309   2.908   1.391
 1950WAT      O 6091   7.038   6.974   3.777
 1950WAT     H1 6092   6.959   7.031   3.759
 1950WAT     H2 6093   7.013   6.901   3.840
 1951WAT      O 6094   2.856   4.782   1.500
 1951WAT     H1 6095   2.881   4.848   1.570
 1951WAT     H2 6096   2.760   4.795   1.474
 1952WAT      O 6097   9.613   0.410   1.635
 1952WAT     H1 6098   9.662   0.323   1.645
 1952WAT     H2 6099   9.531   0.408   1.692
 1953WAT      O 6100   3.237   2.888   0.476
 1953WAT     H1 6101   3.234   2.935   0.387
 1953WAT     H2 6102   3.144   2.871   0.507
 1954WAT      O 6103   1.416   0.473   6.920
 1954WAT     H1 6104   1.429   0.571   6.939
 1954WAT     H2 6105   1.421   0.457   6.822
 1955WAT      O 6106   1.302   9.229   6.211
 1955WAT     H1 6107   1.301   9.263   6.117
 1955WAT     H2 6108   1.355   9.144   6.216
 1956WAT      O 6109   8.387   4.086   4.893
 1956WAT     H1 6110   8.294   4.057   4.868
 1956WAT     H2 6111   8.441   4.007   4.918
 1957WAT      O 6112   3.657   4.586   7.056
 1957WAT     H1 6113   3.740   4.630   7.022
 1957WAT     H2 6114   3.676   4.490   7.076
 1958WAT      O 6115   0.353   0.038   6.521
 1958WAT     H1 6116   0.267   0.042   6.572
 1958WAT     H2 6117   0.393  -0.054   6.531
 1959WAT      O 6118   2.275   9.016   0.997
 1959WAT     H1 6119   2.280   8.932   0.942
 1959WAT     H2 6120   2.327   9.004   1.081
 1960WAT      O 6121   9.438   3.256   4.286
 1960WAT     H1 6122   9.355   3.277   4.337
 1960WAT     H2 6123   9.509   3.322   4.310
 1961WAT      O 6124   8.391   6.639   4.847
 1961WAT     H1 6125   8.484   6.672   4.857
 1961WAT     H2 6126   8.385   6.544   4.879
 1962WAT      O 6127   0.633   0.025   6.083
 1962WAT     H1 6128   0.596   0.109   6.042
 1962WAT     H2 6129   0.560  -0.022   6.132
 1963WAT      O 6130   9.383   6.716   7.134
 1963WAT     H1 6131   9.436   6.637   7.105
 1963WAT     H2 6132   9.302   6.724   7.077
 1964WAT      O 6133   1.187   2.604   6.367
 1964WAT     H1 6134   1.184   2.636   6.272
 1964WAT     H2 6135   1.279   2.570   6.387
 1965WAT      O 6136   7.721   2.608   4.588
 1965WAT     H1 6137   7.667   2.595   4.671
 1965WAT     H2 6138   7.797   2.669   4.607
 1966WAT      O 6139   4.355   4.220   4.303
 1966WAT     H1 6140   4.409   4.207   4.220
 1966WAT     H2 6141   4.277   4.157   4.302
 1967WAT      O 6142   9.068   0.018   5.822
 1967WAT     H1 6143   9.027   0.069   5.897
 1967WAT     H2 6144   9.089   0.080   5.746
 1968WAT      O 6145   5.282   8.848   1.146
 1968WAT     H1 6146   5.288   8.907   1.226
 1968WAT     H2 6147   5.187   8.847   1.113
 1969WAT      O 6148   1.614   1.211   8.869
 1969WAT     H1 6149   1.610   1.205   8.969
 1969WAT     H2 6150   1.551   1.283   8.838
 1970WAT      O 6151   7.104   8.269   5.501
 1970WAT     H1 6152   7.022   8.229   5.543
 1970WAT     H2 6153   7.083   8.301   5.409
 1971WAT      O 6154   6.326   2.124   7.891
 1971WAT     H1 6155   6.309   2.065   7.970
 1971WAT     H2 6156   6.252   2.190   7.883
 1972WAT      O 6157   2.975   4.793   7.302
 1972WAT     H1 6158   2.924   4.779   7.387
 1972WAT     H2 6159   3.056   4.735   7.301
 1973WAT      O 6160   3.955   7.972   7.119
 1973WAT     H1 6161   4.033   8.022   7.156
 1973WAT     H2 6162   3.987   7.894   7.066
 1974WAT      O 6163   2.854   3.209   4.900
 1974WAT     H1 6164   2.770   3.181   4.855
 1974WAT     H2 6165   2.890   3.133   4.955
 1975WAT      O 6166   7.010   4.967   8.469
 1975WAT     H1 6167   7.063   5.036   8.421
 1975WAT     H2 6168   6.946   4.923   8.406
 1976WAT      O 6169   1.714   5.228   3.104
 1976WAT     H1 6170   1.769   5.149   3.130
 1976WAT     H2 6171   1.690   5.222   3.007
 1977WAT      O 6172   3.391   8.499   1.405
 1977WAT     H1 6173   3.448   8.555   1.346
 1977WAT     H2 6174   3.426   8.405   1.406
 1978WAT      O 6175   5.412   1.033   2.921
 1978WAT     H1 6176   5.440   1.036   2.826
 1978WAT     H2 6177   5.445   0.948   2.963
 1979WAT      O 6178   9.568   5.442   2.585
 1979WAT     H1 6179   9.629   5.407   2.514
 1979WAT     H2 6180   9.491   5.489   2.542
 1980WAT      O 6181   3.279   3.379   7.661
 1980WAT     H1 6182   3.318   3.339   7.744
 1980WAT     H2 6183   3.184   3.351   7.651
 1981WAT      O 6184   0.638   4.162   8.788
 1981WAT     H1 6185   0.696   4.241   8.768
 1981WAT     H2 6186   0.681   4.080   8.751
 1982WAT      O 6187   6.805   6.755   8.785
 1982WAT     H1 6188   6.784   6.676   8.727
 1982WAT     H2 6189   6.898   6.745   8.822
 1983WAT      O 6190   6.206   9.801   2.549
 1983WAT     H1 6191   6.205   9.795   2.449
 1983WAT     H2 6192   6.135   9.741   2.587
 1984WAT      O 6193   3.209   9.513   5.562
 1984WAT     H1 6194   3.192   9.584   5.631
 1984WAT     H2 6195   3.229   9.427   5.608
 1985WAT      O 6196   4.596   3.990   7.144
 1985WAT     H1 6197   4.510   3.973   7.095
 1985WAT     H2 6198   4.583   3.970   7.241
 1986WAT      O 6199   0.019   7.910   4.657
 1986WAT     H1 6200  -0.008   7.820   4.625
 1986WAT     H2 6201   0.106   7.936   4.615
 1987WAT      O 6202   0.178   5.720   3.184
 1987WAT     H1 6203   0.107   5.751   3.248
 1987WAT     H2 6204   0.246   5.666   3.234
 1988WAT      O 6205   0.571   5.801   9.267
 1988WAT     H1 6206   0.659   5.810   9.313
 1988WAT     H2 6207   0.584   5.756   9.178
 1989WAT      O 6208   5.083   0.322   3.900
 1989WAT     H1 6209   5.162   0.381   3.881
 1989WAT     H2 6210   5.060   0.269   3.818
 1990WAT      O 6211   3.650   3.920   6.720
 1990WAT     H1 6212   3.714   3.996   6.721
 1990WAT     H2 6213   3.700   3.834   6.736
 1991WAT      O 6214   3.039   0.635   7.764
 1991WAT     H1 6215   3.100   0.590   7.830
 1991WAT     H2 6216   3.048   0.734   7.773
 1992WAT      O 6217   0.376   1.549   6.273
 1992WAT     H1 6218   0.459   1.581   6.227
 1992WAT     H2 6219   0.306   1.530   6.206
 1993WAT      O 6220   0.128   7.138   1.140
 1993WAT     H1 6221   0.029   7.145   1.151
 1993WAT     H2 6222   0.150   7.066   1.075
 1994WAT      O 6223   5.023   7.781   1.665
 1994WAT     H1 6224   5.121   7.781   1.683
 1994WAT     H2 6225   4.974   7.749   1.747
 1995WAT      O 6226   8.916   5.350   6.911
 1995WAT     H1 6227   8.841   5.286   6.928
 1995WAT     H2 6228   8.893   5.439   6.950
 1996WAT      O 6229   2.055   3.705   6.848
 1996WAT     H1 6230   1.957   3.719   6.830
 1996WAT     H2 6231   2.100   3.793   6.859
 1997WAT      O 6232   4.603   0.064   2.280
 1997WAT     H1 6233   4.668   0.086   2.353
 1997WAT     H2 6234   4.521   0.120   2.291
 1998WAT      O 6235   2.395   7.024   1.740
 1998WAT     H1 6236   2.440   7.106   1.706
 1998WAT     H2 6237   2.396   6.954   1.668
 1999WAT      O 6238   8.952   6.194   2.170
 1999WAT     H1 6239   8.945   6.210   2.268
 1999WAT     H2 6240   8.978   6.100   2.152
 2000WAT      O 6241   4.432   7.740   7.238
 2000WAT     H1 6242   4.402   7.655   7.281
 2000WAT     H2 6243   4.367   7.765   7.166
 2001WAT      O 6244   8.701   8.206   1.066
 2001WAT     H1 6245   8.644   8.129   1.037
 2001WAT     H2 6246   8.653   8.260   1.135
 2002WAT      O 6247   5.729   3.952   9.540
 2002WAT     H1 6248   5.634   3.921   9.547
 2002WAT     H2 6249   5.791   3.874   9.557
 2003WAT      O 6250   9.403   1.879   6.503
 2003WAT     H1 6251   9.322   1.925   6.538
 2003WAT     H2 6252   9.392   1.861   6.405
 2004WAT      O 6253   0.085   9.255   9.000
 2004WAT     H1 6254   0.140   9.322   8.950
 2004WAT     H2 6255   0.020   9.212   8.937
 2005WAT      O 6256   2.854   0.423   4.303
 2005WAT     H1 6257   2.944   0.466   4.305
 2005WAT     H2 6258   2.823   0.405   4.397
 2006WAT      O 6259   6.374   5.977   8.421
 2006WAT     H1 6260   6.418   5.963   8.332
 2006WAT     H2 6261   6.441   6.013   8.486
 2007WAT      O 6262   9.372   0.711   8.892
 2007WAT     H1 6263   9.372   0.641   8.821
 2007WAT     H2 6264   9.463   0.749   8.903
 2008WAT      O 6265   5.369   4.413   9.226
 2008WAT     H1 6266   5.371   4.468   9.310
 2008WAT     H2 6267   5.456   4.424   9.178
 2009WAT      O 6268   0.237   0.628   9.443
 2009WAT     H1 6269   0.178   0.618   9.363
 2009WAT     H2 6270   0.259   0.538   9.480
 2010WAT      O 6271   8.952   8.417   6.032
 2010WAT     H1 6272   9.032   8.450   6.082
 2010WAT     H2 6273   8.942   8.318   6.047
 2011WAT      O 6274   5.537   4.692   1.431
 2011WAT     H1 6275   5.489   4.719   1.514
 2011WAT     H2 6276   5.550   4.593   1.430
 2012WAT      O 6277   2.851   4.355   6.019
 2012WAT     H1 6278   2.838   4.426   5.951
 2012WAT     H2 6279   2.831   4.391   6.110
 2013WAT      O 6280   1.767   3.236   5.662
 2013WAT     H1 6281   1.717   3.204   5.582
 2013WAT     H2 6282   1.704   3.250   5.738
 2014WAT      O 6283   1.670   1.970   4.853
 2014WAT     H1 6284   1.635   2.062   4.839
 2014WAT     H2 6285   1.744   1.952   4.788
 2015WAT      O 6286   3.966   9.060   3.458
 2015WAT     H1 6287   3.916   9.072   3.544
 2015WAT     H2 6288   3.983   8.963   3.442
 2016WAT      O 6289   1.020   5.821   2.809
 2016WAT     H1 6290   1.051   5.856   2.720
 2016WAT     H2 6291   1.056   5.879   2.882
 2017WAT      O 6292   0.561   8.150   9.755
 2017WAT     H1 6293   0.593   8.201   9.675
 2017WAT     H2 6294   0.548   8.213   9.831
 2018WAT      O 6295   7.339   1.409   0.144
 2018WAT     H1 6296   7.242   1.394   0.126
 2018WAT     H2 6297   7.371   1.488   0.092
 2019WAT      O 6298   6.171   3.705   5.204
 2019WAT     H1 6299   6.263   3.667   5.195
 2019WAT     H2 6300   6.133   3.679   5.293
 2020WAT      O 6301   7.026   6.795   2.600
 2020WAT     H1 6302   6.997   6.889   2.581
 2020WAT     H2 6303   7.089   6.765   2.528
 2021WAT      O 6304   6.489   8.854   0.506
 2021WAT     H1 6305   6.580   8.832   0.474
 2021WAT     H2 6306   6.460   8.787   0.574
 2022WAT      O 6307   7.249   9.244   9.659
 2022WAT     H1 6308   7.315   9.169   9.659
 2022WAT     H2 6309   7.165   9.215   9.706
 2023WAT      O 6310   3.858   2.039   6.796
 2023WAT     H1 6311   3.890   1.973   6.865
 2023WAT     H2 6312   3.914   2.122   6.802
 2024WAT      O 6313   0.168   7.749   2.203
 2024WAT     H1 6314   0.165   7.807   2.284
 2024WAT     H2 6315   0.106   7.671   2.215
 2025WAT      O 6316   2.931   3.029   6.952
 2025WAT     H1 6317   2.967   3.023   6.859
 2025WAT     H2 6318   2.950   3.120   6.990
 2026WAT      O 6319   8.373   3.488   7.396
 2026WAT     H1 6320   8.359   3.410   7.458
 2026WAT     H2 6321   8.415   3.456   7.312
 2027WAT      O 6322   3.029   6.032   8.194
 2027WAT     H1 6323   2.988   5.947   8.160
 2027WAT     H2 6324   3.065   6.085   8.117
 2028WAT      O 6325   3.543   9.101   4.810
 2028WAT     H1 6326   3.556   9.002   4.817
 2028WAT     H2 6327   3.459   9.127   4.857
 2029WAT      O 6328   5.731   1.854   7.947
 2029WAT     H1 6329   5.792   1.838   7.870
 2029WAT     H2 6330   5.637   1.834   7.920
 2030WAT      O 6331   0.866   7.163   6.782
 2030WAT     H1 6332   0.814   7.239   6.742
 2030WAT     H2 6333   0.960   7.167   6.749
 2031WAT      O 6334   8.161   6.313   1.640
 2031WAT     H1 6335   8.186   6.226   1.598
 2031WAT     H2 6336   8.225   6.333   1.714
 2032WAT      O 6337   8.239   4.782   8.725
 2032WAT     H1 6338   8.308   4.732   8.672
 2032WAT     H2 6339   8.172   4.717   8.762
 2033WAT      O 6340   4.091   8.086   0.958
 2033WAT     H1 6341   4.089   8.178   0.920
 2033WAT     H2 6342   4.039   8.024   0.899
 2034WAT      O 6343   3.792   7.392   0.027
 2034WAT     H1 6344   3.885   7.382  -0.010
 2034WAT     H2 6345   3.787   7.476   0.080
 2035WAT      O 6346   3.823   4.365   0.679
 2035WAT     H1 6347   3.826   4.342   0.776
 2035WAT     H2 6348   3.734   4.340   0.641
 2036WAT      O 6349   7.199   5.953   8.879
 2036WAT     H1 6350   7.112   5.960   8.927
 2036WAT     H2 6351   7.223   5.856   8.867
 2037WAT      O 6352   1.643   5.796   7.238
 2037WAT     H1 6353   1.687   5.760   7.320
 2037WAT     H2 6354   1.683   5.753   7.157
 2038WAT      O 6355   3.239   3.414   3.313
 2038WAT     H1 6356   3.226   3.363   3.228
 2038WAT     H2 6357   3.315   3.376   3.365
 2039WAT      O 6358   8.117   8.938   8.540
 2039WAT     H1 6359   8.139   8.840   8.541
 2039WAT     H2 6360   8.137   8.975   8.449
 2040WAT      O 6361   3.167   4.275   7.609
 2040WAT     H1 6362   3.226   4.291   7.688
 2040WAT     H2 6363   3.075   4.311   7.629
 2041WAT      O 6364   3.236   8.425   9.141
 2041WAT     H1 6365   3.193   8.409   9.052
 2041WAT     H2 6366   3.333   8.444   9.129
 2042WAT      O 6367   2.430   0.415   9.662
 2042WAT     H1 6368   2.393   0.495   9.615
 2042WAT     H2 6369   2.364   0.340   9.658
 2043WAT      O 6370   1.065   5.041   7.979
 2043WAT     H1 6371   1.074   5.061   8.077
 2043WAT     H2 6372   1.152   5.060   7.934
 2044WAT      O 6373   3.707   7.576   0.591
 2044WAT     H1 6374   3.791   7.625   0.566
 2044WAT     H2 6375   3.722   7.528   0.677
 2045WAT      O 6376   7.663   5.379   8.664
 2045WAT     H1 6377   7.591   5.315   8.690
 2045WAT     H2 6378   7.622   5.467   8.639
 2046WAT      O 6379   6.325   6.968   9.620
 2046WAT     H1 6380   6.236   6.939   9.585
 2046WAT     H2 6381   6.312   7.029   9.698
 2047WAT      O 6382   0.250   7.411   6.773
 2047WAT     H1 6383   0.229   7.361   6.857
 2047WAT     H2 6384   0.349   7.410   6.757
 2048WAT      O 6385   1.079   2.832   3.416
 2048WAT     H1 6386   1.017   2.769   3.368
 2048WAT     H2 6387   1.081   2.809   3.513
 2049WAT      O 6388   4.829   1.016   0.136
 2049WAT     H1 6389   4.891   0.977   0.068
 2049WAT     H2 6390   4.818   1.114   0.118
 2050WAT      O 6391   6.831   7.407   1.161
 2050WAT     H1 6392   6.821   7.434   1.257
 2050WAT     H2 6393   6.742   7.376   1.126
 2051WAT      O 6394   4.590   1.625   3.933
 2051WAT     H1 6395   4.649   1.572   3.872
 2051WAT     H2 6396   4.623   1.720   3.937
 2052WAT      O 6397   0.999   0.677   5.890
 2052WAT     H1 6398   0.970   0.678   5.986
 2052WAT     H2 6399   1.063   0.752   5.874
 2053WAT      O 6400   7.744   7.794   2.174
 2053WAT     H1 6401   7.701   7.835   2.093
 2053WAT     H2 6402   7.675   7.744   2.226
 2054WAT      O 6403   8.555   6.068   2.258
 2054WAT     H1 6404   8.590   5.976   2.239
 2054WAT     H2 6405   8.579   6.129   2.182
 2055WAT      O 6406   9.212   7.588   5.788
 2055WAT     H1 6407   9.199   7.601   5.886
 2055WAT     H2 6408   9.305   7.615   5.763
 2056WAT      O 6409   4.305   4.656   5.029
 2056WAT     H1 6410   4.337   4.621   4.941
 2056WAT     H2 6411   4.358   4.614   5.103
 2057WAT      O 6412   5.050   5.246   7.890
 2057WAT     H1 6413   5.077   5.286   7.802
 2057WAT     H2 6414   5.129   5.201   7.932
 2058WAT      O 6415   1.096   6.280   0.273
 2058WAT     H1 6416   1.157   6.348   0.314
 2058WAT     H2 6417   1.147   6.194   0.259
 2059WAT      O 6418   1.679   5.527   0.171
 2059WAT     H1 6419   1.672   5.467   0.251
 2059WAT     H2 6420   1.726   5.612   0.197
 2060WAT      O 6421   3.967   0.154   4.928
 2060WAT     H1 6422   3.993   0.075   4.873
 2060WAT     H2 6423   3.952   0.233   4.869
 2061WAT      O 6424   5.375   6.254   1.474
 2061WAT     H1 6425   5.358   6.223   1.381
 2061WAT     H2 6426   5.298   6.228   1.533
 2062WAT      O 6427   9.339   6.174   8.268
 2062WAT     H1 6428   9.291   6.236   8.206
 2062WAT     H2 6429   9.425   6.216   8.297
 2063WAT      O 6430   4.832   6.590   7.560
 2063WAT     H1 6431   4.793   6.613   7.649
 2063WAT     H2 6432   4.859   6.493   7.559
 2064WAT      O 6433   2.660   1.444   8.898
 2064WAT     H1 6434   2.660   1.497   8.813
 2064WAT     H2 6435   2.660   1.346   8.876
 2065WAT      O 6436   8.289   5.151   2.918
 2065WAT     H1 6437   8.261   5.055   2.928
 2065WAT     H2 6438   8.388   5.158   2.926
 2066WAT      O 6439   5.821   2.113   0.917
 2066WAT     H1 6440   5.898   2.054   0.893
 2066WAT     H2 6441   5.778   2.148   0.834
 2067WAT      O 6442   0.017   6.517   9.295
 2067WAT     H1 6443   0.110   6.481   9.297
 2067WAT     H2 6444  -0.034   6.476   9.220
 2068WAT      O 6445   7.990   5.226   8.639
 2068WAT     H1 6446   7.994   5.135   8.682
 2068WAT     H2 6447   7.926   5.224   8.563
 2069WAT      O 6448   5.623   2.933   3.552
 2069WAT     H1 6449   5.576   3.020   3.567
 2069WAT     H2 6450   5.695   2.945   3.484
 2070WAT      O 6451   8.709   2.108   0.265
 2070WAT     H1 6452   8.655   2.173   0.211
 2070WAT     H2 6453   8.714   2.140   0.360
 2071WAT      O 6454   0.866   1.392   4.381
 2071WAT     H1 6455   0.801   1.424   4.451
 2071WAT     H2 6456   0.957   1.383   4.421
 2072WAT      O 6457   7.218   3.936   8.218
 2072WAT     H1 6458   7.206   4.011   8.283
 2072WAT     H2 6459   7.228   3.974   8.126
 2073WAT      O 6460   3.761   9.653   6.517
 2073WAT     H1 6461   3.696   9.621   6.585
 2073WAT     H2 6462   3.854   9.625   6.543
 2074WAT      O 6463   7.150   4.642   4.014
 2074WAT     H1 6464   7.202   4.558   4.001
 2074WAT     H2 6465   7.059   4.619   4.050
 2075WAT      O 6466   6.327   5.269   1.126
 2075WAT     H1 6467   6.271   5.225   1.056
 2075WAT     H2 6468   6.303   5.366   1.132
 2076WAT      O 6469   4.123   8.115   5.273
 2076WAT     H1 6470   4.137   8.026   5.232
 2076WAT     H2 6471   4.180   8.124   5.355
 2077WAT      O 6472   0.058   3.552   2.425
 2077WAT     H1 6473   0.156   3.556   2.410
 2077WAT     H2 6474   0.040   3.501   2.509
 2078WAT      O 6475   0.299   6.458   5.712
 2078WAT     H1 6476   0.238   6.380   5.697
 2078WAT     H2 6477   0.264   6.538   5.663
 2079WAT      O 6478   1.774   7.010   7.823
 2079WAT     H1 6479   1.682   7.011   7.784
 2079WAT     H2 6480   1.770   6.975   7.916
 2080WAT      O 6481   2.271   1.645   4.971
 2080WAT     H1 6482   2.185   1.687   4.943
 2080WAT     H2 6483   2.254   1.585   5.049
 2081WAT      O 6484   5.076   3.034   4.854
 2081WAT     H1 6485   4.984   3.073   4.862
 2081WAT     H2 6486   5.104   3.035   4.758
 2082WAT      O 6487   0.894   6.262   7.238
 2082WAT     H1 6488   0.840   6.259   7.323
 2082WAT     H2 6489   0.841   6.222   7.163
 2083WAT      O 6490   7.893   6.583   8.136
 2083WAT     H1 6491   7.918   6.657   8.199
 2083WAT     H2 6492   7.810   6.538   8.170
 2084WAT      O 6493   8.838   7.501   3.014
 2084WAT     H1 6494   8.826   7.599   3.033
 2084WAT     H2 6495   8.753   7.465   2.975
 2085WAT      O 6496   9.453   8.434   4.279
 2085WAT     H1 6497   9.357   8.448   4.256
 2085WAT     H2 6498   9.504   8.518   4.259
 2086WAT      O 6499   9.320   6.644   7.728
 2086WAT     H1 6500   9.356   6.737   7.717
 2086WAT     H2 6501   9.232   6.636   7.681
 2087WAT      O 6502   8.073   3.022   3.230
 2087WAT     H1 6503   8.142   3.006   3.300
 2087WAT     H2 6504   7.984   3.040   3.273
 2088WAT      O 6505   8.517   2.478   9.647
 2088WAT     H1 6506   8.525   2.378   9.649
 2088WAT     H2 6507   8.425   2.504   9.674
 2089WAT      O 6508   9.587   2.549   7.579
 2089WAT     H1 6509   9.645   2.518   7.655
 2089WAT     H2 6510   9.580   2.649   7.581
 2090WAT      O 6511   4.197   1.367   1.942
 2090WAT     H1 6512   4.214   1.364   2.040
 2090WAT     H2 6513   4.207   1.461   1.909
 2091WAT      O 6514   5.522   0.191   4.782
 2091WAT     H1 6515   5.489   0.126   4.715
 2091WAT     H2 6516   5.457   0.198   4.857
 2092WAT      O 6517   7.799   5.765   0.902
 2092WAT     H1 6518   7.705   5.757   0.870
 2092WAT     H2 6519   7.850   5.825   0.840
 2093WAT      O 6520   3.886   0.632   2.221
 2093WAT     H1 6521   3.836   0.715   2.199
 2093WAT     H2 6522   3.830   0.573   2.279
 2094WAT      O 6523   4.633   0.415   8.217
 2094WAT     H1 6524   4.685   0.336   8.249
 2094WAT     H2 6525   4.536   0.394   8.219
 2095WAT      O 6526   1.201   5.868   1.852
 2095WAT     H1 6527   1.214   5.774   1.819
 2095WAT     H2 6528   1.229   5.874   1.948
 2096WAT      O 6529   8.573   2.777   6.687
 2096WAT     H1 6530   8.482   2.809   6.660
 2096WAT     H2 6531   8.569   2.742   6.781
 2097WAT      O 6532   3.244   8.934   7.614
 2097WAT     H1 6533   3.264   9.024   7.575
 2097WAT     H2 6534   3.168   8.942   7.678
 2098WAT      O 6535   5.405   6.970   5.816
 2098WAT     H1 6536   5.307   6.962   5.799
 2098WAT     H2 6537   5.420   6.998   5.911
 2099WAT      O 6538   4.465   2.328   4.479
 2099WAT     H1 6539   4.554   2.289   4.502
 2099WAT     H2 6540   4.472   2.374   4.390
 2100WAT      O 6541   5.561   2.958   2.071
 2100WAT     H1 6542   5.504   2.937   1.991
 2100WAT     H2 6543   5.627   3.029   2.047
 2101WAT      O 6544   9.008   2.483   9.673
 2101WAT     H1 6545   9.093   2.533   9.688
 2101WAT     H2 6546   9.020   2.417   9.600
 2102WAT      O 6547   1.452   3.152   0.322
 2102WAT     H1 6548   1.430   3.244   0.355
 2102WAT     H2 6549   1.540   3.124   0.359
 2103WAT      O 6550   6.547   3.999   8.196
 2103WAT     H1 6551   6.615   4.034   8.132
 2103WAT     H2 6552   6.486   4.074   8.223
 2104WAT      O 6553   8.396   6.952   9.145
 2104WAT     H1 6554   8.475   7.002   9.180
 2104WAT     H2 6555   8.313   7.006   9.158
 2105WAT      O 6556   4.458   7.939   1.157
 2105WAT     H1 6557   4.417   7.969   1.243
 2105WAT     H2 6558   4.386   7.924   1.089
 2106WAT      O 6559   5.436   5.167   0.796
 2106WAT     H1 6560   5.458   5.241   0.733
 2106WAT     H2 6561   5.399   5.090   0.745
 2107WAT      O 6562   1.663   8.353   6.783
 2107WAT     H1 6563   1.657   8.254   6.767
 2107WAT     H2 6564   1.755   8.385   6.759
 2108WAT      O 6565   7.271   7.129   5.229
 2108WAT     H1 6566   7.252   7.118   5.327
 2108WAT     H2 6567   7.361   7.091   5.208
 2109WAT      O 6568   0.531   1.101   9.009
 2109WAT     H1 6569   0.569   1.018   9.051
 2109WAT     H2 6570   0.520   1.086   8.911
 2110WAT      O 6571   1.733   3.962   5.411
 2110WAT     H1 6572   1.671   4.039   5.427
 2110WAT     H2 6573   1.696   3.904   5.339
 2111WAT      O 6574   2.115   2.852   8.762
 2111WAT     H1 6575   2.151   2.886   8.676
 2111WAT     H2 6576   2.097   2.928   8.824
 2112WAT      O 6577   2.407   0.376   8.920
 2112WAT     H1 6578   2.449   0.453   8.970
 2112WAT     H2 6579   2.312   0.397   8.901
 2113WAT      O 6580   0.812   5.453   2.939
 2113WAT     H1 6581   0.905   5.476   2.912
 2113WAT     H2 6582   0.774   5.527   2.995
 2114WAT      O 6583   8.715   6.133   2.472
 2114WAT     H1 6584   8.647   6.136   2.399
 2114WAT     H2 6585   8.681   6.183   2.552
 2115WAT      O 6586   7.111   0.486   3.539
 2115WAT     H1 6587   7.073   0.409   3.487
 2115WAT     H2 6588   7.079   0.480   3.634
 2116WAT      O 6589   6.045   8.648   6.834
 2116WAT     H1 6590   5.960   8.618   6.790
 2116WAT     H2 6591   6.083   8.725   6.783
 2117WAT      O 6592   5.191   5.811   9.111
 2117WAT     H1 6593   5.249   5.748   9.059
 2117WAT     H2 6594   5.104   5.766   9.130
 2118WAT      O 6595   4.292   3.782   5.072
 2118WAT     H1 6596   4.196   3.806   5.060
 2118WAT     H2 6597   4.350   3.850   5.028
 2119WAT      O 6598   7.599   2.261   8.840
 2119WAT     H1 6599   7.584   2.298   8.931
 2119WAT     H2 6600   7.605   2.161   8.845
 2120WAT      O 6601   8.466   1.236   3.497
 2120WAT     H1 6602   8.391   1.291   3.535
 2120WAT     H2 6603   8.512   1.188   3.571
 2121WAT      O 6604   6.263   1.713   8.048
 2121WAT     H1 6605   6.361   1.695   8.043
 2121WAT     H2 6606   6.248   1.808   8.074
 2122WAT      O 6607   1.302   6.258   9.426
 2122WAT     H1 6608   1.258   6.340   9.391
 2122WAT     H2 6609   1.361   6.219   9.356
 2123WAT      O 6610   0.660   6.610   0.934
 2123WAT     H1 6611   0.666   6.650   1.025
 2123WAT     H2 6612   0.661   6.510   0.942
 2124WAT      O 6613   6.763   4.806   1.368
 2124WAT     H1 6614   6.749   4.743   1.444
 2124WAT     H2 6615   6.690   4.795   1.301
 2125WAT      O 6616   5.248   7.598   6.885
 2125WAT     H1 6617   5.332   7.619   6.834
 2125WAT     H2 6618   5.218   7.679   6.935
 2126WAT      O 6619   9.497   1.747   0.021
 2126WAT     H1 6620   9.534   1.757  -0.072
 2126WAT     H2 6621   9.518   1.656   0.055
 2127WAT      O 6622   1.696   3.063   6.756
 2127WAT     H1 6623   1.711   3.147   6.809
 2127WAT     H2 6624   1.757   2.992   6.789
 2128WAT      O 6625   0.314   5.794   0.051
 2128WAT     H1 6626   0.381   5.767  -0.018
 2128WAT     H2 6627   0.233   5.736   0.044
 2129WAT      O 6628   2.633   2.648   7.717
 2129WAT     H1 6629   2.731   2.663   7.703
 2129WAT     H2 6630   2.597   2.588   7.645
 2130WAT      O 6631   8.945   4.191   0.162
 2130WAT     H1 6632   9.045   4.194   0.155
 2130WAT     H2 6633   8.911   4.279   0.195
 2131WAT      O 6634   1.548   3.257   8.922
 2131WAT     H1 6635   1.623   3.305   8.968
 2131WAT     H2 6636   1.579   3.167   8.893
 2132WAT      O 6637   6.485   5.982   1.834
 2132WAT     H1 6638   6.532   5.927   1.766
 2132WAT     H2 6639   6.528   6.072   1.839
 2133WAT      O 6640   3.211   4.335   1.003
 2133WAT     H1 6641   3.158   4.408   1.045
 2133WAT     H2 6642   3.241   4.271   1.074
 2134WAT      O 6643   3.670   9.777   3.469
 2134WAT     H1 6644   3.593   9.839   3.455
 2134WAT     H2 6645   3.666   9.739   3.561
 2135WAT      O 6646   7.131   1.975   9.210
 2135WAT     H1 6647   7.073   2.049   9.178
 2135WAT     H2 6648   7.224   1.988   9.177
 2136WAT      O 6649   2.840   3.905   5.407
 2136WAT     H1 6650   2.755   3.902   5.355
 2136WAT     H2 6651   2.834   3.844   5.485
 2137WAT      O 6652   7.634   6.284   0.919
 2137WAT     H1 6653   7.598   6.224   0.848
 2137WAT     H2 6654   7.682   6.361   0.877
 2138WAT      O 6655   4.424   3.454   2.007
 2138WAT     H1 6656   4.339   3.473   2.056
 2138WAT     H2 6657   4.501   3.464   2.070
 2139WAT      O 6658   7.844   7.288   7.113
 2139WAT     H1 6659   7.874   7.282   7.017
 2139WAT     H2 6660   7.919   7.324   7.168
 2140WAT      O 6661   2.114   1.686   8.554
 2140WAT     H1 6662   2.061   1.763   8.587
 2140WAT     H2 6663   2.058   1.631   8.492
 2141WAT      O 6664   4.473   1.861   4.197
 2141WAT     H1 6665   4.435   1.769   4.188
 2141WAT     H2 6666   4.567   1.855   4.231
 2142WAT      O 6667   8.522   1.459   2.262
 2142WAT     H1 6668   8.566   1.369   2.266
 2142WAT     H2 6669   8.556   1.515   2.337
 2143WAT      O 6670   3.766   9.084   0.681
 2143WAT     H1 6671   3.807   9.009   0.733
 2143WAT     H2 6672   3.684   9.116   0.727
 2144WAT      O 6673   4.447   2.580   8.776
 2144WAT     H1 6674   4.433   2.640   8.855
 2144WAT     H2 6675   4.411   2.624   8.694
 2145WAT      O 6676   7.064   0.913   1.986
 2145WAT     H1 6677   7.122   0.877   2.059
 2145WAT     H2 6678   7.091   1.007   1.966
 2146WAT      O 6679   0.417   7.263   6.492
 2146WAT     H1 6680   0.462   7.200   6.555
 2146WAT     H2 6681   0.327   7.288   6.529
 2147WAT      O 6682   8.947   0.277   6.622
 2147WAT     H1 6683   8.939   0.376   6.609
 2147WAT     H2 6684   8.981   0.234   6.538
 2148WAT      O 6685   5.961   5.373   1.975
 2148WAT     H1 6686   6.038   5.326   2.017
 2148WAT     H2 6687   5.995   5.434   1.902
 2149WAT      O 6688   8.397   1.971   0.250
 2149WAT     H1 6689   8.320   1.920   0.213
 2149WAT     H2 6690   8.476   1.911   0.258
 2150WAT      O 6691   6.115   4.315   7.556
 2150WAT     H1 6692   6.067   4.392   7.515
 2150WAT     H2 6693   6.204   4.303   7.510
 2151WAT      O 6694   7.897   4.223   5.499
 2151WAT     H1 6695   7.932   4.158   5.431
 2151WAT     H2 6696   7.806   4.252   5.473
 2152WAT      O 6697   3.486   6.549   3.659
 2152WAT     H1 6698   3.548   6.517   3.588
 2152WAT     H2 6699   3.440   6.471   3.701
 2153WAT      O 6700   8.436   1.340   2.568
 2153WAT     H1 6701   8.380   1.405   2.619
 2153WAT     H2 6702   8.383   1.257   2.550
 2154WAT      O 6703   9.710   9.003   7.975
 2154WAT     H1 6704   9.666   9.079   8.023
 2154WAT     H2 6705   9.760   8.947   8.040
 2155WAT      O 6706   8.743   6.347   4.376
 2155WAT     H1 6707   8.659   6.346   4.321
 2155WAT     H2 6708   8.816   6.392   4.324
 2156WAT      O 6709   8.518   7.562   8.057
 2156WAT     H1 6710   8.534   7.592   7.963
 2156WAT     H2 6711   8.502   7.463   8.059
 2157WAT      O 6712   4.901   7.804   9.813
 2157WAT     H1 6713   4.952   7.832   9.732
 2157WAT     H2 6714   4.843   7.725   9.790
 2158WAT      O 6715   7.909   7.204   7.478
 2158WAT     H1 6716   7.849   7.184   7.556
 2158WAT     H2 6717   7.881   7.290   7.436
 2159WAT      O 6718   8.630   5.268   6.618
 2159WAT     H1 6719   8.585   5.212   6.548
 2159WAT     H2 6720   8.562   5.302   6.682
 2160WAT      O 6721   6.128   3.228   1.003
 2160WAT     H1 6722   6.093   3.232   1.096
 2160WAT     H2 6723   6.057   3.258   0.939
 2161WAT      O 6724   2.904   5.791   3.130
 2161WAT     H1 6725   3.003   5.785   3.143
 2161WAT     H2 6726   2.876   5.888   3.131
 2162WAT      O 6727   8.349   3.542   3.771
 2162WAT     H1 6728   8.305   3.585   3.849
 2162WAT     H2 6729   8.409   3.608   3.726
 2163WAT      O 6730   9.542   1.364   9.432
 2163WAT     H1 6731   9.465   1.407   9.479
 2163WAT     H2 6732   9.537   1.265   9.446
 2164WAT      O 6733   1.120   2.662   2.645
 2164WAT     H1 6734   1.184   2.589   2.621
 2164WAT     H2 6735   1.167   2.731   2.700
 2165WAT      O 6736   2.010   8.516   5.386
 2165WAT     H1 6737   2.032   8.447   5.454
 2165WAT     H2 6738   1.947   8.478   5.318
 2166WAT      O 6739   3.611   4.315   6.776
 2166WAT     H1 6740   3.560   4.281   6.855
 2166WAT     H2 6741   3.709   4.313   6.797
 2167WAT      O 6742   1.015   4.552   6.114
 2167WAT     H1 6743   1.015   4.452   6.116
 2167WAT     H2 6744   0.921   4.585   6.120
 2168WAT      O 6745   2.267   0.867   2.633
 2168WAT     H1 6746   2.219   0.784   2.664
 2168WAT     H2 6747   2.353   0.841   2.589
 2169WAT      O 6748   2.606   8.236   4.436
 2169WAT     H1 6749   2.601   8.317   4.495
 2169WAT     H2 6750   2.624   8.266   4.341
 2170WAT      O 6751   6.410   2.576   2.842
 2170WAT     H1 6752   6.364   2.564   2.930
 2170WAT     H2 6753   6.472   2.499   2.827
 2171WAT      O 6754   0.993   7.836   0.237
 2171WAT     H1 6755   0.938   7.787   0.305
 2171WAT     H2 6756   0.953   7.824   0.147
 2172WAT      O 6757   9.357   9.840   6.523
 2172WAT     H1 6758   9.371   9.927   6.476
 2172WAT     H2 6759   9.287   9.787   6.475
 2173WAT      O 6760   3.849   5.913   0.561
 2173WAT     H1 6761   3.948   5.902   0.558
 2173WAT     H2 6762   3.805   5.837   0.512
 2174WAT      O 6763   9.267   2.804   1.196
 2174WAT     H1 6764   9.317   2.750   1.128
 2174WAT     H2 6765   9.304   2.897   1.198
 2175WAT      O 6766   6.594   8.471   7.420
 2175WAT     H1 6767   6.661   8.521   7.474
 2175WAT     H2 6768   6.556   8.532   7.349
 2176WAT      O 6769   6.894   3.750   1.047
 2176WAT     H1 6770   6.972   3.737   0.985
 2176WAT     H2 6771   6.809   3.746   0.995
 2177WAT      O 6772   0.826   6.995   9.303
 2177WAT     H1 6773   0.843   6.900   9.328
 2177WAT     H2 6774   0.793   6.999   9.209
 2178WAT      O 6775   3.084   2.653   8.949
 2178WAT     H1 6776   2.987   2.639   8.966
 2178WAT     H2 6777   3.099   2.742   8.907
 2179WAT      O 6778   6.196   1.739   4.468
 2179WAT     H1 6779   6.183   1.664   4.532
 2179WAT     H2 6780   6.120   1.740   4.402
 2180WAT      O 6781   4.385   2.747   6.304
 2180WAT     H1 6782   4.348   2.777   6.216
 2180WAT     H2 6783   4.484   2.732   6.296
 2181WAT      O 6784   2.164   8.305   5.574
 2181WAT     H1 6785   2.175   8.213   5.537
 2181WAT     H2 6786   2.232   8.366   5.533
 2182WAT      O 6787   0.446   5.430   1.768
 2182WAT     H1 6788   0.481   5.508   1.821
 2182WAT     H2 6789   0.372   5.461   1.708
 2183WAT      O 6790   5.287   3.926   3.877
 2183WAT     H1 6791   5.335   3.986   3.812
 2183WAT     H2 6792   5.239   3.982   3.945
 2184WAT      O 6793   7.995   3.133   8.920
 2184WAT     H1 6794   8.034   3.079   8.846
 2184WAT     H2 6795   8.051   3.215   8.934
 2185WAT      O 6796   5.119   5.971   7.556
 2185WAT     H1 6797   5.172   5.948   7.475
 2185WAT     H2 6798   5.061   5.894   7.581
 2186WAT      O 6799   2.738   5.927   0.024
 2186WAT     H1 6800   2.819   5.965  -0.022
 2186WAT     H2 6801   2.740   5.828   0.016
 2187WAT      O 6802   2.088   5.676   9.746
 2187WAT     H1 6803   2.150   5.683   9.668
 2187WAT     H2 6804   2.059   5.767   9.774
 2188WAT      O 6805   9.463   9.545   0.471
 2188WAT     H1 6806   9.418   9.518   0.556
 2188WAT     H2 6807   9.395   9.574   0.404
 2189WAT      O 6808   0.129   8.352   5.763
 2189WAT     H1 6809   0.100   8.437   5.719
 2189WAT     H2 6810   0.072   8.276   5.730
 2190WAT      O 6811   6.261   8.593   5.096
 2190WAT     H1 6812   6.191   8.658   5.123
 2190WAT     H2 6813   6.351   8.637   5.097
 2191WAT      O 6814   4.802   2.440   4.671
 2191WAT     H1 6815   4.888   2.441   4.722
 2191WAT     H2 6816   4.806   2.370   4.600
 2192WAT      O 6817   0.380   8.424   6.951
 2192WAT     H1 6818   0.340   8.395   6.864
 2192WAT     H2 6819   0.440   8.502   6.935
 2193WAT      O 6820   9.072   4.805   0.975
 2193WAT     H1 6821   9.123   4.798   0.889
 2193WAT     H2 6822   8.975   4.790   0.957
 2194WAT      O 6823   8.134   0.522   0.471
 2194WAT     H1 6824   8.189   0.603   0.492
 2194WAT     H2 6825   8.179   0.469   0.399
 2195WAT      O 6826   8.836   3.984   0.781
 2195WAT     H1 6827   8.935   3.972   0.782
 2195WAT     H2 6828   8.808   4.038   0.860
 2196WAT      O 6829   3.245   7.736   9.520
 2196WAT     H1 6830   3.342   7.713   9.513
 2196WAT     H2 6831   3.234   7.817   9.578
 2197WAT      O 6832   6.509   7.664   9.094
 2197WAT     H1 6833   6.508   7.576   9.142
 2197WAT     H2 6834   6.479   7.737   9.155
 2198WAT      O 6835   9.037   4.302   8.696
 2198WAT     H1 6836   9.095   4.376   8.659
 2198WAT     H2 6837   9.013   4.323   8.790
 2199WAT      O 6838   0.929   6.417   4.431
 2199WAT     H1 6839   0.833   6.427   4.403
 2199WAT     H2 6840   0.988   6.458   4.361
 2200WAT      O 6841   4.432   0.680   5.215
 2200WAT     H1 6842   4.452   0.657   5.120
 2200WAT     H2 6843   4.516   0.675   5.269
 2201WAT      O 6844   1.985   1.180   3.493
 2201WAT     H1 6845   2.060   1.177   3.427
 2201WAT     H2 6846   1.897   1.173   3.445
 2202WAT      O 6847   8.883   0.659   4.848
 2202WAT     H1 6848   8.937   0.575   4.852
 2202WAT     H2 6849   8.943   0.737   4.830
 2203WAT      O 6850   0.071   0.688   8.714
 2203WAT     H1 6851   0.086   0.664   8.618
 2203WAT     H2 6852   0.153   0.733   8.751
 2204WAT      O 6853   1.909   8.614   3.998
 2204WAT     H1 6854   1.821   8.657   3.978
 2204WAT     H2 6855   1.915   8.526   3.951
 2205WAT      O 6856   8.190   5.068   2.555
 2205WAT     H1 6857   8.185   4.990   2.618
 2205WAT     H2 6858   8.210   5.036   2.463
 2206WAT      O 6859   2.380   9.102   5.318
 2206WAT     H1 6860   2.408   9.197   5.301
 2206WAT     H2 6861   2.301   9.080   5.261
 2207WAT      O 6862   4.900   7.208   6.033
 2207WAT     H1 6863   4.923   7.231   6.127
 2207WAT     H2 6864   4.902   7.290   5.977
 2208WAT      O 6865   3.791   6.547   2.174
 2208WAT     H1 6866   3.728   6.494   2.231
 2208WAT     H2 6867   3.821   6.628   2.225
 2209WAT      O 6868   6.226   6.000   6.271
 2209WAT     H1 6869   6.230   5.915   6.217
 2209WAT     H2 6870   6.258   6.076   6.215
 2210WAT      O 6871   4.565   4.360   0.086
 2210WAT     H1 6872   4.512   4.392   0.008
 2210WAT     H2 6873   4.643   4.306   0.054
 2211WAT      O 6874   8.993   1.040   2.258
 2211WAT     H1 6875   8.900   1.073   2.239
 2211WAT     H2 6876   9.028   0.991   2.179
 2212WAT      O 6877   3.928   5.482   8.892
 2212WAT     H1 6878   3.867   5.404   8.899
 2212WAT     H2 6879   3.996   5.465   8.820
 2213WAT      O 6880   5.355   7.575   0.323
 2213WAT     H1 6881   5.417   7.514   0.273
 2213WAT     H2 6882   5.316   7.526   0.401
 2214WAT      O 6883   6.426   7.475   9.744
 2214WAT     H1 6884   6.438   7.441   9.837
 2214WAT     H2 6885   6.366   7.413   9.693
 2215WAT      O 6886   7.828   1.689   6.268
 2215WAT     H1 6887   7.927   1.686   6.281
 2215WAT     H2 6888   7.806   1.756   6.198
 2216WAT      O 6889   5.391   9.667   8.690
 2216WAT     H1 6890   5.294   9.677   8.667
 2216WAT     H2 6891   5.421   9.574   8.670
 2217WAT      O 6892   1.391   5.895   8.734
 2217WAT     H1 6893   1.305   5.947   8.739
 2217WAT     H2 6894   1.440   5.920   8.651
 2218WAT      O 6895   0.377   0.434   5.594
 2218WAT     H1 6896   0.364   0.519   5.544
 2218WAT     H2 6897   0.333   0.359   5.544
 2219WAT      O 6898   4.432   2.732   4.006
 2219WAT     H1 6899   4.469   2.795   3.938
 2219WAT     H2 6900   4.419   2.779   4.092
 2220WAT      O 6901   3.608   6.063   8.868
 2220WAT     H1 6902   3.576   5.969   8.865
 2220WAT     H2 6903   3.615   6.094   8.963
 2221WAT      O 6904   1.032   6.956   1.049
 2221WAT     H1 6905   1.035   7.017   0.971
 2221WAT     H2 6906   1.065   7.003   1.131
 2222WAT      O 6907   1.867   8.404   9.378
 2222WAT     H1 6908   1.821   8.401   9.289
 2222WAT     H2 6909   1.812   8.355   9.446
 2223WAT      O 6910   3.926   3.598   3.711
 2223WAT     H1 6911   3.927   3.667   3.639
 2223WAT     H2 6912   3.907   3.642   3.799
 2224WAT      O 6913   8.808   7.767   5.912
 2224WAT     H1 6914   8.860   7.722   5.840
 2224WAT     H2 6915   8.770   7.852   5.877
 2225WAT      O 6916   9.564   8.662   4.215
 2225WAT     H1 6917   9.574   8.705   4.305
 2225WAT     H2 6918   9.510   8.722   4.156
 2226WAT      O 6919   0.285   2.483   2.558
 2226WAT     H1 6920   0.351   2.407   2.551
 2226WAT     H2 6921   0.327   2.558   2.609
 2227WAT      O 6922   6.124   6.301   0.812
 2227WAT     H1 6923   6.130   6.250   0.898
 2227WAT     H2 6924   6.159   6.394   0.825
 2228WAT      O 6925   3.976   0.433   5.882
 2228WAT     H1 6926   4.023   0.421   5.794
 2228WAT     H2 6927   3.930   0.347   5.906
 2229WAT      O 6928   7.651   4.741   3.586
 2229WAT     H1 6929   7.722   4.685   3.543
 2229WAT     H2 6930   7.665   4.837   3.560
 2230WAT      O 6931   1.801   6.279   4.404
 2230WAT     H1 6932   1.738   6.306   4.330
 2230WAT     H2 6933   1.779   6.332   4.486
 2231WAT      O 6934   9.567   8.536   2.208
 2231WAT     H1 6935   9.547   8.452   2.156
 2231WAT     H2 6936   9.625   8.596   2.153
 2232WAT      O 6937   2.019   8.000   0.736
 2232WAT     H1 6938   2.034   7.959   0.646
 2232WAT     H2 6939   1.931   7.968   0.773
 2233WAT      O 6940   8.159   3.174   3.627
 2233WAT     H1 6941   8.164   3.091   3.572
 2233WAT     H2 6942   8.065   3.193   3.653
 2234WAT      O 6943   1.103   4.538   0.210
 2234WAT     H1 6944   1.134   4.624   0.251
 2234WAT     H2 6945   1.005   4.545   0.189
 2235WAT      O 6946   4.371   7.406   5.558
 2235WAT     H1 6947   4.373   7.503   5.537
 2235WAT     H2 6948   4.447   7.360   5.512
 2236WAT      O 6949   4.426   4.213   2.946
 2236WAT     H1 6950   4.511   4.161   2.948
 2236WAT     H2 6951   4.396   4.232   3.039
 2237WAT      O 6952   1.034   0.271   6.907
 2237WAT     H1 6953   1.000   0.216   6.982
 2237WAT     H2 6954   0.958   0.299   6.848
 2238WAT      O 6955   6.569   8.373   2.801
 2238WAT     H1 6956   6.614   8.420   2.725
 2238WAT     H2 6957   6.621   8.389   2.885
 2239WAT      O 6958   5.458   6.598   3.815
 2239WAT     H1 6959   5.467   6.502   3.845
 2239WAT     H2 6960   5.370   6.634   3.847
 2240WAT      O 6961   4.873   1.213   2.714
 2240WAT     H1 6962   4.815   1.150   2.767
 2240WAT     H2 6963   4.969   1.189   2.727
 2241WAT      O 6964   6.420   4.798   2.035
 2241WAT     H1 6965   6.465   4.710   2.042
 2241WAT     H2 6966   6.325   4.790   2.067
 2242WAT      O 6967   3.285   9.083   9.017
 2242WAT     H1 6968   3.266   9.142   8.938
 2242WAT     H2 6969   3.383   9.086   9.038
 2243WAT      O 6970   2.450   8.258   1.969
 2243WAT     H1 6971   2.454   8.335   1.905
 2243WAT     H2 6972   2.492   8.178   1.926
 2244WAT      O 6973   7.665   8.900   8.510
 2244WAT     H1 6974   7.736   8.926   8.575
 2244WAT     H2 6975   7.575   8.927   8.546
 2245WAT      O 6976   3.882   0.719   4.872
 2245WAT     H1 6977   3.976   0.689   4.892
 2245WAT     H2 6978   3.879   0.819   4.872
 2246WAT      O 6979   1.568   7.727   7.970
 2246WAT     H1 6980   1.489   7.699   7.915
 2246WAT     H2 6981   1.558   7.691   8.063
 2247WAT      O 6982   4.690   6.097   3.670
 2247WAT     H1 6983   4.685   6.137   3.762
 2247WAT     H2 6984   4.760   6.026   3.668
 2248WAT      O 6985   2.524   6.920   4.402
 2248WAT     H1 6986   2.525   6.822   4.418
 2248WAT     H2 6987   2.438   6.946   4.358
 2249WAT      O 6988   5.522   5.614   4.493
 2249WAT     H1 6989   5.472   5.701   4.484
 2249WAT     H2 6990   5.583   5.619   4.571
 2250WAT      O 6991   0.624   4.477   3.273
 2250WAT     H1 6992   0.529   4.452   3.294
 2250WAT     H2 6993   0.639   4.475   3.175
 2251WAT      O 6994   8.251   0.549   2.886
 2251WAT     H1 6995   8.173   0.585   2.939
 2251WAT     H2 6996   8.331   0.543   2.945
 2252WAT      O 6997   8.294   9.665   4.976
 2252WAT     H1 6998   8.238   9.623   4.904
 2252WAT     H2 6999   8.246   9.744   5.013
 2253WAT      O 7000   0.737   1.231   7.211
 2253WAT     H1 7001   0.826   1.261   7.177
 2253WAT     H2 7002   0.684   1.311   7.240
 2254WAT      O 7003   9.191   6.719   8.796
 2254WAT     H1 7004   9.259   6.769   8.850
 2254WAT     H2 7005   9.218   6.719   8.700
 2255WAT      O 7006   1.270   7.572   5.300
 2255WAT     H1 7007   1.192   7.631   5.282
 2255WAT     H2 7008   1.346   7.627   5.334
 2256WAT      O 7009   2.944   8.114   2.811
 2256WAT     H1 7010   2.854   8.158   2.810
 2256WAT     H2 7011   2.973   8.100   2.905
 2257WAT      O 7012   5.796   0.248   8.784
 2257WAT     H1 7013   5.786   0.268   8.881
 2257WAT     H2 7014   5.893   0.240   8.761
 2258WAT      O 7015   1.986   6.826   3.875
 2258WAT     H1 7016   2.058   6.890   3.904
 2258WAT     H2 7017   1.899   6.875   3.867
 2259WAT      O 7018   6.932   7.719   8.327
 2259WAT     H1 7019   6.931   7.747   8.231
 2259WAT     H2 7020   7.021   7.740   8.367
 2260WAT      O 7021   6.932   6.775   2.216
 2260WAT     H1 7022   6.873   6.701   2.249
 2260WAT     H2 7023   6.977   6.746   2.132
 2261WAT      O 7024   6.085   7.227   8.143
 2261WAT     H1 7025   6.098   7.156   8.074
 2261WAT     H2 7026   5.993   7.265   8.135
 2262WAT      O 7027   7.975   1.282   3.673
 2262WAT     H1 7028   7.947   1.371   3.710
 2262WAT     H2 7029   7.897   1.239   3.627
 2263WAT      O 7030   0.541   4.267   3.588
 2263WAT     H1 7031   0.628   4.226   3.558
 2263WAT     H2 7032   0.543   4.366   3.571
 2264WAT      O 7033   9.243   4.811   6.855
 2264WAT     H1 7034   9.276   4.844   6.766
 2264WAT     H2 7035   9.319   4.811   6.920
 2265WAT      O 7036   6.495   1.708   2.190
 2265WAT     H1 7037   6.492   1.739   2.095
 2265WAT     H2 7038   6.472   1.785   2.250
 2266WAT      O 7039   8.681   3.944   5.440
 2266WAT     H1 7040   8.751   3.890   5.487
 2266WAT     H2 7041   8.724   4.016   5.385
 2267WAT      O 7042   2.235   7.818   1.745
 2267WAT     H1 7043   2.276   7.729   1.764
 2267WAT     H2 7044   2.214   7.865   1.830
 2268WAT      O 7045   9.175   7.138   1.500
 2268WAT     H1 7046   9.172   7.230   1.540
 2268WAT     H2 7047   9.164   7.070   1.573
 2269WAT      O 7048   0.523   8.533   8.083
 2269WAT     H1 7049   0.454   8.591   8.039
 2269WAT     H2 7050   0.592   8.592   8.125
 2270WAT      O 7051   4.898   4.092   3.918
 2270WAT     H1 7052   4.890   4.173   3.859
 2270WAT     H2 7053   4.822   4.090   3.982
 2271WAT      O 7054   4.243   6.654   0.791
 2271WAT     H1 7055   4.307   6.626   0.719
 2271WAT     H2 7056   4.223   6.576   0.849
 2272WAT      O 7057   6.094   8.694   9.809
 2272WAT     H1 7058   6.122   8.642   9.728
 2272WAT     H2 7059   6.164   8.687   9.879
 2273WAT      O 7060   3.013   7.620   1.628
 2273WAT     H1 7061   2.991   7.575   1.715
 2273WAT     H2 7062   2.950   7.696   1.614
 2274WAT      O 7063   5.638   8.637   8.035
 2274WAT     H1 7064   5.696   8.717   8.025
 2274WAT     H2 7065   5.547   8.656   7.997
 2275WAT      O 7066   6.430   3.045   2.933
 2275WAT     H1 7067   6.474   3.061   2.845
 2275WAT     H2 7068   6.477   3.097   3.004
 2276WAT      O 7069   3.710   1.582   7.586
 2276WAT     H1 7070   3.681   1.589   7.682
 2276WAT     H2 7071   3.736   1.672   7.552
 2277WAT      O 7072   1.982   0.094   8.873
 2277WAT     H1 7073   1.889   0.094   8.837
 2277WAT     H2 7074   2.044   0.054   8.806
 2278WAT      O 7075   7.175   3.973   6.221
 2278WAT     H1 7076   7.222   3.909   6.281
 2278WAT     H2 7077   7.099   4.016   6.270
 2279WAT      O 7078   4.468   8.628   2.854
 2279WAT     H1 7079   4.510   8.611   2.943
 2279WAT     H2 7080   4.516   8.703   2.808
 2280WAT      O 7081   7.053   7.609   7.369
 2280WAT     H1 7082   7.035   7.573   7.461
 2280WAT     H2 7083   6.972   7.594   7.312
 2281WAT      O 7084   0.147   5.291   3.702
 2281WAT     H1 7085   0.071   5.322   3.759
 2281WAT     H2 7086   0.233   5.316   3.746
 2282WAT      O 7087   5.946   3.565   6.665
 2282WAT     H1 7088   5.977   3.550   6.571
 2282WAT     H2 7089   5.996   3.505   6.727
 2283WAT      O 7090   0.230   7.442   9.362
 2283WAT     H1 7091   0.216   7.426   9.265
 2283WAT     H2 7092   0.220   7.540   9.382
 2284WAT      O 7093   2.637   4.988   0.373
 2284WAT     H1 7094   2.560   4.936   0.337
 2284WAT     H2 7095   2.715   4.927   0.389
 2285WAT      O 7096   7.863   8.508   3.677
 2285WAT     H1 7097   7.878   8.436   3.744
 2285WAT     H2 7098   7.867   8.470   3.584
 2286WAT      O 7099   5.966   4.912   1.085
 2286WAT     H1 7100   6.052   4.903   1.035
 2286WAT     H2 7101   5.924   5.000   1.064
 2287WAT      O 7102   7.579   8.839   3.728
 2287WAT     H1 7103   7.661   8.888   3.759
 2287WAT     H2 7104   7.521   8.901   3.677
 2288WAT      O 7105   3.979   5.650   6.306
 2288WAT     H1 7106   3.953   5.747   6.309
 2288WAT     H2 7107   3.919   5.601   6.243
 2289WAT      O 7108   7.556   0.161   1.672
 2289WAT     H1 7109   7.552   0.076   1.618
 2289WAT     H2 7110   7.641   0.164   1.724
 2290WAT      O 7111   3.739   7.560   9.243
 2290WAT     H1 7112   3.805   7.505   9.296
 2290WAT     H2 7113   3.715   7.642   9.295
 2291WAT      O 7114   8.296   0.270   4.526
 2291WAT     H1 7115   8.392   0.244   4.530
 2291WAT     H2 7116   8.258   0.269   4.619
 2292WAT      O 7117   1.173   1.391   8.811
 2292WAT     H1 7118   1.224   1.358   8.890
 2292WAT     H2 7119   1.233   1.448   8.754
 2293WAT      O 7120   9.194   6.768   2.402
 2293WAT     H1 7121   9.197   6.684   2.347
 2293WAT     H2 7122   9.245   6.754   2.487
 2294WAT      O 7123   7.885   4.187   4.705
 2294WAT     H1 7124   7.838   4.261   4.752
 2294WAT     H2 7125   7.865   4.100   4.750
 2295WAT      O 7126   2.576   1.048   1.672
 2295WAT     H1 7127   2.503   1.012   1.614
 2295WAT     H2 7128   2.594   1.143   1.648
 2296WAT      O 7129   3.079   6.359   3.460
 2296WAT     H1 7130   3.127   6.443   3.438
 2296WAT     H2 7131   3.071   6.349   3.560
 2297WAT      O 7132   9.593   8.187   0.133
 2297WAT     H1 7133   9.557   8.175   0.040
 2297WAT     H2 7134   9.579   8.282   0.162
 2298WAT      O 7135   3.828   4.759   3.171
 2298WAT     H1 7136   3.788   4.839   3.126
 2298WAT     H2 7137   3.890   4.789   3.243
 2299WAT      O 7138   6.270   6.178   7.125
 2299WAT     H1 7139   6.362   6.177   7.164
 2299WAT     H2 7140   6.258   6.098   7.066
 2300WAT      O 7141   9.453   4.381   7.902
 2300WAT     H1 7142   9.429   4.331   7.985
 2300WAT     H2 7143   9.406   4.469   7.902
 2301WAT      O 7144   3.849   7.896   8.166
 2301WAT     H1 7145   3.834   7.977   8.222
 2301WAT     H2 7146   3.761   7.852   8.145
 2302WAT      O 7147   5.879   9.822   5.800
 2302WAT     H1 7148   5.979   9.830   5.805
 2302WAT     H2 7149   5.844   9.889   5.735
 2303WAT      O 7150   9.800   2.301   9.687
 2303WAT     H1 7151   9.704   2.275   9.680
 2303WAT     H2 7152   9.811   2.368   9.761
 2304WAT      O 7153   0.547   6.347   6.146
 2304WAT     H1 7154   0.449   6.348   6.126
 2304WAT     H2 7155   0.578   6.252   6.153
 2305WAT      O 7156   2.513   7.127   9.859
 2305WAT     H1 7157   2.501   7.113   9.761
 2305WAT     H2 7158   2.557   7.215   9.875
 2306WAT      O 7159   9.754   4.597   0.478
 2306WAT     H1 7160   9.788   4.595   0.384
 2306WAT     H2 7161   9.669   4.649   0.482
 2307WAT      O 7162   0.726   4.357   2.529
 2307WAT     H1 7163   0.737   4.443   2.578
 2307WAT     H2 7164   0.642   4.312   2.558
 2308WAT      O 7165   1.186   1.475   6.860
 2308WAT     H1 7166   1.184   1.521   6.772
 2308WAT     H2 7167   1.170   1.377   6.847
 2309WAT      O 7168   6.162   0.687   8.647
 2309WAT     H1 7169   6.095   0.712   8.717
 2309WAT     H2 7170   6.205   0.769   8.611
 2310WAT      O 7171   7.161   7.797   6.772
 2310WAT     H1 7172   7.202   7.846   6.696
 2310WAT     H2 7173   7.232   7.773   6.839
 2311WAT      O 7174   5.422   0.196   8.998
 2311WAT     H1 7175   5.421   0.294   9.016
 2311WAT     H2 7176   5.510   0.158   9.026
 2312WAT      O 7177   2.540   7.463   6.545
 2312WAT     H1 7178   2.466   7.404   6.512
 2312WAT     H2 7179   2.519   7.494   6.637
 2313WAT      O 7180   4.360   9.219   4.324
 2313WAT     H1 7181   4.261   9.207   4.314
 2313WAT     H2 7182   4.405   9.197   4.238
 2314WAT      O 7183   9.796   4.644   1.143
 2314WAT     H1 7184   9.716   4.652   1.203
 2314WAT     H2 7185   9.874   4.688   1.186
 2315WAT      O 7186   4.030   1.822   9.319
 2315WAT     H1 7187   4.066   1.762   9.248
 2315WAT     H2 7188   3.931   1.810   9.327
 2316WAT      O 7189   5.772   9.732   1.297
 2316WAT     H1 7190   5.795   9.710   1.202
 2316WAT     H2 7191   5.673   9.742   1.306
 2317WAT      O 7192   8.103   4.444   7.446
 2317WAT     H1 7193   8.144   4.356   7.469
 2317WAT     H2 7194   8.059   4.483   7.526
 2318WAT      O 7195   7.670   1.027   8.400
 2318WAT     H1 7196   7.716   1.072   8.322
 2318WAT     H2 7197   7.722   1.045   8.483
 2319WAT      O 7198   5.735   8.769   6.435
 2319WAT     H1 7199   5.732   8.679   6.477
 2319WAT     H2 7200   5.677   8.770   6.353
 2320WAT      O 7201   1.306   0.265   9.213
 2320WAT     H1 7202   1.374   0.337   9.227
 2320WAT     H2 7203   1.291   0.252   9.115
 2321WAT      O 7204   9.102   3.510   7.300
 2321WAT     H1 7205   9.167   3.454   7.248
 2321WAT     H2 7206   9.013   3.466   7.300
 2322WAT      O 7207   5.643   3.519   0.271
 2322WAT     H1 7208   5.690   3.487   0.188
 2322WAT     H2 7209   5.591   3.602   0.249
 2323WAT      O 7210   8.400   5.221   1.300
 2323WAT     H1 7211   8.439   5.245   1.212
 2323WAT     H2 7212   8.388   5.121   1.305
 2324WAT      O 7213   5.316   2.953   0.286
 2324WAT     H1 7214   5.261   3.036   0.278
 2324WAT     H2 7215   5.369   2.956   0.371
 2325WAT      O 7216   7.992   4.320   1.628
 2325WAT     H1 7217   8.002   4.326   1.529
 2325WAT     H2 7218   8.035   4.236   1.662
 2326WAT      O 7219   9.463   3.555   8.361
 2326WAT     H1 7220   9.411   3.617   8.301
 2326WAT     H2 7221   9.553   3.539   8.320
 2327WAT      O 7222   4.585   2.196   9.103
 2327WAT     H1 7223   4.566   2.100   9.082
 2327WAT     H2 7224   4.683   2.213   9.096
 2328WAT      O 7225   8.243   9.321   8.184
 2328WAT     H1 7226   8.170   9.331   8.117
 2328WAT     H2 7227   8.296   9.238   8.165
 2329WAT      O 7228   1.323   7.038   6.009
 2329WAT     H1 7229   1.374   6.961   5.969
 2329WAT     H2 7230   1.387   7.103   6.050
 2330WAT      O 7231   4.313   9.043   5.509
 2330WAT     H1 7232   4.349   9.135   5.521
 2330WAT     H2 7233   4.388   8.977   5.509
 2331WAT      O 7234   1.666   6.421   9.659
 2331WAT     H1 7235   1.633   6.513   9.676
 2331WAT     H2 7236   1.589   6.356   9.666
 2332WAT      O 7237   7.063   1.847   1.213
 2332WAT     H1 7238   7.148   1.882   1.173
 2332WAT     H2 7239   7.080   1.757   1.254
 2333WAT      O 7240   3.030   0.529   9.529
 2333WAT     H1 7241   3.002   0.457   9.593
 2333WAT     H2 7242   3.113   0.574   9.563
 2334WAT      O 7243   3.329   5.958   0.331
 2334WAT     H1 7244   3.253   6.021   0.342
 2334WAT     H2 7245   3.295   5.864   0.331
 2335WAT      O 7246   3.481   7.474   8.878
 2335WAT     H1 7247   3.545   7.550   8.890
 2335WAT     H2 7248   3.395   7.495   8.925
 2336WAT      O 7249   6.311   5.969   8.748
 2336WAT     H1 7250   6.384   5.991   8.682
 2336WAT     H2 7251   6.224   5.961   8.699
 2337WAT      O 7252   2.412   8.360   9.445
 2337WAT     H1 7253   2.418   8.304   9.363
 2337WAT     H2 7254   2.327   8.340   9.494
 2338WAT      O 7255   4.208   9.206   7.941
 2338WAT     H1 7256   4.215   9.132   8.009
 2338WAT     H2 7257   4.256   9.180   7.858
 2339WAT      O 7258   6.386   4.454   7.435
 2339WAT     H1 7259   6.429   4.534   7.393
 2339WAT     H2 7260   6.340   4.401   7.363
 2340WAT      O 7261   7.360   9.231   6.016
 2340WAT     H1 7262   7.267   9.218   5.983
 2340WAT     H2 7263   7.366   9.315   6.070
 2341WAT      O 7264   3.280   5.849   1.467
 2341WAT     H1 7265   3.306   5.946   1.465
 2341WAT     H2 7266   3.220   5.833   1.545
 2342WAT      O 7267   6.128   3.426   8.154
 2342WAT     H1 7268   6.039   3.409   8.112
 2342WAT     H2 7269   6.128   3.516   8.198
 2343WAT      O 7270   6.425   6.323   1.317
 2343WAT     H1 7271   6.375   6.277   1.244
 2343WAT     H2 7272   6.491   6.260   1.358
 2344WAT      O 7273   6.284   2.418   6.939
 2344WAT     H1 7274   6.382   2.438   6.942
 2344WAT     H2 7275   6.243   2.465   6.860
 2345WAT      O 7276   1.893   6.786   0.740
 2345WAT     H1 7277   1.923   6.718   0.674
 2345WAT     H2 7278   1.808   6.755   0.783
 2346WAT      O 7279   4.817   0.944   0.386
 2346WAT     H1 7280   4.897   0.889   0.411
 2346WAT     H2 7281   4.817   0.960   0.288
 2347WAT      O 7282   2.320   5.478   3.368
 2347WAT     H1 7283   2.361   5.548   3.308
 2347WAT     H2 7284   2.382   5.400   3.375
 2348WAT      O 7285   3.133   4.714   0.440
 2348WAT     H1 7286   3.180   4.794   0.404
 2348WAT     H2 7287   3.119   4.725   0.539
 2349WAT      O 7288   1.607   0.961   6.018
 2349WAT     H1 7289   1.665   1.038   5.991
 2349WAT     H2 7290   1.642   0.921   6.102
 2350WAT      O 7291   8.516   5.452   0.339
 2350WAT     H1 7292   8.552   5.483   0.251
 2350WAT     H2 7293   8.487   5.356   0.332
 2351WAT      O 7294   0.768   3.442   2.055
 2351WAT     H1 7295   0.762   3.427   1.957
 2351WAT     H2 7296   0.783   3.354   2.101
 2352WAT      O 7297   7.104   8.338   4.331
 2352WAT     H1 7298   7.104   8.361   4.234
 2352WAT     H2 7299   7.198   8.333   4.365
 2353WAT      O 7300   2.836   1.571   9.062
 2353WAT     H1 7301   2.773   1.506   9.018
 2353WAT     H2 7302   2.840   1.655   9.008
 2354WAT      O 7303   5.362   4.199   7.198
 2354WAT     H1 7304   5.284   4.245   7.241
 2354WAT     H2 7305   5.447   4.246   7.223
 2355WAT      O 7306   1.232   4.254   6.155
 2355WAT     H1 7307   1.292   4.314   6.101
 2355WAT     H2 7308   1.237   4.280   6.251
 2356WAT      O 7309   4.348   4.245   8.410
 2356WAT     H1 7310   4.349   4.205   8.501
 2356WAT     H2 7311   4.381   4.339   8.415
 2357WAT      O 7312   4.887   4.920   8.746
 2357WAT     H1 7313   4.949   4.851   8.708
 2357WAT     H2 7314   4.794   4.882   8.751
 2358WAT      O 7315   6.076   5.478   5.735
 2358WAT     H1 7316   6.090   5.451   5.639
 2358WAT     H2 7317   6.154   5.533   5.765
 2359WAT      O 7318   3.723   0.500   0.438
 2359WAT     H1 7319   3.715   0.446   0.522
 2359WAT     H2 7320   3.638   0.550   0.421
 2360WAT      O 7321   1.766   4.267   2.842
 2360WAT     H1 7322   1.705   4.211   2.786
 2360WAT     H2 7323   1.810   4.336   2.784
 2361WAT      O 7324   9.298   0.292   8.914
 2361WAT     H1 7325   9.259   0.205   8.943
 2361WAT     H2 7326   9.250   0.367   8.959
 2362WAT      O 7327   0.060   5.045   1.750
 2362WAT     H1 7328   0.038   5.061   1.654
 2362WAT     H2 7329   0.150   5.086   1.770
 2363WAT      O 7330   7.223   2.631   1.495
 2363WAT     H1 7331   7.199   2.665   1.404
 2363WAT     H2 7332   7.140   2.613   1.547
 2364WAT      O 7333   2.026   7.219   4.896
 2364WAT     H1 7334   2.045   7.284   4.969
 2364WAT     H2 7335   2.008   7.268   4.811
 2365WAT      O 7336   0.293   7.675   6.806
 2365WAT     H1 7337   0.228   7.747   6.828
 2365WAT     H2 7338   0.244   7.590   6.788
 2366WAT      O 7339   6.079   4.787   0.150
 2366WAT     H1 7340   6.113   4.764   0.241
 2366WAT     H2 7341   5.981   4.806   0.155
 2367WAT      O 7342   6.361   3.892   4.733
 2367WAT     H1 7343   6.313   3.845   4.659
 2367WAT     H2 7344   6.333   3.988   4.735
 2368WAT      O 7345   0.259   8.224   9.166
 2368WAT     H1 7346   0.317   8.225   9.085
 2368WAT     H2 7347   0.315   8.228   9.248
 2369WAT      O 7348   8.339   8.476   2.183
 2369WAT     H1 7349   8.268   8.531   2.138
 2369WAT     H2 7350   8.428   8.518   2.168
 2370WAT      O 7351   4.422   2.052   5.153
 2370WAT     H1 7352   4.378   2.019   5.070
 2370WAT     H2 7353   4.521   2.050   5.142
 2371WAT      O 7354   6.308   8.504   4.118
 2371WAT     H1 7355   6.323   8.453   4.202
 2371WAT     H2 7356   6.261   8.446   4.052
 2372WAT      O 7357   9.441   8.301   2.375
 2372WAT     H1 7358   9.366   8.308   2.309
 2372WAT     H2 7359   9.462   8.392   2.411
 2373WAT      O 7360   5.521   8.039   8.776
 2373WAT     H1 7361   5.520   8.101   8.697
 2373WAT     H2 7362   5.432   8.042   8.822
 2374WAT      O 7363   4.557   2.124   3.007
 2374WAT     H1 7364   4.473   2.176   2.991
 2374WAT     H2 7365   4.631   2.188   3.031
 2375WAT      O 7366   6.109   5.726   0.203
 2375WAT     H1 7367   6.079   5.816   0.171
 2375WAT     H2 7368   6.081   5.714   0.299
 2376WAT      O 7369   9.267   5.099   7.719
 2376WAT     H1 7370   9.331   5.024   7.734
 2376WAT     H2 7371   9.253   5.112   7.621
 2377WAT      O 7372   3.982   8.101   0.483
 2377WAT     H1 7373   3.896   8.123   0.528
 2377WAT     H2 7374   3.976   8.121   0.386
 2378WAT      O 7375   8.463   2.391   3.106
 2378WAT     H1 7376   8.525   2.397   3.185
 2378WAT     H2 7377   8.515   2.364   3.025
 2379WAT      O 7378   5.940   3.298   0.829
 2379WAT     H1 7379   5.845   3.269   0.822
 2379WAT     H2 7380   5.970   3.336   0.742
 2380WAT      O 7381   3.619   4.796   2.067
 2380WAT     H1 7382   3.645   4.723   2.130
 2380WAT     H2 7383   3.570   4.867   2.117
 2381WAT      O 7384   4.927   7.024   2.029
 2381WAT     H1 7385   4.951   6.931   2.059
 2381WAT     H2 7386   4.849   7.057   2.083
 2382WAT      O 7387   6.231   5.034   8.505
 2382WAT     H1 7388   6.263   5.004   8.595
 2382WAT     H2 7389   6.255   4.965   8.437
 2383WAT      O 7390   6.425   3.957   5.123
 2383WAT     H1 7391   6.444   4.021   5.048
 2383WAT     H2 7392   6.336   3.980   5.165
 2384WAT      O 7393   7.780   3.474   7.367
 2384WAT     H1 7394   7.774   3.469   7.467
 2384WAT     H2 7395   7.856   3.533   7.340
 2385WAT      O 7396   1.685   5.565   8.248
 2385WAT     H1 7397   1.688   5.517   8.161
 2385WAT     H2 7398   1.623   5.644   8.241
 2386WAT      O 7399   9.548   3.729   1.659
 2386WAT     H1 7400   9.493   3.647   1.646
 2386WAT     H2 7401   9.491   3.810   1.646
 2387WAT      O 7402   4.618   5.995   4.414
 2387WAT     H1 7403   4.651   5.950   4.497
 2387WAT     H2 7404   4.524   6.026   4.428
 2388WAT      O 7405   9.231   8.631   1.862
 2388WAT     H1 7406   9.202   8.604   1.954
 2388WAT     H2 7407   9.248   8.729   1.860
 2389WAT      O 7408   8.278   9.388   1.814
 2389WAT     H1 7409   8.321   9.433   1.892
 2389WAT     H2 7410   8.264   9.291   1.834
 2390WAT      O 7411   5.934   4.168   4.739
 2390WAT     H1 7412   5.890   4.239   4.685
 2390WAT     H2 7413   6.033   4.183   4.741
 2391WAT      O 7414   2.295   5.259   8.151
 2391WAT     H1 7415   2.271   5.273   8.247
 2391WAT     H2 7416   2.383   5.303   8.132
 2392WAT      O 7417   6.112   2.015   2.634
 2392WAT     H1 7418   6.145   2.035   2.726
 2392WAT     H2 7419   6.143   2.088   2.572
 2393WAT      O 7420   9.342   1.589   6.762
 2393WAT     H1 7421   9.261   1.555   6.715
 2393WAT     H2 7422   9.370   1.522   6.832
 2394WAT      O 7423   2.165   8.288   5.254
 2394WAT     H1 7424   2.115   8.364   5.211
 2394WAT     H2 7425   2.221   8.324   5.329
 2395WAT      O 7426   0.730   5.974   6.597
 2395WAT     H1 7427   0.681   5.892   6.627
 2395WAT     H2 7428   0.666   6.049   6.583
 2396WAT      O 7429   3.293   9.007   5.272
 2396WAT     H1 7430   3.312   9.087   5.329
 2396WAT     H2 7431   3.241   9.036   5.191
 2397WAT      O 7432   6.192   1.729   5.287
 2397WAT     H1 7433   6.189   1.826   5.311
 2397WAT     H2 7434   6.135   1.712   5.206
 2398WAT      O 7435   4.177   8.782   5.258
 2398WAT     H1 7436   4.260   8.735   5.289
 2398WAT     H2 7437   4.147   8.846   5.328
 2399WAT      O 7438   9.527   7.727   6.683
 2399WAT     H1 7439   9.454   7.759   6.622
 2399WAT     H2 7440   9.514   7.766   6.774
 2400WAT      O 7441   0.075   4.050   6.507
 2400WAT     H1 7442   0.010   4.085   6.439
 2400WAT     H2 7443   0.143   4.121   6.527
 2401WAT      O 7444   3.437   8.680   1.788
 2401WAT     H1 7445   3.425   8.779   1.799
 2401WAT     H2 7446   3.356   8.642   1.741
 2402WAT      O 7447   8.531   6.685   7.814
 2402WAT     H1 7448   8.597   6.613   7.793
 2402WAT     H2 7449   8.472   6.657   7.889
 2403WAT      O 7450   6.021   3.683   2.298
 2403WAT     H1 7451   6.011   3.732   2.211
 2403WAT     H2 7452   5.989   3.741   2.372
 2404WAT      O 7453   1.790   9.555   7.191
 2404WAT     H1 7454   1.752   9.641   7.157
 2404WAT     H2 7455   1.888   9.552   7.173
 2405WAT      O 7456   7.068   0.265   0.114
 2405WAT     H1 7457   7.120   0.243   0.031
 2405WAT     H2 7458   7.061   0.183   0.171
 2406WAT      O 7459   4.425   3.600   1.767
 2406WAT     H1 7460   4.433   3.538   1.846
 2406WAT     H2 7461   4.362   3.560   1.700
 2407WAT      O 7462   8.453   3.111   9.063
 2407WAT     H1 7463   8.428   3.047   9.136
 2407WAT     H2 7464   8.425   3.074   8.975
 2408WAT      O 7465   6.805   8.418   4.812
 2408WAT     H1 7466   6.742   8.446   4.739
 2408WAT     H2 7467   6.756   8.413   4.899
 2409WAT      O 7468   4.300   3.929   1.328
 2409WAT     H1 7469   4.319   3.836   1.357
 2409WAT     H2 7470   4.363   3.992   1.373
 2410WAT      O 7471   5.582   0.559   4.063
 2410WAT     H1 7472   5.484   0.571   4.073
 2410WAT     H2 7473   5.622   0.642   4.023
 2411WAT      O 7474   0.180   9.478   3.639
 2411WAT     H1 7475   0.172   9.432   3.551
 2411WAT     H2 7476   0.224   9.418   3.705
 2412WAT      O 7477   5.421   0.452   8.706
 2412WAT     H1 7478   5.350   0.385   8.688
 2412WAT     H2 7479   5.504   0.428   8.655
 2413WAT      O 7480   6.119   9.329   3.024
 2413WAT     H1 7481   6.033   9.323   2.974
 2413WAT     H2 7482   6.134   9.423   3.055
 2414WAT      O 7483   4.251   9.316   5.857
 2414WAT     H1 7484   4.323   9.247   5.863
 2414WAT     H2 7485   4.172   9.278   5.810
 2415WAT      O 7486   9.673   6.692   6.639
 2415WAT     H1 7487   9.768   6.694   6.610
 2415WAT     H2 7488   9.613   6.703   6.560
 2416WAT      O 7489   5.078   3.804   1.461
 2416WAT     H1 7490   4.980   3.785   1.470
 2416WAT     H2 7491   5.120   3.734   1.403
 2417WAT      O 7492   3.980   0.933   5.220
 2417WAT     H1 7493   4.059   0.871   5.221
 2417WAT     H2 7494   3.896   0.880   5.226
 2418WAT      O 7495   7.382   2.368   1.572
 2418WAT     H1 7496   7.404   2.445   1.513
 2418WAT     H2 7497   7.293   2.330   1.546
 2419WAT      O 7498   9.438   3.389   8.011
 2419WAT     H1 7499   9.359   3.428   7.965
 2419WAT     H2 7500   9.408   3.342   8.095
 2420WAT      O 7501   5.570   7.072   2.651
 2420WAT     H1 7502   5.476   7.103   2.666
 2420WAT     H2 7503   5.631   7.118   2.715
 2421WAT      O 7504   2.623   4.382   8.890
 2421WAT     H1 7505   2.679   4.373   8.972
 2421WAT     H2 7506   2.682   4.399   8.811
 2422WAT      O 7507   7.234   8.922   1.337
 2422WAT     H1 7508   7.143   8.881   1.346
 2422WAT     H2 7509   7.256   8.932   1.240
 2423WAT      O 7510   4.359   5.331   8.255
 2423WAT     H1 7511   4.344   5.350   8.352
 2423WAT     H2 7512   4.386   5.235   8.243
 2424WAT      O 7513   4.961   9.055   4.754
 2424WAT     H1 7514   4.982   9.021   4.663
 2424WAT     H2 7515   4.964   8.980   4.820
 2425WAT      O 7516   0.527   6.802   4.279
 2425WAT     H1 7517   0.458   6.766   4.216
 2425WAT     H2 7518   0.616   6.762   4.258
 2426WAT      O 7519   1.768   8.948   2.989
 2426WAT     H1 7520   1.744   9.045   2.994
 2426WAT     H2 7521   1.786   8.914   3.081
 2427WAT      O 7522   0.096   4.778   3.393
 2427WAT     H1 7523   0.013   4.770   3.449
 2427WAT     H2 7524   0.171   4.729   3.439
 2428WAT      O 7525   9.687   4.555   3.899
 2428WAT     H1 7526   9.734   4.509   3.824
 2428WAT     H2 7527   9.661   4.647   3.871
 2429WAT      O 7528   5.605   3.134   0.921
 2429WAT     H1 7529   5.639   3.184   0.999
 2429WAT     H2 7530   5.641   3.040   0.922
 2430WAT      O 7531   1.192   0.040   4.457
 2430WAT     H1 7532   1.133  -0.021   4.404
 2430WAT     H2 7533   1.178   0.134   4.426
 2431WAT      O 7534   9.221   8.844   6.723
 2431WAT     H1 7535   9.138   8.837   6.668
 2431WAT     H2 7536   9.203   8.809   6.815
 2432WAT      O 7537   1.740   7.780   5.396
 2432WAT     H1 7538   1.726   7.864   5.449
 2432WAT     H2 7539   1.657   7.725   5.397
 2433WAT      O 7540   6.949   5.901   5.942
 2433WAT     H1 7541   6.923   5.995   5.961
 2433WAT     H2 7542   7.048   5.895   5.929
 2434WAT      O 7543   2.082   2.858   6.649
 2434WAT     H1 7544   2.058   2.923   6.577
 2434WAT     H2 7545   2.163   2.891   6.698
 2435WAT      O 7546   2.216   3.713   4.392
 2435WAT     H1 7547   2.298   3.656   4.398
 2435WAT     H2 7548   2.180   3.708   4.298
 2436WAT      O 7549   4.045   1.305   2.657
 2436WAT     H1 7550   4.125   1.252   2.629
 2436WAT     H2 7551   3.970   1.288   2.593
 2437WAT      O 7552   0.845   0.489   1.798
 2437WAT     H1 7553   0.761   0.543   1.807
 2437WAT     H2 7554   0.916   0.528   1.856
 2438WAT      O 7555   0.403   0.384   0.775
 2438WAT     H1 7556   0.368   0.294   0.752
 2438WAT     H2 7557   0.465   0.377   0.854
 2439WAT      O 7558   7.532   5.613   6.669
 2439WAT     H1 7559   7.438   5.644   6.680
 2439WAT     H2 7560   7.534   5.535   6.606
 2440WAT      O 7561   7.165   0.533   6.019
 2440WAT     H1 7562   7.136   0.525   5.924
 2440WAT     H2 7563   7.245   0.593   6.025
 2441WAT      O 7564   9.449   2.573   2.388
 2441WAT     H1 7565   9.456   2.474   2.382
 2441WAT     H2 7566   9.540   2.614   2.379
 2442WAT      O 7567   9.583   7.470   5.648
 2442WAT     H1 7568   9.493   7.431   5.626
 2442WAT     H2 7569   9.632   7.492   5.564
 2443WAT      O 7570   1.611   5.867   3.977
 2443WAT     H1 7571   1.584   5.834   4.067
 2443WAT     H2 7572   1.635   5.790   3.918
 2444WAT      O 7573   4.549   9.644   3.142
 2444WAT     H1 7574   4.577   9.587   3.065
 2444WAT     H2 7575   4.521   9.734   3.109
 2445WAT      O 7576   8.821   3.711   0.489
 2445WAT     H1 7577   8.905   3.698   0.437
 2445WAT     H2 7578   8.808   3.635   0.552
 2446WAT      O 7579   9.658   7.094   3.496
 2446WAT     H1 7580   9.741   7.140   3.465
 2446WAT     H2 7581   9.642   7.116   3.592
 2447WAT      O 7582   1.922   7.074   3.581
 2447WAT     H1 7583   1.973   7.128   3.648
 2447WAT     H2 7584   1.960   7.088   3.490
 2448WAT      O 7585   9.048   3.457   8.923
 2448WAT     H1 7586   9.090   3.512   8.996
 2448WAT     H2 7587   9.098   3.371   8.913
 2449WAT      O 7588   6.365   6.400   9.604
 2449WAT     H1 7589   6.434   6.442   9.663
 2449WAT     H2 7590   6.410   6.333   9.544
 2450WAT      O 7591   9.457   2.922   1.529
 2450WAT     H1 7592   9.393   2.966   1.466
 2450WAT     H2 7593   9.426   2.938   1.623
 2451WAT      O 7594   8.483   3.267   1.245
 2451WAT     H1 7595   8.460   3.364   1.241
 2451WAT     H2 7596   8.583   3.257   1.244
 2452WAT      O 7597   3.739   4.391   1.153
 2452WAT     H1 7598   3.695   4.322   1.210
 2452WAT     H2 7599   3.671   4.432   1.093
 2453WAT      O 7600   4.243   8.448   6.787
 2453WAT     H1 7601   4.326   8.448   6.842
 2453WAT     H2 7602   4.266   8.424   6.692
 2454WAT      O 7603   6.613   1.313   5.336
 2454WAT     H1 7604   6.593   1.332   5.432
 2454WAT     H2 7605   6.543   1.356   5.279
 2455WAT      O 7606   4.607   7.412   3.415
 2455WAT     H1 7607   4.621   7.343   3.343
 2455WAT     H2 7608   4.594   7.502   3.373
 2456WAT      O 7609   3.759   0.269   3.562
 2456WAT     H1 7610   3.849   0.253   3.521
 2456WAT     H2 7611   3.690   0.216   3.512
 2457WAT      O 7612   7.375   0.960   7.065
 2457WAT     H1 7613   7.429   1.032   7.022
 2457WAT     H2 7614   7.297   0.936   7.006
 2458WAT      O 7615   8.898   7.977   9.730
 2458WAT     H1 7616   8.808   7.950   9.698
 2458WAT     H2 7617   8.891   8.012   9.824
 2459WAT      O 7618   5.587   0.182   2.021
 2459WAT     H1 7619   5.579   0.274   2.059
 2459WAT     H2 7620   5.665   0.179   1.957
 2460WAT      O 7621   0.339   9.669   8.461
 2460WAT     H1 7622   0.426   9.634   8.494
 2460WAT     H2 7623   0.327   9.644   8.365
 2461WAT      O 7624   8.401   7.469   2.395
 2461WAT     H1 7625   8.389   7.413   2.477
 2461WAT     H2 7626   8.330   7.539   2.392
 2462WAT      O 7627   3.405   2.299   2.101
 2462WAT     H1 7628   3.494   2.260   2.126
 2462WAT     H2 7629   3.416   2.394   2.073
 2463WAT      O 7630   2.966   3.023   9.036
 2463WAT     H1 7631   2.919   2.995   8.953
 2463WAT     H2 7632   3.032   3.095   9.014
 2464WAT      O 7633   3.136   7.678   1.051
 2464WAT     H1 7634   3.222   7.728   1.056
 2464WAT     H2 7635   3.064   7.739   1.017
 2465WAT      O 7636   6.666   6.452   3.588
 2465WAT     H1 7637   6.710   6.459   3.498
 2465WAT     H2 7638   6.617   6.365   3.595
 2466WAT      O 7639   8.209   9.439   3.865
 2466WAT     H1 7640   8.146   9.469   3.936
 2466WAT     H2 7641   8.163   9.371   3.807
 2467WAT      O 7642   1.039   0.485   1.580
 2467WAT     H1 7643   0.978   0.434   1.641
 2467WAT     H2 7644   1.037   0.445   1.489
 2468WAT      O 7645   5.786   9.789   9.619
 2468WAT     H1 7646   5.878   9.783   9.657
 2468WAT     H2 7647   5.745   9.698   9.616
 2469WAT      O 7648   2.982   9.683   8.923
 2469WAT     H1 7649   2.960   9.589   8.896
 2469WAT     H2 7650   2.917   9.746   8.881
 2470WAT      O 7651   6.926   1.390   9.567
 2470WAT     H1 7652   6.927   1.398   9.467
 2470WAT     H2 7653   6.922   1.294   9.592
 2471WAT      O 7654   1.493   6.095   4.056
 2471WAT     H1 7655   1.545   6.138   4.130
 2471WAT     H2 7656   1.532   6.006   4.034
 2472WAT      O 7657   3.306   8.269   8.538
 2472WAT     H1 7658   3.257   8.357   8.539
 2472WAT     H2 7659   3.257   8.204   8.480
 2473WAT      O 7660   7.033   8.006   7.766
 2473WAT     H1 7661   7.116   8.057   7.787
 2473WAT     H2 7662   6.980   7.993   7.850
 2474WAT      O 7663   9.725   5.541   9.600
 2474WAT     H1 7664   9.784   5.464   9.623
 2474WAT     H2 7665   9.747   5.573   9.507
 2475WAT      O 7666   9.401   9.324   6.996
 2475WAT     H1 7667   9.406   9.351   7.092
 2475WAT     H2 7668   9.305   9.323   6.967
 2476WAT      O 7669   2.412   3.910   9.599
 2476WAT     H1 7670   2.381   3.835   9.540
 2476WAT     H2 7671   2.480   3.964   9.551
 2477WAT      O 7672   2.258   7.900   0.811
 2477WAT     H1 7673   2.183   7.921   0.748
 2477WAT     H2 7674   2.231   7.924   0.904
 2478WAT      O 7675   0.420   1.790   3.716
 2478WAT     H1 7676   0.397   1.829   3.805
 2478WAT     H2 7677   0.463   1.700   3.728
 2479WAT      O 7678   6.155   8.179   5.464
 2479WAT     H1 7679   6.158   8.238   5.383
 2479WAT     H2 7680   6.233   8.200   5.523
 2480WAT      O 7681   2.695   8.316   7.358
 2480WAT     H1 7682   2.637   8.395   7.379
 2480WAT     H2 7683   2.790   8.338   7.380
 2481WAT      O 7684   8.453   1.213   5.619
 2481WAT     H1 7685   8.515   1.140   5.588
 2481WAT     H2 7686   8.445   1.282   5.547
 2482WAT      O 7687   3.766   8.837   6.586
 2482WAT     H1 7688   3.829   8.881   6.651
 2482WAT     H2 7689   3.778   8.877   6.496
 2483WAT      O 7690   1.410   5.158   2.805
 2483WAT     H1 7691   1.385   5.078   2.860
 2483WAT     H2 7692   1.337   5.226   2.809
 2484WAT      O 7693   7.109   7.985   7.180
 2484WAT     H1 7694   7.073   8.055   7.119
 2484WAT     H2 7695   7.037   7.956   7.243
 2485WAT      O 7696   1.651   2.196   4.503
 2485WAT     H1 7697   1.571   2.137   4.492
 2485WAT     H2 7698   1.721   2.168   4.437
 2486WAT      O 7699   0.490   0.970   6.765
 2486WAT     H1 7700   0.532   0.984   6.855
 2486WAT     H2 7701   0.512   0.878   6.733
 2487WAT      O 7702   8.338   5.603   6.690
 2487WAT     H1 7703   8.369   5.585   6.597
 2487WAT     H2 7704   8.243   5.633   6.688
 2488WAT      O 7705   9.679   0.723   1.203
 2488WAT     H1 7706   9.606   0.780   1.167
 2488WAT     H2 7707   9.760   0.779   1.220
 2489WAT      O 7708   1.184   6.912   6.789
 2489WAT     H1 7709   1.132   6.973   6.849
 2489WAT     H2 7710   1.265   6.879   6.838
 2490WAT      O 7711   7.750   1.661   2.107
 2490WAT     H1 7712   7.721   1.669   2.202
 2490WAT     H2 7713   7.808   1.581   2.096
 2491WAT      O 7714   7.178   5.583   9.743
 2491WAT     H1 7715   7.140   5.564   9.652
 2491WAT     H2 7716   7.105   5.576   9.811
 2492WAT      O 7717   1.354   8.967   2.858
 2492WAT     H1 7718   1.268   8.924   2.832
 2492WAT     H2 7719   1.429   8.903   2.843
 2493WAT      O 7720   4.706   5.892   5.894
 2493WAT     H1 7721   4.714   5.976   5.841
 2493WAT     H2 7722   4.797   5.860   5.920
 2494WAT      O 7723   0.216   5.941   7.352
 2494WAT     H1 7724   0.254   5.848   7.351
 2494WAT     H2 7725   0.289   6.007   7.337
 2495WAT      O 7726   5.484   8.947   5.226
 2495WAT     H1 7727   5.444   8.939   5.317
 2495WAT     H2 7728   5.456   8.869   5.170
 2496WAT      O 7729   6.790   3.437   4.490
 2496WAT     H1 7730   6.888   3.455   4.497
 2496WAT     H2 7731   6.739   3.517   4.521
 2497WAT      O 7732   4.904   0.167   2.828
 2497WAT     H1 7733   4.847   0.087   2.811
 2497WAT     H2 7734   4.955   0.190   2.745
 2498WAT      O 7735   1.943   7.652   5.716
 2498WAT     H1 7736   1.872   7.684   5.779
 2498WAT     H2 7737   1.976   7.728   5.661
 2499WAT      O 7738   5.803   5.484   0.021
 2499WAT     H1 7739   5.903   5.475   0.019
 2499WAT     H2 7740   5.762   5.392   0.019
 2500WAT      O 7741   4.736   5.693   3.918
 2500WAT     H1 7742   4.679   5.749   3.979
 2500WAT     H2 7743   4.829   5.687   3.955
 2501WAT      O 7744   7.522   2.485   6.913
 2501WAT     H1 7745   7.506   2.577   6.951
 2501WAT     H2 7746   7.618   2.475   6.889
 2502WAT      O 7747   1.934   7.359   8.572
 2502WAT     H1 7748   1.838   7.334   8.582
 2502WAT     H2 7749   1.944   7.458   8.581
 2503WAT      O 7750   4.009   9.311   1.057
 2503WAT     H1 7751   3.999   9.349   0.965
 2503WAT     H2 7752   3.993   9.212   1.054
 2504WAT      O 7753   6.619   9.635   0.727
 2504WAT     H1 7754   6.551   9.659   0.796
 2504WAT     H2 7755   6.597   9.546   0.688
 2505WAT      O 7756   9.377   6.005   7.819
 2505WAT     H1 7757   9.444   5.936   7.792
 2505WAT     H2 7758   9.397   6.091   7.771
 2506WAT      O 7759   8.458   7.298   8.055
 2506WAT     H1 7760   8.531   7.232   8.040
 2506WAT     H2 7761   8.399   7.302   7.975
 2507WAT      O 7762   8.130   3.716   0.894
 2507WAT     H1 7763   8.138   3.636   0.833
 2507WAT     H2 7764   8.144   3.799   0.840
 2508WAT      O 7765   7.762   2.324   2.703
 2508WAT     H1 7766   7.722   2.232   2.702
 2508WAT     H2 7767   7.744   2.366   2.792
 2509WAT      O 7768   8.177   7.517   8.733
 2509WAT     H1 7769   8.259   7.462   8.746
 2509WAT     H2 7770   8.096   7.463   8.754
 2510WAT      O 7771   0.551   3.324   3.716
 2510WAT     H1 7772   0.619   3.272   3.664
 2510WAT     H2 7773   0.581   3.332   3.811
 2511WAT      O 7774   1.343   7.650   7.160
 2511WAT     H1 7775   1.326   7.655   7.258
 2511WAT     H2 7776   1.423   7.706   7.137
 2512WAT      O 7777   3.186   4.882   2.826
 2512WAT     H1 7778   3.104   4.870   2.770
 2512WAT     H2 7779   3.257   4.818   2.795
 2513WAT      O 7780   1.925   9.283   5.608
 2513WAT     H1 7781   1.891   9.214   5.544
 2513WAT     H2 7782   2.022   9.299   5.592
 2514WAT      O 7783   6.220   8.794   6.035
 2514WAT     H1 7784   6.176   8.883   6.029
 2514WAT     H2 7785   6.298   8.799   6.098
 2515WAT      O 7786   2.584   5.415   5.047
 2515WAT     H1 7787   2.560   5.447   5.139
 2515WAT     H2 7788   2.648   5.338   5.055
 2516WAT      O 7789   3.209   2.055   8.770
 2516WAT     H1 7790   3.186   2.105   8.853
 2516WAT     H2 7791   3.129   2.003   8.739
 2517WAT      O 7792   1.154   6.547   5.035
 2517WAT     H1 7793   1.116   6.525   4.945
 2517WAT     H2 7794   1.200   6.636   5.031
 2518WAT      O 7795   1.706   1.993   1.505
 2518WAT     H1 7796   1.689   1.930   1.581
 2518WAT     H2 7797   1.772   1.953   1.442
 2519WAT      O 7798   2.661   0.745   4.846
 2519WAT     H1 7799   2.649   0.749   4.945
 2519WAT     H2 7800   2.581   0.704   4.803
 2520WAT      O 7801   3.882   5.707   9.388
 2520WAT     H1 7802   3.828   5.645   9.445
 2520WAT     H2 7803   3.976   5.674   9.382
 2521WAT      O 7804   5.165   7.303   0.332
 2521WAT     H1 7805   5.165   7.396   0.370
 2521WAT     H2 7806   5.080   7.257   0.356
 2522WAT      O 7807   7.514   5.858   4.009
 2522WAT     H1 7808   7.425   5.859   3.965
 2522WAT     H2 7809   7.560   5.772   3.989
 2523WAT      O 7810   1.127   8.332   9.814
 2523WAT     H1 7811   1.099   8.244   9.853
 2523WAT     H2 7812   1.227   8.336   9.809
 2524WAT      O 7813   3.949   3.220   1.940
 2524WAT     H1 7814   3.945   3.287   2.015
 2524WAT     H2 7815   3.920   3.264   1.855
 2525WAT      O 7816   4.233   8.378   2.297
 2525WAT     H1 7817   4.228   8.477   2.288
 2525WAT     H2 7818   4.231   8.354   2.394
 2526WAT      O 7819   8.447   7.219   5.504
 2526WAT     H1 7820   8.537   7.187   5.475
 2526WAT     H2 7821   8.423   7.176   5.591
 2527WAT      O 7822   2.989   9.506   5.410
 2527WAT     H1 7823   3.070   9.498   5.467
 2527WAT     H2 7824   2.988   9.432   5.343
 2528WAT      O 7825   8.695   4.672   5.664
 2528WAT     H1 7826   8.757   4.706   5.593
 2528WAT     H2 7827   8.636   4.602   5.625
 2529WAT      O 7828   2.358   1.498   9.798
 2529WAT     H1 7829   2.386   1.435   9.871
 2529WAT     H2 7830   2.407   1.585   9.809
 2530WAT      O 7831   2.682   4.270   8.008
 2530WAT     H1 7832   2.760   4.315   8.050
 2530WAT     H2 7833   2.688   4.171   8.024
 2531WAT      O 7834   1.428   6.572   5.443
 2531WAT     H1 7835   1.476   6.548   5.528
 2531WAT     H2 7836   1.450   6.505   5.372
 2532WAT      O 7837   3.215   1.934   3.417
 2532WAT     H1 7838   3.262   2.022   3.410
 2532WAT     H2 7839   3.263   1.865   3.361
 2533WAT      O 7840   2.288   5.150   9.169
 2533WAT     H1 7841   2.292   5.187   9.262
 2533WAT     H2 7842   2.251   5.057   9.173
 2534WAT      O 7843   1.909   6.490   0.895
 2534WAT     H1 7844   1.816   6.462   0.872
 2534WAT     H2 7845   1.965   6.491   0.813
 2535WAT      O 7846   2.376   7.329   3.929
 2535WAT     H1 7847   2.454   7.274   3.900
 2535WAT     H2 7848   2.407   7.397   3.996
 2536WAT      O 7849   0.204   1.216   3.555
 2536WAT     H1 7850   0.194   1.310   3.522
 2536WAT     H2 7851   0.190   1.214   3.654
 2537WAT      O 7852   2.565   4.259   0.637
 2537WAT     H1 7853   2.597   4.167   0.616
 2537WAT     H2 7854   2.547   4.267   0.735
 2538WAT      O 7855   1.773   8.118   3.745
 2538WAT     H1 7856   1.747   8.022   3.739
 2538WAT     H2 7857   1.696   8.176   3.719
 2539WAT      O 7858   5.765   1.255   1.834
 2539WAT     H1 7859   5.779   1.293   1.743
 2539WAT     H2 7860   5.694   1.307   1.881
 2540WAT      O 7861   5.283   0.131   9.845
 2540WAT     H1 7862   5.356   0.115   9.911
 2540WAT     H2 7863   5.303   0.079   9.761
 2541WAT      O 7864   8.251   4.955   4.569
 2541WAT     H1 7865   8.158   4.991   4.566
 2541WAT     H2 7866   8.268   4.913   4.658
 2542WAT      O 7867   4.353   2.134   1.378
 2542WAT     H1 7868   4.379   2.222   1.418
 2542WAT     H2 7869   4.274   2.097   1.426
 2543WAT      O 7870   9.613   5.974   1.849
 2543WAT     H1 7871   9.692   5.919   1.821
 2543WAT     H2 7872   9.577   5.940   1.936
 2544WAT      O 7873   7.663   5.067   9.431
 2544WAT     H1 7874   7.586   5.104   9.484
 2544WAT     H2 7875   7.729   5.139   9.414
 2545WAT      O 7876   2.530   6.017   6.640
 2545WAT     H1 7877   2.589   6.066   6.577
 2545WAT     H2 7878   2.576   5.933   6.670
 2546WAT      O 7879   3.515   1.587   8.950
 2546WAT     H1 7880   3.430   1.578   8.898
 2546WAT     H2 7881   3.501   1.651   9.025
 2547WAT      O 7882   6.745   1.403   2.301
 2547WAT     H1 7883   6.791   1.323   2.263
 2547WAT     H2 7884   6.651   1.380   2.325
 2548WAT      O 7885   3.493   0.472   0.823
 2548WAT     H1 7886   3.414   0.421   0.789
 2548WAT     H2 7887   3.474   0.506   0.915
 2549WAT      O 7888   3.327   0.653   4.688
 2549WAT     H1 7889   3.404   0.612   4.638
 2549WAT     H2 7890   3.324   0.751   4.670
 2550WAT      O 7891   5.134   0.020   3.801
 2550WAT     H1 7892   5.178  -0.045   3.739
 2550WAT     H2 7893   5.193   0.034   3.880
 2551WAT      O 7894   1.727   8.937   9.324
 2551WAT     H1 7895   1.682   9.017   9.363
 2551WAT     H2 7896   1.787   8.896   9.392
 2552WAT      O 7897   9.013   6.524   7.968
 2552WAT     H1 7898   9.014   6.450   7.901
 2552WAT     H2 7899   9.057   6.494   8.052
 2553WAT      O 7900   6.393   2.409   4.165
 2553WAT     H1 7901   6.466   2.427   4.230
 2553WAT     H2 7902   6.320   2.475   4.177
 2554WAT      O 7903   3.388   5.055   1.830
 2554WAT     H1 7904   3.324   5.131   1.815
 2554WAT     H2 7905   3.479   5.092   1.851
 2555WAT      O 7906   1.723   5.858   3.588
 2555WAT     H1 7907   1.731   5.777   3.646
 2555WAT     H2 7908   1.672   5.929   3.637
 2556WAT      O 7909   7.404   4.854   0.261
 2556WAT     H1 7910   7.455   4.776   0.225
 2556WAT     H2 7911   7.310   4.826   0.279
 2557WAT      O 7912   4.048   2.503   3.543
 2557WAT     H1 7913   4.078   2.594   3.573
 2557WAT     H2 7914   4.054   2.439   3.619
 2558WAT      O 7915   7.095   6.485   2.974
 2558WAT     H1 7916   7.068   6.407   2.918
 2558WAT     H2 7917   7.081   6.569   2.922
 2559WAT      O 7918   0.724   1.398   1.040
 2559WAT     H1 7919   0.759   1.450   0.962
 2559WAT     H2 7920   0.633   1.362   1.019
 2560WAT      O 7921   4.079   8.668   1.134
 2560WAT     H1 7922   4.116   8.742   1.079
 2560WAT     H2 7923   4.110   8.580   1.098
 2561WAT      O 7924   7.858   2.150   5.114
 2561WAT     H1 7925   7.763   2.180   5.105
 2561WAT     H2 7926   7.912   2.187   5.039
 2562WAT      O 7927   1.740   3.329   9.552
 2562WAT     H1 7928   1.822   3.350   9.499
 2562WAT     H2 7929   1.760   3.254   9.615
 2563WAT      O 7930   5.155   5.361   7.308
 2563WAT     H1 7931   5.147   5.358   7.208
 2563WAT     H2 7932   5.168   5.455   7.338
 2564WAT      O 7933   0.406   9.382   8.651
 2564WAT     H1 7934   0.432   9.453   8.716
 2564WAT     H2 7935   0.440   9.293   8.682
 2565WAT      O 7936   9.162   1.774   6.854
 2565WAT     H1 7937   9.244   1.719   6.839
 2565WAT     H2 7938   9.139   1.774   6.951
 2566WAT      O 7939   0.698   6.454   5.078
 2566WAT     H1 7940   0.698   6.508   4.994
 2566WAT     H2 7941   0.770   6.487   5.139
 2567WAT      O 7942   8.351   4.435   5.410
 2567WAT     H1 7943   8.364   4.427   5.509
 2567WAT     H2 7944   8.421   4.495   5.372
 2568WAT      O 7945   3.218   5.119   0.821
 2568WAT     H1 7946   3.304   5.069   0.825
 2568WAT     H2 7947   3.153   5.070   0.763
 2569WAT      O 7948   2.916   0.466   7.580
 2569WAT     H1 7949   2.859   0.407   7.637
 2569WAT     H2 7950   2.952   0.541   7.635
 2570WAT      O 7951   0.577   6.811   5.819
 2570WAT     H1 7952   0.478   6.810   5.814
 2570WAT     H2 7953   0.613   6.728   5.775
 2571WAT      O 7954   2.753   9.611   9.590
 2571WAT     H1 7955   2.849   9.594   9.566
 2571WAT     H2 7956   2.708   9.524   9.609
 2572WAT      O 7957   5.138   4.743   2.540
 2572WAT     H1 7958   5.055   4.789   2.506
 2572WAT     H2 7959   5.217   4.774   2.488
 2573WAT      O 7960   8.375   0.988   7.989
 2573WAT     H1 7961   8.375   1.054   7.914
 2573WAT     H2 7962   8.385   0.895   7.952
 2574WAT      O 7963   4.043   7.623   2.805
 2574WAT     H1 7964   3.960   7.581   2.768
 2574WAT     H2 7965   4.049   7.601   2.903
 2575WAT      O 7966   8.043   0.037   3.509
 2575WAT     H1 7967   8.114   0.097   3.544
 2575WAT     H2 7968   7.986   0.005   3.585
 2576WAT      O 7969   2.723   5.494   0.900
 2576WAT     H1 7970   2.732   5.503   0.801
 2576WAT     H2 7971   2.757   5.577   0.944
 2577WAT      O 7972   5.592   5.753   6.450
 2577WAT     H1 7973   5.683   5.772   6.487
 2577WAT     H2 7974   5.525   5.752   6.525
 2578WAT      O 7975   4.918   4.181   6.952
 2578WAT     H1 7976   4.986   4.142   6.890
 2578WAT     H2 7977   4.927   4.138   7.042
 2579WAT      O 7978   4.349   4.666   2.067
 2579WAT     H1 7979   4.327   4.728   2.143
 2579WAT     H2 7980   4.320   4.708   1.981
 2580WAT      O 7981   8.927   6.937   8.023
 2580WAT     H1 7982   8.898   6.841   8.024
 2580WAT     H2 7983   8.940   6.966   7.928
 2581WAT      O 7984   8.048   6.151   2.468
 2581WAT     H1 7985   8.070   6.235   2.518
 2581WAT     H2 7986   7.961   6.163   2.421
 2582WAT      O 7987   5.534   8.636   8.298
 2582WAT     H1 7988   5.465   8.708   8.287
 2582WAT     H2 7989   5.558   8.600   8.208
 2583WAT      O 7990   4.395   4.197   4.848
 2583WAT     H1 7991   4.331   4.259   4.803
 2583WAT     H2 7992   4.487   4.213   4.812
 2584WAT      O 7993   2.824   2.909   0.824
 2584WAT     H1 7994   2.751   2.872   0.881
 2584WAT     H2 7995   2.877   2.835   0.784
 2585WAT      O 7996   3.611   7.346   9.574
 2585WAT     H1 7997   3.513   7.328   9.560
 2585WAT     H2 7998   3.622   7.410   9.650
 2586WAT      O 7999   5.999   3.598   7.894
 2586WAT     H1 8000   6.068   3.670   7.881
 2586WAT     H2 8001   5.912   3.641   7.921
 2587WAT      O 8002   8.870   7.256   9.357
 2587WAT     H1 8003   8.823   7.332   9.402
 2587WAT     H2 8004   8.962   7.284   9.331
 2588WAT      O 8005   3.599   1.733   8.576
 2588WAT     H1 8006   3.543   1.656   8.607
 2588WAT     H2 8007   3.611   1.728   8.476
 2589WAT      O 8008   8.526   8.305   7.022
 2589WAT     H1 8009   8.521   8.344   7.114
 2589WAT     H2 8010   8.543   8.378   6.956
 2590WAT      O 8011   0.561   0.713   6.728
 2590WAT     H1 8012   0.656   0.684   6.734
 2590WAT     H2 8013   0.503   0.643   6.771
 2591WAT      O 8014   4.471   6.409   8.608
 2591WAT     H1 8015   4.570   6.411   8.594
 2591WAT     H2 8016   4.427   6.375   8.525
 2592WAT      O 8017   8.000   6.760   5.656
 2592WAT     H1 8018   7.901   6.775   5.662
 2592WAT     H2 8019   8.045   6.845   5.629
 2593WAT      O 8020   2.187   3.731   2.466
 2593WAT     H1 8021   2.088   3.736   2.460
 2593WAT     H2 8022   2.225   3.713   2.376
 2594WAT      O 8023   1.775   5.102   1.360
 2594WAT     H1 8024   1.842   5.113   1.286
 2594WAT     H2 8025   1.780   5.181   1.421
 2595WAT      O 8026   4.994   2.159   6.035
 2595WAT     H1 8027   4.984   2.238   5.974
 2595WAT     H2 8028   5.047   2.186   6.116
 2596WAT      O 8029   7.181   7.456   8.871
 2596WAT     H1 8030   7.191   7.538   8.816
 2596WAT     H2 8031   7.116   7.474   8.945
 2597WAT      O 8032   3.965   0.724   5.433
 2597WAT     H1 8033   3.992   0.729   5.337
 2597WAT     H2 8034   3.870   0.696   5.439
 2598WAT      O 8035   7.466   5.215   0.835
 2598WAT     H1 8036   7.473   5.123   0.797
 2598WAT     H2 8037   7.530   5.225   0.912
 2599WAT      O 8038   4.751   1.510   5.866
 2599WAT     H1 8039   4.790   1.545   5.952
 2599WAT     H2 8040   4.745   1.411   5.870
 2600WAT      O 8041   9.749   5.567   6.120
 2600WAT     H1 8042   9.655   5.596   6.108
 2600WAT     H2 8043   9.811   5.638   6.085
 2601WAT      O 8044   8.212   2.658   2.238
 2601WAT     H1 8045   8.275   2.614   2.174
 2601WAT     H2 8046   8.249   2.747   2.264
 2602WAT      O 8047   8.626   2.525   4.181
 2602WAT     H1 8048   8.725   2.537   4.183
 2602WAT     H2 8049   8.588   2.546   4.271
 2603WAT      O 8050   8.355   2.514   2.816
 2603WAT     H1 8051   8.400   2.506   2.727
 2603WAT     H2 8052   8.390   2.445   2.878
 2604WAT      O 8053   8.988   1.727   2.881
 2604WAT     H1 8054   8.954   1.659   2.816
 2604WAT     H2 8055   9.067   1.775   2.841
 2605WAT      O 8056   2.804   2.599   8.999
 2605WAT     H1 8057   2.785   2.505   8.971
 2605WAT     H2 8058   2.730   2.659   8.970
 2606WAT      O 8059   3.085   2.428   8.552
 2606WAT     H1 8060   3.021   2.436   8.475
 2606WAT     H2 8061   3.034   2.407   8.635
 2607WAT      O 8062   9.257   8.027   6.263
 2607WAT     H1 8063   9.248   7.931   6.291
 2607WAT     H2 8064   9.211   8.041   6.175
 2608WAT      O 8065   4.915   2.575   5.275
 2608WAT     H1 8066   5.009   2.562   5.243
 2608WAT     H2 8067   4.851   2.537   5.208
 2609WAT      O 8068   4.460   1.551   7.185
 2609WAT     H1 8069   4.376   1.522   7.232
 2609WAT     H2 8070   4.436   1.587   7.095
 2610WAT      O 8071   5.911   2.279   5.033
 2610WAT     H1 8072   5.850   2.233   5.099
 2610WAT     H2 8073   5.856   2.334   4.970
 2611WAT      O 8074   5.711   6.815   7.548
 2611WAT     H1 8075   5.662   6.770   7.473
 2611WAT     H2 8076   5.719   6.752   7.625
 2612WAT      O 8077   0.490   0.307   6.241
 2612WAT     H1 8078   0.392   0.288   6.250
 2612WAT     H2 8079   0.529   0.247   6.172
 2613WAT      O 8080   7.661   3.097   7.859
 2613WAT     H1 8081   7.665   3.006   7.901
 2613WAT     H2 8082   7.626   3.163   7.925
 2614WAT      O 8083   2.108   5.490   9.022
 2614WAT     H1 8084   2.103   5.577   8.973
 2614WAT     H2 8085   2.204   5.466   9.037
 2615WAT      O 8086   1.788   4.073   3.023
 2615WAT     H1 8087   1.762   4.152   2.968
 2615WAT     H2 8088   1.715   4.005   3.021
 2616WAT      O 8089   8.025   1.059   5.289
 2616WAT     H1 8090   7.972   1.095   5.212
 2616WAT     H2 8091   8.117   1.035   5.258
 2617WAT      O 8092   7.643   2.030   3.387
 2617WAT     H1 8093   7.674   2.123   3.409
 2617WAT     H2 8094   7.543   2.026   3.395
 2618WAT      O 8095   9.165   4.509   2.462
 2618WAT     H1 8096   9.244   4.488   2.404
 2618WAT     H2 8097   9.172   4.602   2.496
 2619WAT      O 8098   4.931   7.870   5.695
 2619WAT     H1 8099   4.967   7.925   5.770
 2619WAT     H2 8100   4.949   7.773   5.714
 2620WAT      O 8101   7.845   4.430   7.972
 2620WAT     H1 8102   7.872   4.340   8.007
 2620WAT     H2 8103   7.775   4.419   7.901
 2621WAT      O 8104   4.151   1.871   1.467
 2621WAT     H1 8105   4.150   1.822   1.380
 2621WAT     H2 8106   4.058   1.879   1.503
 2622WAT      O 8107   9.784   6.949   8.016
 2622WAT     H1 8108   9.820   6.999   8.094
 2622WAT     H2 8109   9.846   6.959   7.938
 2623WAT      O 8110   2.939   5.683   4.604
 2623WAT     H1 8111   2.970   5.621   4.533
 2623WAT     H2 8112   2.840   5.676   4.615
 2624WAT      O 8113   0.279   0.490   4.412
 2624WAT     H1 8114   0.322   0.417   4.465
 2624WAT     H2 8115   0.292   0.473   4.314
 2625WAT      O 8116   6.699   7.607   7.569
 2625WAT     H1 8117   6.604   7.628   7.546
 2625WAT     H2 8118   6.745   7.690   7.600
 2626WAT      O 8119   1.984   3.079   9.746
 2626WAT     H1 8120   1.996   3.159   9.804
 2626WAT     H2 8121   1.886   3.067   9.725
 2627WAT      O 8122   2.356   6.238   0.533
 2627WAT     H1 8123   2.453   6.258   0.521
 2627WAT     H2 8124   2.302   6.317   0.503
 2628WAT      O 8125   1.775   0.901   4.943
 2628WAT     H1 8126   1.830   0.817   4.946
 2628WAT     H2 8127   1.750   0.920   4.848
 2629WAT      O 8128   2.882   0.478   8.426
 2629WAT     H1 8129   2.976   0.454   8.402
 2629WAT     H2 8130   2.835   0.398   8.461
 2630WAT      O 8131   0.680   6.601   4.849
 2630WAT     H1 8132   0.594   6.553   4.836
 2630WAT     H2 8133   0.673   6.693   4.809
 2631WAT      O 8134   3.674   3.596   8.582
 2631WAT     H1 8135   3.674   3.681   8.530
 2631WAT     H2 8136   3.589   3.587   8.632
 2632WAT      O 8137   9.336   7.985   6.608
 2632WAT     H1 8138   9.340   7.969   6.707
 2632WAT     H2 8139   9.327   8.083   6.590
 2633WAT      O 8140   8.420   2.525   2.103
 2633WAT     H1 8141   8.452   2.598   2.043
 2633WAT     H2 8142   8.498   2.482   2.149
 2634WAT      O 8143   6.305   3.945   9.252
 2634WAT     H1 8144   6.380   3.921   9.190
 2634WAT     H2 8145   6.325   3.911   9.344
 2635WAT      O 8146   4.742   0.122   2.512
 2635WAT     H1 8147   4.697   0.073   2.587
 2635WAT     H2 8148   4.837   0.090   2.504
 2636WAT      O 8149   5.662   1.947   3.939
 2636WAT     H1 8150   5.674   1.964   3.841
 2636WAT     H2 8151   5.650   2.033   3.987
 2637WAT      O 8152   0.514   8.667   2.099
 2637WAT     H1 8153   0.603   8.659   2.145
 2637WAT     H2 8154   0.451   8.716   2.158
 2638WAT      O 8155   6.412   5.162   4.679
 2638WAT     H1 8156   6.328   5.177   4.732
 2638WAT     H2 8157   6.440   5.066   4.688
 2639WAT      O 8158   9.302   7.721   3.581
 2639WAT     H1 8159   9.320   7.673   3.667
 2639WAT     H2 8160   9.362   7.801   3.574
 2640WAT      O 8161   7.837   4.891   5.326
 2640WAT     H1 8162   7.799   4.905   5.235
 2640WAT     H2 8163   7.763   4.891   5.393
 2641WAT      O 8164   3.997   5.878   2.519
 2641WAT     H1 8165   3.981   5.784   2.488
 2641WAT     H2 8166   4.077   5.880   2.579
 2642WAT      O 8167   3.420   0.381   2.987
 2642WAT     H1 8168   3.382   0.434   3.063
 2642WAT     H2 8169   3.506   0.424   2.957
 2643WAT      O 8170   4.381   4.082   0.431
 2643WAT     H1 8171   4.351   4.064   0.524
 2643WAT     H2 8172   4.468   4.131   0.433
 2644WAT      O 8173   1.570   7.647   0.465
 2644WAT     H1 8174   1.479   7.605   0.475
 2644WAT     H2 8175   1.596   7.690   0.551
 2645WAT      O 8176   5.602   2.204   3.211
 2645WAT     H1 8177   5.644   2.126   3.257
 2645WAT     H2 8178   5.618   2.198   3.113
 2646WAT      O 8179   8.841   0.793   0.232
 2646WAT     H1 8180   8.766   0.735   0.262
 2646WAT     H2 8181   8.922   0.736   0.214
 2647WAT      O 8182   6.920   5.559   6.126
 2647WAT     H1 8183   6.826   5.525   6.114
 2647WAT     H2 8184   6.977   5.486   6.166
 2648WAT      O 8185   4.780   6.676   1.191
 2648WAT     H1 8186   4.732   6.764   1.192
 2648WAT     H2 8187   4.715   6.603   1.169
 2649WAT      O 8188   9.638   9.516   2.951
 2649WAT     H1 8189   9.575   9.589   2.927
 2649WAT     H2 8190   9.666   9.525   3.046
 2650WAT      O 8191   8.238   7.687   9.896
 2650WAT     H1 8192   8.280   7.607   9.853
 2650WAT     H2 8193   8.184   7.737   9.828
 2651WAT      O 8194   7.941   5.692   7.826
 2651WAT     H1 8195   7.987   5.639   7.897
 2651WAT     H2 8196   7.892   5.768   7.868
 2652WAT      O 8197   6.080   1.878   6.733
 2652WAT     H1 8198   6.165   1.848   6.688
 2652WAT     H2 8199   6.088   1.864   6.832
 2653WAT      O 8200   6.768   7.593   5.220
 2653WAT     H1 8201   6.682   7.624   5.181
 2653WAT     H2 8202   6.796   7.508   5.175
 2654WAT      O 8203   8.779   5.620   1.235
 2654WAT     H1 8204   8.779   5.542   1.298
 2654WAT     H2 8205   8.718   5.691   1.271
 2655WAT      O 8206   2.688   9.632   8.474
 2655WAT     H1 8207   2.784   9.660   8.473
 2655WAT     H2 8208   2.635   9.699   8.525
 2656WAT      O 8209   0.686   4.943   2.477
 2656WAT     H1 8210   0.683   5.004   2.398
 2656WAT     H2 8211   0.776   4.949   2.520
 2657WAT      O 8212   4.158   5.900   8.154
 2657WAT     H1 8213   4.167   5.999   8.142
 2657WAT     H2 8214   4.083   5.881   8.219
 2658WAT      O 8215   8.271   1.865   2.193
 2658WAT     H1 8216   8.212   1.827   2.264
 2658WAT     H2 8217   8.362   1.823   2.198
 2659WAT      O 8218   4.873   9.348   5.668
 2659WAT     H1 8219   4.937   9.388   5.733
 2659WAT     H2 8220   4.925   9.297   5.598
 2660WAT      O 8221   3.085   9.140   0.439
 2660WAT     H1 8222   3.120   9.219   0.489
 2660WAT     H2 8223   2.985   9.143   0.439
 2661WAT      O 8224   7.189   5.930   7.406
 2661WAT     H1 8225   7.288   5.934   7.423
 2661WAT     H2 8226   7.148   5.860   7.465
 2662WAT      O 8227   1.950   1.788   3.036
 2662WAT     H1 8228   1.991   1.766   3.125
 2662WAT     H2 8229   1.911   1.880   3.038
 2663WAT      O 8230   0.109   0.958   4.633
 2663WAT     H1 8231   0.160   0.968   4.547
 2663WAT     H2 8232   0.032   1.022   4.634
 2664WAT      O 8233   6.831   0.794   7.798
 2664WAT     H1 8234   6.918   0.808   7.750
 2664WAT     H2 8235   6.838   0.714   7.857
 2665WAT      O 8236   0.700   8.668   8.259
 2665WAT     H1 8237   0.675   8.748   8.313
 2665WAT     H2 8238   0.799   8.654   8.265
 2666WAT      O 8239   8.457   0.547   3.081
 2666WAT     H1 8240   8.413   0.584   3.163
 2666WAT     H2 8241   8.551   0.581   3.075
 2667WAT      O 8242   9.549   6.847   5.495
 2667WAT     H1 8243   9.505   6.781   5.556
 2667WAT     H2 8244   9.551   6.810   5.402
 2668WAT      O 8245   2.272   7.585   5.953
 2668WAT     H1 8246   2.328   7.596   5.871
 2668WAT     H2 8247   2.259   7.488   5.972
 2669WAT      O 8248   0.323   6.400   7.098
 2669WAT     H1 8249   0.224   6.417   7.100
 2669WAT     H2 8250   0.348   6.357   7.011
 2670WAT      O 8251   1.124   7.292   5.000
 2670WAT     H1 8252   1.030   7.320   5.015
 2670WAT     H2 8253   1.137   7.198   5.033
 2671WAT      O 8254   0.882   7.126   4.319
 2671WAT     H1 8255   0.922   7.039   4.292
 2671WAT     H2 8256   0.951   7.184   4.362
 2672WAT      O 8257   7.502   7.788   8.372
 2672WAT     H1 8258   7.514   7.761   8.468
 2672WAT     H2 8259   7.555   7.726   8.314
 2673WAT      O 8260   8.717   7.162   5.368
 2673WAT     H1 8261   8.723   7.116   5.279
 2673WAT     H2 8262   8.763   7.106   5.436
 2674WAT      O 8263   4.338   5.821   5.594
 2674WAT     H1 8264   4.396   5.855   5.668
 2674WAT     H2 8265   4.304   5.730   5.618
 2675WAT      O 8266   1.469   4.978   9.203
 2675WAT     H1 8267   1.484   5.076   9.193
 2675WAT     H2 8268   1.514   4.930   9.128
 2676WAT      O 8269   3.112   1.444   0.079
 2676WAT     H1 8270   3.185   1.483   0.136
 2676WAT     H2 8271   3.110   1.491  -0.009
 2677WAT      O 8272   9.513   4.572   4.686
 2677WAT     H1 8273   9.521   4.650   4.748
 2677WAT     H2 8274   9.568   4.589   4.604
 2678WAT      O 8275   2.944   4.589   9.726
 2678WAT     H1 8276   3.002   4.594   9.808
 2678WAT     H2 8277   2.861   4.643   9.742
 2679WAT      O 8278   5.969   8.280   9.262
 2679WAT     H1 8279   5.968   8.187   9.298
 2679WAT     H2 8280   6.004   8.279   9.168
 2680WAT      O 8281   1.283   7.331   3.398
 2680WAT     H1 8282   1.267   7.240   3.436
 2680WAT     H2 8283   1.382   7.345   3.387
 2681WAT      O 8284   0.052   3.482   2.148
 2681WAT     H1 8285  -0.016   3.418   2.113
 2681WAT     H2 8286   0.035   3.498   2.246
 2682WAT      O 8287   9.313   1.646   0.539
 2682WAT     H1 8288   9.361   1.624   0.624
 2682WAT     H2 8289   9.299   1.745   0.534
 2683WAT      O 8290   1.359   2.969   0.135
 2683WAT     H1 8291   1.374   3.034   0.060
 2683WAT     H2 8292   1.396   3.007   0.220
 2684WAT      O 8293   9.818   2.577   7.773
 2684WAT     H1 8294   9.908   2.616   7.754
 2684WAT     H2 8295   9.828   2.493   7.826
 2685WAT      O 8296   2.992   7.843   2.782
 2685WAT     H1 8297   2.981   7.938   2.812
 2685WAT     H2 8298   3.027   7.789   2.858
 2686WAT      O 8299   3.063   4.909   8.250
 2686WAT     H1 8300   3.018   4.895   8.337
 2686WAT     H2 8301   3.100   5.002   8.246
 2687WAT      O 8302   8.264   9.368   0.004
 2687WAT     H1 8303   8.188   9.307   0.023
 2687WAT     H2 8304   8.297   9.408   0.089
 2688WAT      O 8305   3.041   8.063   7.985
 2688WAT     H1 8306   3.055   8.094   7.891
 2688WAT     H2 8307   2.963   8.001   7.988
 2689WAT      O 8308   4.827   7.914   8.651
 2689WAT     H1 8309   4.848   7.912   8.749
 2689WAT     H2 8310   4.889   7.852   8.603
 2690WAT      O 8311   0.751   7.165   7.084
 2690WAT     H1 8312   0.785   7.179   6.990
 2690WAT     H2 8313   0.759   7.068   7.108
 2691WAT      O 8314   5.435   3.012   7.075
 2691WAT     H1 8315   5.379   2.932   7.054
 2691WAT     H2 8316   5.402   3.090   7.021
 2692WAT      O 8317   5.632   5.875   6.920
 2692WAT     H1 8318   5.633   5.795   6.860
 2692WAT     H2 8319   5.537   5.905   6.932
 2693WAT      O 8320   3.134   4.394   9.316
 2693WAT     H1 8321   3.079   4.416   9.396
 2693WAT     H2 8322   3.181   4.476   9.284
 2694WAT      O 8323   8.584   6.564   7.016
 2694WAT     H1 8324   8.648   6.640   7.027
 2694WAT     H2 8325   8.627   6.492   6.962
 2695WAT      O 8326   4.842   6.926   1.548
 2695WAT     H1 8327   4.828   6.899   1.643
 2695WAT     H2 8328   4.910   6.866   1.506
 2696WAT      O 8329   1.599   6.373   4.240
 2696WAT     H1 8330   1.590   6.422   4.154
 2696WAT     H2 8331   1.553   6.424   4.313
 2697WAT      O 8332   9.100   2.699   2.329
 2697WAT     H1 8333   9.126   2.665   2.419
 2697WAT     H2 8334   9.065   2.624   2.273
 2698WAT      O 8335   7.091   4.135   6.621
 2698WAT     H1 8336   7.000   4.101   6.595
 2698WAT     H2 8337   7.132   4.072   6.687
 2699WAT      O 8338   3.199   7.270   1.819
 2699WAT     H1 8339   3.231   7.290   1.726
 2699WAT     H2 8340   3.268   7.300   1.885
 2700WAT      O 8341   4.527   5.753   9.081
 2700WAT     H1 8342   4.579   5.799   9.009
 2700WAT     H2 8343   4.590   5.702   9.139
 2701WAT      O 8344   9.301   9.120   5.285
 2701WAT     H1 8345   9.263   9.043   5.337
 2701WAT     H2 8346   9.367   9.086   5.218
 2702WAT      O 8347   5.875   0.013   4.590
 2702WAT     H1 8348   5.823   0.093   4.620
 2702WAT     H2 8349   5.831  -0.026   4.509
 2703WAT      O 8350   0.670   6.650   0.036
 2703WAT     H1 8351   0.680   6.746   0.013
 2703WAT     H2 8352   0.756   6.614   0.071
 2704WAT      O 8353   6.274   9.026   2.402
 2704WAT     H1 8354   6.194   9.031   2.342
 2704WAT     H2 8355   6.322   9.113   2.402
 2705WAT      O 8356   5.326   7.602   4.796
 2705WAT     H1 8357   5.323   7.700   4.779
 2705WAT     H2 8358   5.233   7.567   4.803
 2706WAT      O 8359   7.470   8.322   9.845
 2706WAT     H1 8360   7.519   8.292   9.763
 2706WAT     H2 8361   7.476   8.251   9.915
 2707WAT      O 8362   1.770   4.035   8.167
 2707WAT     H1 8363   1.781   4.031   8.267
 2707WAT     H2 8364   1.770   4.130   8.138
 2708WAT      O 8365   9.067   4.858   7.684
 2708WAT     H1 8366   9.024   4.858   7.594
 2708WAT     H2 8367   9.164   4.882   7.675
 2709WAT      O 8368   3.499   7.845   1.975
 2709WAT     H1 8369   3.450   7.922   1.935
 2709WAT     H2 8370   3.434   7.770   1.993
 2710WAT      O 8371   8.131   6.006   0.460
 2710WAT     H1 8372   8.126   5.912   0.493
 2710WAT     H2 8373   8.219   6.046   0.487
 2711WAT      O 8374   8.830   6.396   8.506
 2711WAT     H1 8375   8.890   6.320   8.530
 2711WAT     H2 8376   8.866   6.481   8.545
 2712WAT      O 8377   0.092   2.675   9.735
 2712WAT     H1 8378   0.023   2.747   9.731
 2712WAT     H2 8379   0.169   2.700   9.677
 2713WAT      O 8380   3.847   7.420   8.700
 2713WAT     H1 8381   3.911   7.494   8.675
 2713WAT     H2 8382   3.836   7.418   8.799
 2714WAT      O 8383   8.489   3.050   5.787
 2714WAT     H1 8384   8.505   3.074   5.882
 2714WAT     H2 8385   8.533   2.963   5.766
 2715WAT      O 8386   4.083   4.963   1.105
 2715WAT     H1 8387   4.091   5.027   1.028
 2715WAT     H2 8388   4.036   4.880   1.074
 2716WAT      O 8389   5.788   4.045   2.212
 2716WAT     H1 8390   5.742   4.106   2.148
 2716WAT     H2 8391   5.850   3.985   2.162
 2717WAT      O 8392   0.560   5.318   6.791
 2717WAT     H1 8393   0.566   5.397   6.853
 2717WAT     H2 8394   0.583   5.235   6.841
 2718WAT      O 8395   2.241   6.889   2.605
 2718WAT     H1 8396   2.339   6.895   2.628
 2718WAT     H2 8397   2.222   6.949   2.527
 2719WAT      O 8398   4.340   6.946   8.901
 2719WAT     H1 8399   4.289   7.027   8.930
 2719WAT     H2 8400   4.319   6.926   8.805
 2720WAT      O 8401   3.683   0.948   0.307
 2720WAT     H1 8402   3.703   0.860   0.265
 2720WAT     H2 8403   3.769   0.997   0.326
 2721WAT      O 8404   6.940   0.234   7.957
 2721WAT     H1 8405   6.925   0.333   7.956
 2721WAT     H2 8406   6.887   0.193   8.032
 2722WAT      O 8407   1.017   1.189   0.411
 2722WAT     H1 8408   0.924   1.199   0.373
 2722WAT     H2 8409   1.028   1.098   0.450
 2723WAT      O 8410   4.661   4.102   0.117
 2723WAT     H1 8411   4.760   4.104   0.108
 2723WAT     H2 8412   4.622   4.053   0.039
 2724WAT      O 8413   3.298   4.944   5.445
 2724WAT     H1 8414   3.336   4.856   5.473
 2724WAT     H2 8415   3.353   4.981   5.370
 2725WAT      O 8416   8.377   2.223   1.327
 2725WAT     H1 8417   8.371   2.204   1.424
 2725WAT     H2 8418   8.453   2.286   1.309
 2726WAT      O 8419   2.077   8.665   3.664
 2726WAT     H1 8420   1.997   8.725   3.671
 2726WAT     H2 8421   2.160   8.721   3.660
 2727WAT      O 8422   4.436   9.259   9.256
 2727WAT     H1 8423   4.533   9.232   9.258
 2727WAT     H2 8424   4.429   9.357   9.240
 2728WAT      O 8425   6.393   5.927   6.518
 2728WAT     H1 8426   6.345   5.943   6.431
 2728WAT     H2 8427   6.409   5.829   6.530
 2729WAT      O 8428   6.881   1.196   4.177
 2729WAT     H1 8429   6.794   1.147   4.187
 2729WAT     H2 8430   6.891   1.228   4.083
 2730WAT      O 8431   0.049   5.620   6.404
 2730WAT     H1 8432   0.037   5.541   6.344
 2730WAT     H2 8433   0.040   5.704   6.351
 2731WAT      O 8434   2.230   2.785   3.010
 2731WAT     H1 8435   2.222   2.868   2.955
 2731WAT     H2 8436   2.155   2.781   3.076
 2732WAT      O 8437   4.101   1.773   5.226
 2732WAT     H1 8438   4.201   1.767   5.218
 2732WAT     H2 8439   4.061   1.775   5.134
 2733WAT      O 8440   2.887   5.292   0.553
 2733WAT     H1 8441   2.873   5.213   0.614
 2733WAT     H2 8442   2.834   5.278   0.469
 2734WAT      O 8443   2.333   8.025   8.271
 2734WAT     H1 8444   2.259   8.090   8.288
 2734WAT     H2 8445   2.399   8.028   8.347
 2735WAT      O 8446   3.748   2.436   2.311
 2735WAT     H1 8447   3.675   2.423   2.378
 2735WAT     H2 8448   3.712   2.486   2.232
 2736WAT      O 8449   6.010   0.262   7.476
 2736WAT     H1 8450   5.944   0.221   7.414
 2736WAT     H2 8451   6.031   0.197   7.549
 2737WAT      O 8452   1.459   0.365   3.727
 2737WAT     H1 8453   1.422   0.395   3.639
 2737WAT     H2 8454   1.556   0.385   3.731
 2738WAT      O 8455   0.088   2.898   8.552
 2738WAT     H1 8456   0.117   2.879   8.458
 2738WAT     H2 8457   0.138   2.978   8.587
 2739WAT      O 8458   6.472   7.353   4.649
 2739WAT     H1 8459   6.449   7.367   4.745
 2739WAT     H2 8460   6.389   7.351   4.594
 2740WAT      O 8461   3.381   7.801   9.051
 2740WAT     H1 8462   3.325   7.849   9.119
 2740WAT     H2 8463   3.387   7.705   9.076
 2741WAT      O 8464   1.582   0.841   1.432
 2741WAT     H1 8465   1.593   0.926   1.483
 2741WAT     H2 8466   1.493   0.840   1.388
 2742WAT      O 8467   9.518   4.736   0.523
 2742WAT     H1 8468   9.451   4.752   0.451
 2742WAT     H2 8469   9.494   4.790   0.604
 2743WAT      O 8470   8.026   2.537   2.096
 2743WAT     H1 8471   7.955   2.607   2.085
 2743WAT     H2 8472   8.103   2.576   2.145
 2744WAT      O 8473   6.949   3.081   4.296
 2744WAT     H1 8474   6.933   3.118   4.204
 2744WAT     H2 8475   6.898   3.135   4.363
 2745WAT      O 8476   9.619   7.023   5.863
 2745WAT     H1 8477   9.579   7.099   5.914
 2745WAT     H2 8478   9.705   7.052   5.822
 2746WAT      O 8479   7.826   3.077   0.612
 2746WAT     H1 8480   7.862   3.018   0.683
 2746WAT     H2 8481   7.751   3.031   0.565
 2747WAT      O 8482   3.121   3.152   2.491
 2747WAT     H1 8483   3.023   3.162   2.476
 2747WAT     H2 8484   3.154   3.229   2.545
 2748WAT      O 8485   5.706   4.424   8.768
 2748WAT     H1 8486   5.746   4.509   8.802
 2748WAT     H2 8487   5.686   4.364   8.845
 2749WAT      O 8488   9.013   0.184   0.868
 2749WAT     H1 8489   9.109   0.159   0.862
 2749WAT     H2 8490   8.957   0.101   0.872
 2750WAT      O 8491   1.112   3.984   4.965
 2750WAT     H1 8492   1.098   3.991   4.866
 2750WAT     H2 8493   1.182   3.916   4.984
 2751WAT      O 8494   5.438   8.899   9.824
 2751WAT     H1 8495   5.433   8.800   9.839
 2751WAT     H2 8496   5.527   8.932   9.855
 2752WAT      O 8497   9.206   5.452   1.015
 2752WAT     H1 8498   9.230   5.369   1.066
 2752WAT     H2 8499   9.147   5.510   1.071
 2753WAT      O 8500   6.006   4.309   8.310
 2753WAT     H1 8501   5.952   4.238   8.267
 2753WAT     H2 8502   6.060   4.270   8.385
 2754WAT      O 8503   2.005   8.716   0.047
 2754WAT     H1 8504   1.908   8.727   0.069
 2754WAT     H2 8505   2.040   8.632   0.089
 2755WAT      O 8506   2.166   4.666   8.771
 2755WAT     H1 8507   2.255   4.648   8.730
 2755WAT     H2 8508   2.167   4.756   8.815
 2756WAT      O 8509   8.704   0.965   8.318
 2756WAT     H1 8510   8.662   1.050   8.348
 2756WAT     H2 8511   8.748   0.979   8.229
 2757WAT      O 8512   1.920   3.238   0.094
 2757WAT     H1 8513   1.882   3.330   0.082
 2757WAT     H2 8514   1.847   3.176   0.124
 2758WAT      O 8515   6.970   7.250   7.370
 2758WAT     H1 8516   6.920   7.321   7.319
 2758WAT     H2 8517   6.986   7.172   7.310
 2759WAT      O 8518   4.202   4.320   4.722
 2759WAT     H1 8519   4.136   4.359   4.785
 2759WAT     H2 8520   4.240   4.392   4.664
 2760WAT      O 8521   8.914   4.786   7.460
 2760WAT     H1 8522   8.878   4.851   7.394
 2760WAT     H2 8523   8.860   4.702   7.456
 2761WAT      O 8524   8.896   2.473   3.285
 2761WAT     H1 8525   8.932   2.384   3.314
 2761WAT     H2 8526   8.966   2.543   3.301
 2762WAT      O 8527   3.156   9.263   4.214
 2762WAT     H1 8528   3.090   9.317   4.163
 2762WAT     H2 8529   3.170   9.175   4.167
 2763WAT      O 8530   3.898   5.819   2.988
 2763WAT     H1 8531   3.975   5.831   3.050
 2763WAT     H2 8532   3.827   5.886   3.009
 2764WAT      O 8533   8.375   5.550   6.438
 2764WAT     H1 8534   8.391   5.599   6.352
 2764WAT     H2 8535   8.366   5.452   6.420
 2765WAT      O 8536   1.152   3.658   8.014
 2765WAT     H1 8537   1.226   3.725   8.002
 2765WAT     H2 8538   1.149   3.597   7.934
 2766WAT      O 8539   8.834   6.392   1.166
 2766WAT     H1 8540   8.910   6.447   1.134
 2766WAT     H2 8541   8.866   6.326   1.234
 2767WAT      O 8542   6.965   6.055   3.720
 2767WAT     H1 8543   6.987   5.975   3.664
 2767WAT     H2 8544   6.865   6.064   3.726
 2768WAT      O 8545   1.841   6.890   9.682
 2768WAT     H1 8546   1.910   6.962   9.696
 2768WAT     H2 8547   1.881   6.801   9.705
 2769WAT      O 8548   4.215   4.886   8.037
 2769WAT     H1 8549   4.184   4.980   8.053
 2769WAT     H2 8550   4.260   4.881   7.947
 2770WAT      O 8551   3.503   0.655   0.299
 2770WAT     H1 8552   3.481   0.724   0.368
 2770WAT     H2 8553   3.451   0.673   0.216
 2771WAT      O 8554   7.630   7.894   1.925
 2771WAT     H1 8555   7.640   7.813   1.866
 2771WAT     H2 8556   7.538   7.931   1.913
 2772WAT      O 8557   7.377   6.459   3.022
 2772WAT     H1 8558   7.342   6.451   2.929
 2772WAT     H2 8559   7.300   6.471   3.086
 2773WAT      O 8560   6.806   8.360   5.852
 2773WAT     H1 8561   6.789   8.408   5.938
 2773WAT     H2 8562   6.869   8.414   5.796
 2774WAT      O 8563   6.692   1.942   4.485
 2774WAT     H1 8564   6.755   1.868   4.507
 2774WAT     H2 8565   6.602   1.922   4.524
 2775WAT      O 8566   0.688   4.228   9.058
 2775WAT     H1 8567   0.683   4.325   9.081
 2775WAT     H2 8568   0.666   4.216   8.961
 2776WAT      O 8569   6.813   2.538   4.696
 2776WAT     H1 8570   6.901   2.502   4.724
 2776WAT     H2 8571   6.826   2.609   4.626
 2777WAT      O 8572   8.063   9.086   1.419
 2777WAT     H1 8573   8.034   9.094   1.324
 2777WAT     H2 8574   8.162   9.102   1.426
 2778WAT      O 8575   7.057   7.885   5.367
 2778WAT     H1 8576   6.969   7.881   5.319
 2778WAT     H2 8577   7.051   7.836   5.453
 2779WAT      O 8578   2.412   9.669   2.592
 2779WAT     H1 8579   2.505   9.706   2.597
 2779WAT     H2 8580   2.360   9.701   2.671
 2780WAT      O 8581   1.052   6.371   1.232
 2780WAT     H1 8582   1.044   6.462   1.272
 2780WAT     H2 8583   1.123   6.371   1.162
 2781WAT      O 8584   8.623   1.239   2.738
 2781WAT     H1 8585   8.581   1.161   2.784
 2781WAT     H2 8586   8.563   1.270   2.664
 2782WAT      O 8587   8.733   3.010   9.342
 2782WAT     H1 8588   8.642   2.989   9.377
 2782WAT     H2 8589   8.788   3.052   9.414
 2783WAT      O 8590   3.182   9.336   2.975
 2783WAT     H1 8591   3.138   9.321   2.887
 2783WAT     H2 8592   3.211   9.248   3.013
 2784WAT      O 8593   5.399   4.997   1.010
 2784WAT     H1 8594   5.430   5.027   1.100
 2784WAT     H2 8595   5.444   5.051   0.939
 2785WAT      O 8596   0.609   3.645   8.647
 2785WAT     H1 8597   0.512   3.624   8.650
 2785WAT     H2 8598   0.662   3.561   8.662
 2786WAT      O 8599   9.462   5.217   2.363
 2786WAT     H1 8600   9.394   5.177   2.301
 2786WAT     H2 8601   9.548   5.229   2.315
 2787WAT      O 8602   5.169   5.550   7.767
 2787WAT     H1 8603   5.170   5.515   7.861
 2787WAT     H2 8604   5.240   5.619   7.757
 2788WAT      O 8605   9.696   4.493   6.214
 2788WAT     H1 8606   9.761   4.501   6.139
 2788WAT     H2 8607   9.614   4.445   6.182
 2789WAT      O 8608   5.371   0.233   3.753
 2789WAT     H1 8609   5.336   0.316   3.798
 2789WAT     H2 8610   5.294   0.174   3.728
 2790WAT      O 8611   7.770   0.806   6.972
 2790WAT     H1 8612   7.781   0.879   7.039
 2790WAT     H2 8613   7.723   0.841   6.892
 2791WAT      O 8614   4.036   7.443   7.319
 2791WAT     H1 8615   4.000   7.393   7.398
 2791WAT     H2 8616   4.011   7.394   7.235
 2792WAT      O 8617   5.834   1.777   4.848
 2792WAT     H1 8618   5.912   1.838   4.861
 2792WAT     H2 8619   5.753   1.817   4.891
 2793WAT      O 8620   2.768   1.614   2.857
 2793WAT     H1 8621   2.782   1.616   2.758
 2793WAT     H2 8622   2.760   1.519   2.888
 2794WAT      O 8623   3.913   1.257   6.969
 2794WAT     H1 8624   3.950   1.318   7.039
 2794WAT     H2 8625   3.988   1.225   6.911
 2795WAT      O 8626   6.980   2.316   2.052
 2795WAT     H1 8627   6.920   2.375   2.106
 2795WAT     H2 8628   7.003   2.362   1.966
 2796WAT      O 8629   2.306   5.698   0.303
 2796WAT     H1 8630   2.223   5.664   0.347
 2796WAT     H2 8631   2.284   5.728   0.210
 2797WAT      O 8632   7.589   8.632   9.877
 2797WAT     H1 8633   7.523   8.596   9.811
 2797WAT     H2 8634   7.646   8.701   9.832
 2798WAT      O 8635   8.765   2.227   8.770
 2798WAT     H1 8636   8.827   2.171   8.715
 2798WAT     H2 8637   8.681   2.244   8.719
 2799WAT      O 8638   3.054   9.222   7.047
 2799WAT     H1 8639   3.006   9.309   7.039
 2799WAT     H2 8640   2.995   9.149   7.013
 2800WAT      O 8641   9.391   4.203   6.437
 2800WAT     H1 8642   9.378   4.298   6.412
 2800WAT     H2 8643   9.309   4.151   6.416
 2801WAT      O 8644   9.520   6.794   9.143
 2801WAT     H1 8645   9.598   6.761   9.196
 2801WAT     H2 8646   9.436   6.776   9.194
 2802WAT      O 8647   4.734   9.645   9.859
 2802WAT     H1 8648   4.776   9.735   9.843
 2802WAT     H2 8649   4.686   9.616   9.776
 2803WAT      O 8650   7.668   3.628   9.078
 2803WAT     H1 8651   7.680   3.717   9.123
 2803WAT     H2 8652   7.703   3.555   9.138
 2804WAT      O 8653   5.878   8.410   8.889
 2804WAT     H1 8654   5.857   8.340   8.821
 2804WAT     H2 8655   5.956   8.381   8.945
 2805WAT      O 8656   6.440   6.281   0.258
 2805WAT     H1 8657   6.396   6.355   0.207
 2805WAT     H2 8658   6.503   6.231   0.198
 2806WAT      O 8659   1.315   5.947   2.985
 2806WAT     H1 8660   1.339   5.943   2.888
 2806WAT     H2 8661   1.248   6.021   3.000
 2807WAT      O 8662   4.414   1.082   9.322
 2807WAT     H1 8663   4.456   1.159   9.370
 2807WAT     H2 8664   4.357   1.116   9.248
 2808WAT      O 8665   7.793   6.077   9.293
 2808WAT     H1 8666   7.834   6.152   9.241
 2808WAT     H2 8667   7.730   6.115   9.361
 2809WAT      O 8668   6.580   0.716   4.910
 2809WAT     H1 8669   6.616   0.625   4.930
 2809WAT     H2 8670   6.644   0.764   4.849
 2810WAT      O 8671   9.219   0.733   2.584
 2810WAT     H1 8672   9.308   0.707   2.546
 2810WAT     H2 8673   9.229   0.757   2.680
 2811WAT      O 8674   0.612   0.394   8.338
 2811WAT     H1 8675   0.584   0.486   8.311
 2811WAT     H2 8676   0.579   0.376   8.431
 2812WAT      O 8677   8.613   5.865   6.014
 2812WAT     H1 8678   8.628   5.798   6.086
 2812WAT     H2 8679   8.516   5.893   6.014
 2813WAT      O 8680   3.409   3.038   4.194
 2813WAT     H1 8681   3.357   3.061   4.277
 2813WAT     H2 8682   3.495   2.994   4.221
 2814WAT      O 8683   0.387   4.155   4.691
 2814WAT     H1 8684   0.368   4.174   4.787
 2814WAT     H2 8685   0.310   4.103   4.652
 2815WAT      O 8686   5.343   6.816   0.756
 2815WAT     H1 8687   5.409   6.745   0.733
 2815WAT     H2 8688   5.313   6.862   0.672
 2816WAT      O 8689   3.595   9.506   2.306
 2816WAT     H1 8690   3.533   9.512   2.228
 2816WAT     H2 8691   3.570   9.574   2.374
 2817WAT      O 8692   5.524   5.598   0.062
 2817WAT     H1 8693   5.444   5.539   0.052
 2817WAT     H2 8694   5.526   5.665  -0.012
 2818WAT      O 8695   4.928   3.158   3.736
 2818WAT     H1 8696   5.001   3.174   3.669
 2818WAT     H2 8697   4.888   3.246   3.763
 2819WAT      O 8698   0.180   4.967   9.497
 2819WAT     H1 8699   0.088   4.994   9.467
 2819WAT     H2 8700   0.243   5.044   9.486
 2820WAT      O 8701   5.482   9.327   0.560
 2820WAT     H1 8702   5.430   9.243   0.576
 2820WAT     H2 8703   5.509   9.367   0.648
 2821WAT      O 8704   1.967   3.131   2.799
 2821WAT     H1 8705   2.036   3.162   2.733
 2821WAT     H2 8706   1.934   3.040   2.773
 2822WAT      O 8707   2.522   0.793   8.881
 2822WAT     H1 8708   2.448   0.726   8.877
 2822WAT     H2 8709   2.561   0.794   8.973
 2823WAT      O 8710   8.755   1.581   6.379
 2823WAT     H1 8711   8.777   1.591   6.477
 2823WAT     H2 8712   8.738   1.671   6.340
 2824WAT      O 8713   1.573   7.603   8.916
 2824WAT     H1 8714   1.554   7.688   8.866
 2824WAT     H2 8715   1.499   7.537   8.897
 2825WAT      O 8716   2.865   1.548   2.603
 2825WAT     H1 8717   2.916   1.572   2.520
 2825WAT     H2 8718   2.818   1.461   2.589
 2826WAT      O 8719   2.145   8.536   8.588
 2826WAT     H1 8720   2.200   8.610   8.627
 2826WAT     H2 8721   2.160   8.530   8.490
 2827WAT      O 8722   7.619   2.641   0.016
 2827WAT     H1 8723   7.545   2.704  -0.008
 2827WAT     H2 8724   7.596   2.548  -0.014
 2828WAT      O 8725   7.403   1.648   0.022
 2828WAT     H1 8726   7.425   1.681  -0.070
 2828WAT     H2 8727   7.487   1.640   0.075
 2829WAT      O 8728   2.398   1.999   8.450
 2829WAT     H1 8729   2.441   2.043   8.371
 2829WAT     H2 8730   2.331   1.932   8.419
 2830WAT      O 8731   6.228   1.859   0.572
 2830WAT     H1 8732   6.215   1.800   0.651
 2830WAT     H2 8733   6.270   1.945   0.602
 2831WAT      O 8734   4.976   0.423   6.419
 2831WAT     H1 8735   4.966   0.523   6.414
 2831WAT     H2 8736   4.986   0.396   6.515
 2832WAT      O 8737   7.973   4.249   9.360
 2832WAT     H1 8738   7.955   4.227   9.456
 2832WAT     H2 8739   8.062   4.212   9.333
 2833WAT      O 8740   3.670   3.796   8.340
 2833WAT     H1 8741   3.646   3.832   8.250
 2833WAT     H2 8742   3.748   3.734   8.331
 2834WAT      O 8743   1.028   2.920   6.806
 2834WAT     H1 8744   0.999   2.843   6.861
 2834WAT     H2 8745   1.127   2.917   6.793
 2835WAT      O 8746   2.818   2.824   1.247
 2835WAT     H1 8747   2.806   2.734   1.205
 2835WAT     H2 8748   2.739   2.882   1.224
 2836WAT      O 8749   7.585   0.285   3.242
 2836WAT     H1 8750   7.644   0.365   3.235
 2836WAT     H2 8751   7.494   0.307   3.207
 2837WAT      O 8752   8.860   5.190   9.005
 2837WAT     H1 8753   8.824   5.262   9.064
 2837WAT     H2 8754   8.945   5.221   8.963
 2838WAT      O 8755   6.895   3.164   2.675
 2838WAT     H1 8756   6.810   3.214   2.659
 2838WAT     H2 8757   6.947   3.158   2.590
 2839WAT      O 8758   9.012   5.540   9.058
 2839WAT     H1 8759   8.989   5.531   8.961
 2839WAT     H2 8760   8.955   5.477   9.111
 2840WAT      O 8761   5.852   3.255   9.554
 2840WAT     H1 8762   5.776   3.217   9.502
 2840WAT     H2 8763   5.936   3.206   9.531
 2841WAT      O 8764   5.130   4.981   2.076
 2841WAT     H1 8765   5.228   4.986   2.096
 2841WAT     H2 8766   5.090   5.072   2.082
 2842WAT      O 8767   9.836   5.827   1.730
 2842WAT     H1 8768   9.905   5.854   1.663
 2842WAT     H2 8769   9.877   5.761   1.794
 2843WAT      O 8770   2.282   5.090   6.669
 2843WAT     H1 8771   2.259   5.128   6.580
 2843WAT     H2 8772   2.261   5.156   6.741
 2844WAT      O 8773   7.662   9.709   4.064
 2844WAT     H1 8774   7.599   9.638   4.094
 2844WAT     H2 8775   7.658   9.786   4.128
 2845WAT      O 8776   0.817   1.553   8.775
 2845WAT     H1 8777   0.829   1.469   8.828
 2845WAT     H2 8778   0.778   1.531   8.685
 2846WAT      O 8779   2.043   7.153   4.568
 2846WAT     H1 8780   2.003   7.245   4.575
 2846WAT     H2 8781   1.973   7.085   4.593
 2847WAT      O 8782   0.267   7.809   0.420
 2847WAT     H1 8783   0.319   7.867   0.357
 2847WAT     H2 8784   0.172   7.840   0.422
 2848WAT      O 8785   5.955   9.656   6.008
 2848WAT     H1 8786   5.997   9.593   5.942
 2848WAT     H2 8787   5.915   9.733   5.959
 2849WAT      O 8788   0.680   6.181   2.628
 2849WAT     H1 8789   0.714   6.259   2.681
 2849WAT     H2 8790   0.615   6.213   2.559
 2850WAT      O 8791   2.472   5.929   1.567
 2850WAT     H1 8792   2.396   5.932   1.502
 2850WAT     H2 8793   2.484   6.019   1.608
 2851WAT      O 8794   9.418   7.194   4.739
 2851WAT     H1 8795   9.421   7.227   4.833
 2851WAT     H2 8796   9.382   7.267   4.680
 2852WAT      O 8797   7.925   6.420   8.658
 2852WAT     H1 8798   7.991   6.351   8.687
 2852WAT     H2 8799   7.943   6.506   8.706
 2853WAT      O 8800   6.482   7.016   3.772
 2853WAT     H1 8801   6.406   6.955   3.749
 2853WAT     H2 8802   6.454   7.079   3.844
 2854WAT      O 8803   8.303   3.765   4.302
 2854WAT     H1 8804   8.301   3.775   4.401
 2854WAT     H2 8805   8.296   3.856   4.259
 2855WAT      O 8806   1.865   7.676   7.639
 2855WAT     H1 8807   1.894   7.586   7.604
 2855WAT     H2 8808   1.904   7.748   7.581
 2856WAT      O 8809   8.275   1.655   3.721
 2856WAT     H1 8810   8.358   1.602   3.742
 2856WAT     H2 8811   8.275   1.739   3.775
 2857WAT      O 8812   5.671   2.447   5.707
 2857WAT     H1 8813   5.681   2.535   5.753
 2857WAT     H2 8814   5.691   2.374   5.773
 2858WAT      O 8815   0.163   1.968   5.724
 2858WAT     H1 8816   0.253   1.992   5.760
 2858WAT     H2 8817   0.145   1.871   5.741
 2859WAT      O 8818   4.203   8.014   6.133
 2859WAT     H1 8819   4.231   8.008   6.037
 2859WAT     H2 8820   4.201   8.110   6.161
 2860WAT      O 8821   3.105   7.743   3.185
 2860WAT     H1 8822   3.007   7.760   3.174
 2860WAT     H2 8823   3.120   7.649   3.217
 2861WAT      O 8824   8.534   5.852   0.712
 2861WAT     H1 8825   8.604   5.815   0.773
 2861WAT     H2 8826   8.460   5.892   0.766
 2862WAT      O 8827   7.803   1.496   0.739
 2862WAT     H1 8828   7.773   1.479   0.833
 2862WAT     H2 8829   7.726   1.484   0.676
 2863WAT      O 8830   5.788   0.800   2.076
 2863WAT     H1 8831   5.771   0.882   2.021
 2863WAT     H2 8832   5.710   0.783   2.136
 2864WAT      O 8833   8.340   0.010   7.334
 2864WAT     H1 8834   8.260  -0.048   7.341
 2864WAT     H2 8835   8.414  -0.040   7.288
 2865WAT      O 8836   7.034   8.375   2.274
 2865WAT     H1 8837   7.047   8.285   2.233
 2865WAT     H2 8838   7.121   8.425   2.274
 2866WAT      O 8839   6.907   4.680   3.469
 2866WAT     H1 8840   6.979   4.629   3.422
 2866WAT     H2 8841   6.899   4.648   3.563
 2867WAT      O 8842   0.044   0.071   1.031
 2867WAT     H1 8843   0.134   0.027   1.019
 2867WAT     H2 8844   0.048   0.164   0.995
 2868WAT      O 8845   1.533   1.300   2.213
 2868WAT     H1 8846   1.506   1.207   2.238
 2868WAT     H2 8847   1.594   1.337   2.284
 2869WAT      O 8848   7.566   8.191   5.724
 2869WAT     H1 8849   7.486   8.201   5.782
 2869WAT     H2 8850   7.606   8.282   5.706
 2870WAT      O 8851   2.021   3.592   0.823
 2870WAT     H1 8852   1.981   3.665   0.769
 2870WAT     H2 8853   1.970   3.507   0.809
 2871WAT      O 8854   6.091   5.486   6.987
 2871WAT     H1 8855   6.169   5.525   6.938
 2871WAT     H2 8856   6.110   5.487   7.085
 2872WAT      O 8857   0.010   8.168   9.255
 2872WAT     H1 8858  -0.045   8.107   9.197
 2872WAT     H2 8859   0.098   8.184   9.211
 2873WAT      O 8860   1.616   9.340   0.541
 2873WAT     H1 8861   1.535   9.377   0.586
 2873WAT     H2 8862   1.600   9.333   0.443
 2874WAT      O 8863   1.640   5.995   8.085
 2874WAT     H1 8864   1.668   5.942   8.005
 2874WAT     H2 8865   1.596   6.080   8.054
 2875WAT      O 8866   6.843   4.024   9.816
 2875WAT     H1 8867   6.854   4.059   9.909
 2875WAT     H2 8868   6.924   4.045   9.762
 2876WAT      O 8869   7.122   7.156   9.746
 2876WAT     H1 8870   7.116   7.087   9.674
 2876WAT     H2 8871   7.060   7.132   9.821
 2877WAT      O 8872   7.049   6.023   5.327
 2877WAT     H1 8873   7.083   6.116   5.312
 2877WAT     H2 8874   7.125   5.959   5.325
 2878WAT      O 8875   0.476   2.197   6.572
 2878WAT     H1 8876   0.379   2.174   6.586
 2878WAT     H2 8877   0.525   2.116   6.541
 2879WAT      O 8878   5.992   9.347   7.185
 2879WAT     H1 8879   5.960   9.369   7.093
 2879WAT     H2 8880   5.918   9.306   7.238
 2880WAT      O 8881   1.053   7.119   0.849
 2880WAT     H1 8882   0.996   7.060   0.791
 2880WAT     H2 8883   1.019   7.212   0.846
 2881WAT      O 8884   4.508   0.207   1.131
 2881WAT     H1 8885   4.493   0.224   1.034
 2881WAT     H2 8886   4.446   0.263   1.185
 2882WAT      O 8887   2.416   0.418   2.510
 2882WAT     H1 8888   2.420   0.517   2.499
 2882WAT     H2 8889   2.482   0.375   2.448
 2883WAT      O 8890   8.817   9.081   0.138
 2883WAT     H1 8891   8.908   9.123   0.135
 2883WAT     H2 8892   8.813   9.014   0.212
 2884WAT      O 8893   9.012   4.311   2.562
 2884WAT     H1 8894   9.071   4.378   2.515
 2884WAT     H2 8895   8.916   4.336   2.546
 2885WAT      O 8896   0.963   6.801   6.680
 2885WAT     H1 8897   0.980   6.809   6.582
 2885WAT     H2 8898   1.042   6.834   6.730
 2886WAT      O 8899   6.282   9.124   3.076
 2886WAT     H1 8900   6.227   9.206   3.055
 2886WAT     H2 8901   6.371   9.152   3.113
 2887WAT      O 8902   6.899   0.654   8.803
 2887WAT     H1 8903   6.963   0.615   8.737
 2887WAT     H2 8904   6.822   0.696   8.756
 2888WAT      O 8905   5.428   4.344   8.787
 2888WAT     H1 8906   5.397   4.327   8.693
 2888WAT     H2 8907   5.516   4.392   8.785
 2889WAT      O 8908   6.925   0.588   2.361
 2889WAT     H1 8909   6.991   0.532   2.410
 2889WAT     H2 8910   6.837   0.585   2.409
 2890WAT      O 8911   7.004   8.174   6.994
 2890WAT     H1 8912   7.050   8.249   7.043
 2890WAT     H2 8913   7.001   8.195   6.896
 2891WAT      O 8914   1.099   0.347   2.136
 2891WAT     H1 8915   1.044   0.263   2.139
 2891WAT     H2 8916   1.108   0.383   2.229
 2892WAT      O 8917   4.551   7.802   2.394
 2892WAT     H1 8918   4.581   7.893   2.366
 2892WAT     H2 8919   4.552   7.741   2.315
 2893WAT      O 8920   3.400   2.791   4.884
 2893WAT     H1 8921   3.410   2.697   4.852
 2893WAT     H2 8922   3.476   2.814   4.945
 2894WAT      O 8923   7.764   1.593   5.173
 2894WAT     H1 8924   7.858   1.573   5.203
 2894WAT     H2 8925   7.740   1.686   5.202
 2895WAT      O 8926   6.353   3.338   8.290
 2895WAT     H1 8927   6.430   3.351   8.229
 2895WAT     H2 8928   6.268   3.359   8.242
 2896WAT      O 8929   7.923   7.780   6.191
 2896WAT     H1 8930   7.936   7.697   6.136
 2896WAT     H2 8931   7.945   7.860   6.136
 2897WAT      O 8932   3.764   9.575   8.552
 2897WAT     H1 8933   3.791   9.628   8.472
 2897WAT     H2 8934   3.835   9.581   8.622
 2898WAT      O 8935   6.078   2.330   9.009
 2898WAT     H1 8936   6.029   2.405   8.964
 2898WAT     H2 8937   6.150   2.296   8.948
 2899WAT      O 8938   7.279   0.141   0.978
 2899WAT     H1 8939   7.262   0.209   0.907
 2899WAT     H2 8940   7.284   0.050   0.937
 2900WAT      O 8941   8.152   4.381   9.691
 2900WAT     H1 8942   8.204   4.443   9.749
 2900WAT     H2 8943   8.141   4.293   9.738
 2901WAT      O 8944   9.650   0.362   1.340
 2901WAT     H1 8945   9.696   0.280   1.305
 2901WAT     H2 8946   9.679   0.378   1.434
 2902WAT      O 8947   7.829   5.386   7.011
 2902WAT     H1 8948   7.895   5.451   7.050
 2902WAT     H2 8949   7.761   5.436   6.958
 2903WAT      O 8950   0.678   3.599   3.161
 2903WAT     H1 8951   0.655   3.623   3.255
 2903WAT     H2 8952   0.600   3.552   3.119
 2904WAT      O 8953   3.343   5.424   1.918
 2904WAT     H1 8954   3.285   5.358   1.870
 2904WAT     H2 8955   3.296   5.512   1.922
 2905WAT      O 8956   9.079   4.729   9.854
 2905WAT     H1 8957   9.169   4.772   9.860
 2905WAT     H2 8958   9.072   4.680   9.767
 2906WAT      O 8959   5.570   4.579   7.038
 2906WAT     H1 8960   5.663   4.588   7.002
 2906WAT     H2 8961   5.513   4.536   6.968
 2907WAT      O 8962   2.982   0.049   6.019
 2907WAT     H1 8963   2.987   0.083   6.113
 2907WAT     H2 8964   2.889   0.018   5.999
 2908WAT      O 8965   2.727   3.096   7.700
 2908WAT     H1 8966   2.638   3.095   7.654
 2908WAT     H2 8967   2.800   3.096   7.632
 2909WAT      O 8968   7.542   4.765   9.801
 2909WAT     H1 8969   7.511   4.859   9.786
 2909WAT     H2 8970   7.609   4.763   9.875
 2910WAT      O 8971   7.658   1.179   5.101
 2910WAT     H1 8972   7.751   1.208   5.081
 2910WAT     H2 8973   7.610   1.252   5.149
 2911WAT      O 8974   0.189   4.856   3.159
 2911WAT     H1 8975   0.179   4.841   3.257
 2911WAT     H2 8976   0.151   4.945   3.135
 2912WAT      O 8977   3.744   4.416   9.596
 2912WAT     H1 8978   3.678   4.487   9.621
 2912WAT     H2 8979   3.724   4.384   9.503
 2913WAT      O 8980   5.102   3.205   5.196
 2913WAT     H1 8981   5.052   3.121   5.218
 2913WAT     H2 8982   5.200   3.185   5.194
 2914WAT      O 8983   7.102   7.279   8.681
 2914WAT     H1 8984   7.140   7.335   8.754
 2914WAT     H2 8985   7.094   7.333   8.597
 2915WAT      O 8986   8.041   8.051   4.105
 2915WAT     H1 8987   8.037   7.955   4.131
 2915WAT     H2 8988   8.017   8.061   4.009
 2916WAT      O 8989   4.418   4.723   7.423
 2916WAT     H1 8990   4.491   4.689   7.364
 2916WAT     H2 8991   4.409   4.662   7.502
 2917WAT      O 8992   6.461   2.733   5.570
 2917WAT     H1 8993   6.438   2.741   5.666
 2917WAT     H2 8994   6.523   2.807   5.544
 2918WAT      O 8995   5.644   0.494   9.238
 2918WAT     H1 8996   5.652   0.432   9.317
 2918WAT     H2 8997   5.551   0.531   9.235
 2919WAT      O 8998   3.722   0.917   1.555
 2919WAT     H1 8999   3.690   0.832   1.514
 2919WAT     H2 9000   3.748   0.981   1.482
 2920WAT      O 9001   1.701   4.233   2.400
 2920WAT     H1 9002   1.754   4.280   2.329
 2920WAT     H2 9003   1.761   4.210   2.476
 2921WAT      O 9004   1.484   7.960   8.311
 2921WAT     H1 9005   1.448   7.968   8.218
 2921WAT     H2 9006   1.410   7.934   8.373
 2922WAT      O 9007   3.552   5.991   7.280
 2922WAT     H1 9008   3.564   6.041   7.365
 2922WAT     H2 9009   3.474   5.929   7.288
 2923WAT      O 9010   1.412   3.508   0.617
 2923WAT     H1 9011   1.337   3.534   0.679
 2923WAT     H2 9012   1.499   3.524   0.662
 2924WAT      O 9013   9.416   6.406   6.070
 2924WAT     H1 9014   9.466   6.378   6.152
 2924WAT     H2 9015   9.325   6.363   6.071
 2925WAT      O 9016   4.337   7.144   3.778
 2925WAT     H1 9017   4.380   7.207   3.714
 2925WAT     H2 9018   4.302   7.065   3.729
 2926WAT      O 9019   0.203   4.767   1.020
 2926WAT     H1 9020   0.180   4.688   0.963
 2926WAT     H2 9021   0.299   4.761   1.047
 2927WAT      O 9022   9.026   1.449   4.278
 2927WAT     H1 9023   8.971   1.464   4.360
 2927WAT     H2 9024   9.097   1.520   4.272
 2928WAT      O 9025   3.982   6.391   9.217
 2928WAT     H1 9026   3.897   6.442   9.222
 2928WAT     H2 9027   4.051   6.435   9.275
 2929WAT      O 9028   4.465   5.123   2.923
 2929WAT     H1 9029   4.526   5.122   2.843
 2929WAT     H2 9030   4.385   5.067   2.904
 2930WAT      O 9031   1.235   7.961   1.236
 2930WAT     H1 9032   1.235   7.998   1.329
 2930WAT     H2 9033   1.329   7.948   1.204
 2931WAT      O 9034   1.774   3.191   4.552
 2931WAT     H1 9035   1.811   3.246   4.478
 2931WAT     H2 9036   1.844   3.177   4.622
 2932WAT      O 9037   2.067   5.234   1.435
 2932WAT     H1 9038   2.018   5.211   1.519
 2932WAT     H2 9039   2.087   5.333   1.434
 2933WAT      O 9040   6.636   3.821   0.259
 2933WAT     H1 9041   6.551   3.856   0.220
 2933WAT     H2 9042   6.625   3.723   0.280
 2934WAT      O 9043   1.987   2.751   7.094
 2934WAT     H1 9044   1.934   2.740   7.178
 2934WAT     H2 9045   1.998   2.662   7.050
 2935WAT      O 9046   3.001   5.996   8.505
 2935WAT     H1 9047   3.031   6.015   8.411
 2935WAT     H2 9048   2.975   6.081   8.550
 2936WAT      O 9049   4.679   2.622   4.050
 2936WAT     H1 9050   4.717   2.533   4.077
 2936WAT     H2 9051   4.579   2.620   4.060
 2937WAT      O 9052   8.891   3.888   8.867
 2937WAT     H1 9053   8.941   3.951   8.808
 2937WAT     H2 9054   8.912   3.794   8.842
 2938WAT      O 9055   9.106   7.915   8.090
 2938WAT     H1 9056   9.035   7.845   8.081
 2938WAT     H2 9057   9.145   7.934   8.000
 2939WAT      O 9058   5.911   9.107   1.552
 2939WAT     H1 9059   5.924   9.151   1.641
 2939WAT     H2 9060   5.928   9.174   1.479
 2940WAT      O 9061   4.843   0.281   7.950
 2940WAT     H1 9062   4.860   0.326   8.038
 2940WAT     H2 9063   4.746   0.258   7.942
 2941WAT      O 9064   1.149   0.640   6.806
 2941WAT     H1 9065   1.188   0.642   6.714
 2941WAT     H2 9066   1.176   0.555   6.852
 2942WAT      O 9067   4.184   7.734   2.066
 2942WAT     H1 9068   4.089   7.713   2.088
 2942WAT     H2 9069   4.237   7.738   2.151
 2943WAT      O 9070   7.597   7.591   9.302
 2943WAT     H1 9071   7.616   7.682   9.340
 2943WAT     H2 9072   7.534   7.601   9.225
 2944WAT      O 9073   2.579   3.197   1.336
 2944WAT     H1 9074   2.585   3.288   1.294
 2944WAT     H2 9075   2.526   3.203   1.421
 2945WAT      O 9076   0.512   5.846   1.409
 2945WAT     H1 9077   0.518   5.814   1.504
 2945WAT     H2 9078   0.604   5.865   1.375
 2946WAT      O 9079   7.334   6.628   2.752
 2946WAT     H1 9080   7.261   6.656   2.815
 2946WAT     H2 9081   7.317   6.535   2.721
 2947WAT      O 9082   0.995   4.527   2.605
 2947WAT     H1 9083   0.911   4.581   2.598
 2947WAT     H2 9084   1.074   4.586   2.590
 2948WAT      O 9085   1.906   9.813   8.315
 2948WAT     H1 9086   1.915   9.771   8.405
 2948WAT     H2 9087   1.845   9.892   8.322
 2949WAT      O 9088   2.750   0.730   4.284
 2949WAT     H1 9089   2.695   0.647   4.287
 2949WAT     H2 9090   2.719   0.793   4.356
 2950WAT      O 9091   7.963   0.488   8.757
 2950WAT     H1 9092   7.906   0.407   8.772
 2950WAT     H2 9093   7.939   0.558   8.824
 2951WAT      O 9094   9.584   7.679   9.575
 2951WAT     H1 9095   9.568   7.764   9.626
 2951WAT     H2 9096   9.664   7.632   9.613
 2952WAT      O 9097   2.291   0.074   3.408
 2952WAT     H1 9098   2.246   0.163   3.412
 2952WAT     H2 9099   2.331   0.052   3.497
 2953WAT      O 9100   0.951   9.272   2.397
 2953WAT     H1 9101   0.924   9.367   2.414
 2953WAT     H2 9102   0.880   9.211   2.431
 2954WAT      O 9103   7.808   6.976   4.914
 2954WAT     H1 9104   7.726   6.966   4.858
 2954WAT     H2 9105   7.885   6.932   4.868
 2955WAT      O 9106   2.740   4.923   2.630
 2955WAT     H1 9107   2.750   5.015   2.667
 2955WAT     H2 9108   2.830   4.884   2.612
 2956WAT      O 9109   4.548   0.582   6.885
 2956WAT     H1 9110   4.538   0.486   6.860
 2956WAT     H2 9111   4.483   0.637   6.833
 2957WAT      O 9112   8.627   7.819   5.157
 2957WAT     H1 9113   8.582   7.905   5.184
 2957WAT     H2 9114   8.650   7.767   5.240
 2958WAT      O 9115   3.305   2.850   1.424
 2958WAT     H1 9116   3.374   2.808   1.364
 2958WAT     H2 9117   3.227   2.789   1.434
 2959WAT      O 9118   3.539   6.185   3.311
 2959WAT     H1 9119   3.495   6.101   3.343
 2959WAT     H2 9120   3.595   6.165   3.231
 2960WAT      O 9121   9.610   1.301   1.949
 2960WAT     H1 9122   9.548   1.379   1.944
 2960WAT     H2 9123   9.604   1.260   2.040
 2961WAT      O 9124   3.195   4.282   1.638
 2961WAT     H1 9125   3.195   4.379   1.661
 2961WAT     H2 9126   3.199   4.228   1.722
 2962WAT      O 9127   9.256   1.053   5.809
 2962WAT     H1 9128   9.194   1.129   5.825
 2962WAT     H2 9129   9.282   1.051   5.712
 2963WAT      O 9130   2.859   0.798   8.672
 2963WAT     H1 9131   2.956   0.795   8.648
 2963WAT     H2 9132   2.806   0.832   8.595
 2964WAT      O 9133   6.577   8.533   9.294
 2964WAT     H1 9134   6.634   8.555   9.373
 2964WAT     H2 9135   6.616   8.455   9.245
 2965WAT      O 9136   4.796   3.315   0.323
 2965WAT     H1 9137   4.794   3.415   0.328
 2965WAT     H2 9138   4.790   3.277   0.416
 2966WAT      O 9139   1.774   8.703   5.481
 2966WAT     H1 9140   1.776   8.712   5.580
 2966WAT     H2 9141   1.850   8.644   5.451
 2967WAT      O 9142   3.731   4.982   7.364
 2967WAT     H1 9143   3.684   4.900   7.333
 2967WAT     H2 9144   3.788   4.961   7.443
 2968WAT      O 9145   7.968   7.987   9.575
 2968WAT     H1 9146   7.955   7.972   9.477
 2968WAT     H2 9147   8.004   8.079   9.590
 2969WAT      O 9148   4.553   4.916   8.002
 2969WAT     H1 9149   4.487   4.915   7.927
 2969WAT     H2 9150   4.602   4.828   8.004
 2970WAT      O 9151   2.471   9.662   1.761
 2970WAT     H1 9152   2.449   9.586   1.700
 2970WAT     H2 9153   2.403   9.667   1.834
 2971WAT      O 9154   8.779   4.786   0.499
 2971WAT     H1 9155   8.762   4.822   0.407
 2971WAT     H2 9156   8.821   4.857   0.555
 2972WAT      O 9157   7.609   2.364   0.505
 2972WAT     H1 9158   7.705   2.353   0.529
 2972WAT     H2 9159   7.594   2.331   0.412
 2973WAT      O 9160   2.588   1.661   9.226
 2973WAT     H1 9161   2.683   1.663   9.193
 2973WAT     H2 9162   2.530   1.711   9.161
 2974WAT      O 9163   0.576   0.855   2.487
 2974WAT     H1 9164   0.555   0.830   2.392
 2974WAT     H2 9165   0.673   0.874   2.497
 2975WAT      O 9166   5.467   6.353   7.946
 2975WAT     H1 9167   5.516   6.374   8.031
 2975WAT     H2 9168   5.372   6.381   7.954
 2976WAT      O 9169   5.996   9.609   9.287
 2976WAT     H1 9170   6.025   9.704   9.300
 2976WAT     H2 9171   6.011   9.582   9.192
 2977WAT      O 9172   8.724   1.372   9.198
 2977WAT     H1 9173   8.678   1.460   9.206
 2977WAT     H2 9174   8.686   1.308   9.266
 2978WAT      O 9175   2.026   1.993   0.612
 2978WAT     H1 9176   2.062   2.054   0.541
 2978WAT     H2 9177   1.953   2.040   0.662
 2979WAT      O 9178   0.544   1.065   7.581
 2979WAT     H1 9179   0.522   1.017   7.496
 2979WAT     H2 9180   0.637   1.103   7.575
 2980WAT      O 9181   4.672   7.228   9.320
 2980WAT     H1 9182   4.575   7.252   9.310
 2980WAT     H2 9183   4.696   7.228   9.417
 2981WAT      O 9184   2.051   8.599   7.270
 2981WAT     H1 9185   2.109   8.531   7.315
 2981WAT     H2 9186   2.022   8.564   7.181
 2982WAT      O 9187   1.801   2.063   0.369
 2982WAT     H1 9188   1.866   1.988   0.357
 2982WAT     H2 9189   1.728   2.054   0.301
 2983WAT      O 9190   0.153   2.246   5.985
 2983WAT     H1 9191   0.128   2.333   5.943
 2983WAT     H2 9192   0.213   2.262   6.063
 2984WAT      O 9193   1.698   0.748   7.762
 2984WAT     H1 9194   1.646   0.663   7.752
 2984WAT     H2 9195   1.792   0.734   7.730
 2985WAT      O 9196   3.571   6.892   3.155
 2985WAT     H1 9197   3.644   6.930   3.212
 2985WAT     H2 9198   3.609   6.827   3.090
 2986WAT      O 9199   1.848   2.131   4.330
 2986WAT     H1 9200   1.879   2.176   4.246
 2986WAT     H2 9201   1.902   2.048   4.345
 2987WAT      O 9202   7.076   5.150   7.611
 2987WAT     H1 9203   7.131   5.233   7.620
 2987WAT     H2 9204   7.036   5.126   7.699
 2988WAT      O 9205   7.744   8.368   7.136
 2988WAT     H1 9206   7.734   8.338   7.041
 2988WAT     H2 9207   7.697   8.456   7.148
 2989WAT      O 9208   8.884   7.458   6.249
 2989WAT     H1 9209   8.822   7.508   6.188
 2989WAT     H2 9210   8.866   7.484   6.344
 2990WAT      O 9211   3.824   0.703   0.055
 2990WAT     H1 9212   3.797   0.799   0.050
 2990WAT     H2 9213   3.829   0.665  -0.038
 2991WAT      O 9214   9.590   6.585   7.651
 2991WAT     H1 9215   9.622   6.509   7.707
 2991WAT     H2 9216   9.494   6.604   7.671
 2992WAT      O 9217   6.624   6.316   4.326
 2992WAT     H1 9218   6.649   6.406   4.363
 2992WAT     H2 9219   6.548   6.278   4.379
 2993WAT      O 9220   2.633   1.560   0.749
 2993WAT     H1 9221   2.641   1.652   0.712
 2993WAT     H2 9222   2.627   1.494   0.674
 2994WAT      O 9223   8.014   1.665   2.759
 2994WAT     H1 9224   8.051   1.671   2.851
 2994WAT     H2 9225   7.968   1.751   2.735
 2995WAT      O 9226   1.497   6.218   2.637
 2995WAT     H1 9227   1.417   6.230   2.578
 2995WAT     H2 9228   1.525   6.307   2.674
 2996WAT      O 9229   1.752   9.064   6.816
 2996WAT     H1 9230   1.813   9.136   6.847
 2996WAT     H2 9231   1.749   8.991   6.884
 2997WAT      O 9232   5.124   4.935   6.696
 2997WAT     H1 9233   5.069   4.883   6.761
 2997WAT     H2 9234   5.202   4.976   6.743
 2998WAT      O 9235   5.960   6.480   4.547
 2998WAT     H1 9236   5.876   6.461   4.496
 2998WAT     H2 9237   6.018   6.541   4.493
 2999WAT      O 9238   7.005   1.506   4.405
 2999WAT     H1 9239   6.989   1.563   4.324
 2999WAT     H2 9240   7.094   1.530   4.444
 3000WAT      O 9241   7.097   9.124   6.492
 3000WAT     H1 9242   7.189   9.117   6.455
 3000WAT     H2 9243   7.035   9.066   6.439
 3001WAT      O 9244   5.298   1.797   9.063
 3001WAT     H1 9245   5.208   1.793   9.019
 3001WAT     H2 9246   5.358   1.729   9.022
 3002WAT      O 9247   0.783   0.043   9.499
 3002WAT     H1 9248   0.821  -0.050   9.502
 3002WAT     H2 9249   0.694   0.044   9.543
 3003WAT      O 9250   2.860   3.231   2.495
 3003WAT     H1 9251   2.781   3.195   2.445
 3003WAT     H2 9252   2.842   3.225   2.594
 3004WAT      O 9253   6.842   6.219   8.241
 3004WAT     H1 9254   6.746   6.206   8.264
 3004WAT     H2 9255   6.865   6.316   8.250
 3005WAT      O 9256   4.221   6.879   1.804
 3005WAT     H1 9257   4.225   6.930   1.718
 3005WAT     H2 9258   4.284   6.801   1.800
 3006WAT      O 9259   8.183   8.627   2.035
 3006WAT     H1 9260   8.182   8.725   2.056
 3006WAT     H2 9261   8.098   8.602   1.988
 3007WAT      O 9262   8.657   2.190   5.875
 3007WAT     H1 9263   8.680   2.286   5.862
 3007WAT     H2 9264   8.611   2.155   5.794
 3008WAT      O 9265   7.231   2.603   7.800
 3008WAT     H1 9266   7.187   2.523   7.841
 3008WAT     H2 9267   7.293   2.573   7.727
 3009WAT      O 9268   6.256   1.480   5.031
 3009WAT     H1 9269   6.162   1.455   5.052
 3009WAT     H2 9270   6.291   1.419   4.960
 3010WAT      O 9271   9.340   8.840   4.118
 3010WAT     H1 9272   9.347   8.939   4.130
 3010WAT     H2 9273   9.275   8.820   4.045
 3011WAT      O 9274   1.548   7.732   0.003
 3011WAT     H1 9275   1.485   7.656   0.016
 3011WAT     H2 9276   1.563   7.779   0.090
 3012WAT      O 9277   1.573   1.756   4.310
 3012WAT     H1 9278   1.581   1.729   4.214
 3012WAT     H2 9279   1.503   1.701   4.355
 3013WAT      O 9280   9.196   7.564   8.506
 3013WAT     H1 9281   9.136   7.485   8.517
 3013WAT     H2 9282   9.237   7.587   8.594
 3014WAT      O 9283   5.911   7.479   1.252
 3014WAT     H1 9284   5.942   7.420   1.178
 3014WAT     H2 9285   5.813   7.464   1.268
 3015WAT      O 9286   8.627   6.419   9.012
 3015WAT     H1 9287   8.558   6.349   9.030
 3015WAT     H2 9288   8.703   6.379   8.962
 3016WAT      O 9289   9.312   4.626   1.452
 3016WAT     H1 9290   9.301   4.633   1.353
 3016WAT     H2 9291   9.342   4.534   1.476
 3017WAT      O 9292   2.298   1.462   7.721
 3017WAT     H1 9293   2.357   1.476   7.801
 3017WAT     H2 9294   2.211   1.510   7.735
 3018WAT      O 9295   4.224   0.980   4.671
 3018WAT     H1 9296   4.268   1.006   4.757
 3018WAT     H2 9297   4.283   1.005   4.594
 3019WAT      O 9298   8.143   8.756   2.693
 3019WAT     H1 9299   8.111   8.816   2.766
 3019WAT     H2 9300   8.068   8.738   2.629
 3020WAT      O 9301   1.253   3.409   3.332
 3020WAT     H1 9302   1.330   3.407   3.267
 3020WAT     H2 9303   1.177   3.355   3.295
 3021WAT      O 9304   2.191   0.847   0.935
 3021WAT     H1 9305   2.160   0.920   0.996
 3021WAT     H2 9306   2.117   0.780   0.923
 3022WAT      O 9307   1.365   8.779   4.139
 3022WAT     H1 9308   1.281   8.748   4.184
 3022WAT     H2 9309   1.444   8.754   4.194
 3023WAT      O 9310   5.323   2.033   8.000
 3023WAT     H1 9311   5.373   2.038   7.914
 3023WAT     H2 9312   5.225   2.036   7.981
 3024WAT      O 9313   5.108   9.077   6.483
 3024WAT     H1 9314   5.026   9.061   6.538
 3024WAT     H2 9315   5.082   9.113   6.393
 3025WAT      O 9316   0.229   0.902   8.409
 3025WAT     H1 9317   0.191   0.840   8.341
 3025WAT     H2 9318   0.269   0.849   8.484
 3026WAT      O 9319   2.155   7.440   5.064
 3026WAT     H1 9320   2.251   7.430   5.092
 3026WAT     H2 9321   2.096   7.433   5.143
 3027WAT      O 9322   6.002   9.511   8.094
 3027WAT     H1 9323   6.085   9.475   8.137
 3027WAT     H2 9324   5.958   9.576   8.156
 3028WAT      O 9325   9.542   6.829   3.569
 3028WAT     H1 9326   9.514   6.792   3.480
 3028WAT     H2 9327   9.617   6.895   3.555
 3029WAT      O 9328   2.314   5.616   0.698
 3029WAT     H1 9329   2.317   5.675   0.778
 3029WAT     H2 9330   2.365   5.659   0.623
 3030WAT      O 9331   6.381   2.775   8.241
 3030WAT     H1 9332   6.300   2.832   8.255
 3030WAT     H2 9333   6.361   2.704   8.174
 3031WAT      O 9334   7.253   8.893   7.075
 3031WAT     H1 9335   7.297   8.914   6.989
 3031WAT     H2 9336   7.257   8.972   7.136
 3032WAT      O 9337   6.613   4.695   3.073
 3032WAT     H1 9338   6.642   4.732   3.161
 3032WAT     H2 9339   6.530   4.640   3.085
 3033WAT      O 9340   6.921   3.340   5.950
 3033WAT     H1 9341   6.842   3.281   5.963
 3033WAT     H2 9342   6.894   3.436   5.963
 3034WAT      O 9343   3.531   0.760   3.009
 3034WAT     H1 9344   3.478   0.746   3.092
 3034WAT     H2 9345   3.620   0.798   3.032
 3035WAT      O 9346   6.698   7.814   5.839
 3035WAT     H1 9347   6.736   7.903   5.815
 3035WAT     H2 9348   6.669   7.815   5.934
 3036WAT      O 9349   7.632   5.885   9.767
 3036WAT     H1 9350   7.564   5.813   9.777
 3036WAT     H2 9351   7.644   5.932   9.854
 3037WAT      O 9352   2.399   0.637   1.374
 3037WAT     H1 9353   2.322   0.687   1.414
 3037WAT     H2 9354   2.386   0.629   1.275
 3038WAT      O 9355   2.437   4.101   8.231
 3038WAT     H1 9356   2.463   4.189   8.270
 3038WAT     H2 9357   2.518   4.055   8.195
 3039WAT      O 9358   9.863   3.380   5.568
 3039WAT     H1 9359   9.947   3.384   5.514
 3039WAT     H2 9360   9.799   3.450   5.535
 3040WAT      O 9361   0.548   5.795   4.094
 3040WAT     H1 9362   0.458   5.814   4.052
 3040WAT     H2 9363   0.610   5.761   4.023
 3041WAT      O 9364   5.042   0.220   9.368
 3041WAT     H1 9365   5.108   0.295   9.362
 3041WAT     H2 9366   4.958   0.246   9.319
 3042WAT      O 9367   6.215   3.573   0.701
 3042WAT     H1 9368   6.146   3.524   0.648
 3042WAT     H2 9369   6.211   3.545   0.797
 3043WAT      O 9370   4.036   4.387   1.712
 3043WAT     H1 9371   3.972   4.410   1.785
 3043WAT     H2 9372   3.994   4.406   1.624
 3044WAT      O 9373   8.772   9.479   0.545
 3044WAT     H1 9374   8.865   9.504   0.521
 3044WAT     H2 9375   8.741   9.405   0.486
 3045WAT      O 9376   1.952   9.171   0.747
 3045WAT     H1 9377   1.901   9.253   0.720
 3045WAT     H2 9378   2.021   9.150   0.677
 3046WAT      O 9379   8.846   2.263   6.049
 3046WAT     H1 9380   8.830   2.232   6.143
 3046WAT     H2 9381   8.794   2.206   5.986
 3047WAT      O 9382   4.049   2.878   1.282
 3047WAT     H1 9383   3.984   2.913   1.349
 3047WAT     H2 9384   4.095   2.955   1.237
 3048WAT      O 9385   2.209   3.197   5.298
 3048WAT     H1 9386   2.171   3.281   5.261
 3048WAT     H2 9387   2.143   3.122   5.286
 3049WAT      O 9388   1.447   0.119   8.074
 3049WAT     H1 9389   1.425   0.022   8.064
 3049WAT     H2 9390   1.535   0.138   8.031
 3050WAT      O 9391   0.964   6.696   1.088
 3050WAT     H1 9392   0.976   6.793   1.066
 3050WAT     H2 9393   1.047   6.662   1.133
 3051WAT      O 9394   2.589   6.872   8.689
 3051WAT     H1 9395   2.604   6.778   8.719
 3051WAT     H2 9396   2.664   6.930   8.722
 3052WAT      O 9397   4.870   5.481   0.520
 3052WAT     H1 9398   4.810   5.562   0.515
 3052WAT     H2 9399   4.855   5.424   0.439
 3053WAT      O 9400   4.860   4.591   9.883
 3053WAT     H1 9401   4.826   4.610   9.791
 3053WAT     H2 9402   4.872   4.493   9.895
 3054WAT      O 9403   8.586   0.820   5.701
 3054WAT     H1 9404   8.592   0.728   5.662
 3054WAT     H2 9405   8.551   0.884   5.632
 3055WAT      O 9406   9.646   5.947   6.341
 3055WAT     H1 9407   9.609   5.904   6.259
 3055WAT     H2 9408   9.606   5.904   6.422
 3056WAT      O 9409   2.499   3.797   4.696
 3056WAT     H1 9410   2.557   3.855   4.640
 3056WAT     H2 9411   2.540   3.706   4.703
 3057WAT      O 9412   7.204   7.576   0.910
 3057WAT     H1 9413   7.267   7.653   0.910
 3057WAT     H2 9414   7.145   7.580   0.991
 3058WAT      O 9415   3.790   8.099   8.316
 3058WAT     H1 9416   3.851   8.143   8.381
 3058WAT     H2 9417   3.696   8.126   8.335
 3059WAT      O 9418   2.063   1.024   6.283
 3059WAT     H1 9419   2.140   1.057   6.338
 3059WAT     H2 9420   2.096   0.997   6.192
 3060WAT      O 9421   6.269   7.566   3.401
 3060WAT     H1 9422   6.344   7.604   3.346
 3060WAT     H2 9423   6.182   7.588   3.359
 3061WAT      O 9424   4.740   0.343   6.340
 3061WAT     H1 9425   4.731   0.371   6.245
 3061WAT     H2 9426   4.836   0.350   6.368
 3062WAT      O 9427   6.608   9.585   1.830
 3062WAT     H1 9428   6.602   9.494   1.872
 3062WAT     H2 9429   6.549   9.588   1.750
 3063WAT      O 9430   4.402   3.271   1.170
 3063WAT     H1 9431   4.458   3.244   1.092
 3063WAT     H2 9432   4.318   3.315   1.137
 3064WAT      O 9433   6.934   4.757   6.932
 3064WAT     H1 9434   6.998   4.821   6.891
 3064WAT     H2 9435   6.863   4.807   6.982
 3065WAT      O 9436   9.266   0.813   7.538
 3065WAT     H1 9437   9.261   0.885   7.608
 3065WAT     H2 9438   9.293   0.854   7.451
 3066WAT      O 9439   7.637   8.662   0.270
 3066WAT     H1 9440   7.596   8.659   0.179
 3066WAT     H2 9441   7.572   8.626   0.337
 3067WAT      O 9442   0.624   9.764   0.251
 3067WAT     H1 9443   0.550   9.749   0.185
 3067WAT     H2 9444   0.654   9.676   0.289
 3068WAT      O 9445   1.449   8.942   1.704
 3068WAT     H1 9446   1.470   8.929   1.800
 3068WAT     H2 9447   1.428   9.039   1.687
 3069WAT      O 9448   2.575   4.118   7.041
 3069WAT     H1 9449   2.592   4.165   7.128
 3069WAT     H2 9450   2.596   4.020   7.052
 3070WAT      O 9451   1.072   4.229   3.130
 3070WAT     H1 9452   0.977   4.253   3.110
 3070WAT     H2 9453   1.105   4.287   3.204
 3071WAT      O 9454   6.105   0.497   4.704
 3071WAT     H1 9455   6.200   0.481   4.677
 3071WAT     H2 9456   6.067   0.413   4.741
 3072WAT      O 9457   6.484   3.591   8.156
 3072WAT     H1 9458   6.518   3.588   8.250
 3072WAT     H2 9459   6.552   3.554   8.094
 3073WAT      O 9460   1.362   9.261   7.526
 3073WAT     H1 9461   1.392   9.336   7.585
 3073WAT     H2 9462   1.264   9.246   7.538
 3074WAT      O 9463   1.796   0.548   2.720
 3074WAT     H1 9464   1.783   0.605   2.639
 3074WAT     H2 9465   1.857   0.472   2.699
 3075WAT      O 9466   2.775   9.832   7.528
 3075WAT     H1 9467   2.712   9.810   7.603
 3075WAT     H2 9468   2.724   9.843   7.443
 3076WAT      O 9469   0.649   9.266   3.092
 3076WAT     H1 9470   0.636   9.195   3.024
 3076WAT     H2 9471   0.636   9.228   3.184
 3077WAT      O 9472   2.420   1.473   3.229
 3077WAT     H1 9473   2.449   1.543   3.294
 3077WAT     H2 9474   2.497   1.414   3.206
 3078WAT      O 9475   5.673   3.393   7.179
 3078WAT     H1 9476   5.689   3.482   7.137
 3078WAT     H2 9477   5.673   3.322   7.109
 3079WAT      O 9478   8.310   6.125   7.018
 3079WAT     H1 9479   8.404   6.129   7.051
 3079WAT     H2 9480   8.264   6.212   7.036
 3080WAT      O 9481   2.721   6.885   9.647
 3080WAT     H1 9482   2.727   6.899   9.746
 3080WAT     H2 9483   2.632   6.844   9.625
 3081WAT      O 9484   5.102   3.695   4.711
 3081WAT     H1 9485   5.119   3.793   4.714
 3081WAT     H2 9486   5.189   3.647   4.701
 3082WAT      O 9487   8.140   1.806   2.425
 3082WAT     H1 9488   8.172   1.798   2.519
 3082WAT     H2 9489   8.063   1.871   2.421
 3083WAT      O 9490   4.510   7.642   0.289
 3083WAT     H1 9491   4.492   7.621   0.192
 3083WAT     H2 9492   4.498   7.740   0.304
 3084WAT      O 9493   3.657   8.945   2.583
 3084WAT     H1 9494   3.647   8.968   2.680
 3084WAT     H2 9495   3.735   8.993   2.544
 3085WAT      O 9496   9.113   2.691   0.207
 3085WAT     H1 9497   9.213   2.693   0.198
 3085WAT     H2 9498   9.079   2.785   0.212
 3086WAT      O 9499   5.061   3.932   2.367
 3086WAT     H1 9500   5.124   3.966   2.438
 3086WAT     H2 9501   5.006   3.858   2.405
 3087WAT      O 9502   8.386   2.568   9.201
 3087WAT     H1 9503   8.400   2.609   9.291
 3087WAT     H2 9504   8.475   2.539   9.164
 3088WAT      O 9505   0.115   8.771   7.844
 3088WAT     H1 9506   0.102   8.810   7.753
 3088WAT     H2 9507   0.038   8.711   7.867
 3089WAT      O 9508   7.500   7.744   0.358
 3089WAT     H1 9509   7.587   7.793   0.349
 3089WAT     H2 9510   7.515   7.657   0.405
 3090WAT      O 9511   6.172   1.910   6.986
 3090WAT     H1 9512   6.228   1.836   7.026
 3090WAT     H2 9513   6.153   1.978   7.056
 3091WAT      O 9514   1.925   5.964   5.707
 3091WAT     H1 9515   1.959   6.047   5.752
 3091WAT     H2 9516   2.002   5.905   5.682
 3092WAT      O 9517   7.356   4.454   5.512
 3092WAT     H1 9518   7.319   4.537   5.471
 3092WAT     H2 9519   7.296   4.424   5.586
 3093WAT      O 9520   4.237   2.063   1.674
 3093WAT     H1 9521   4.178   2.137   1.642
 3093WAT     H2 9522   4.247   1.994   1.602
 3094WAT      O 9523   8.157   3.336   8.903
 3094WAT     H1 9524   8.244   3.349   8.857
 3094WAT     H2 9525   8.111   3.424   8.914
 3095WAT      O 9526   1.638   3.618   0.765
 3095WAT     H1 9527   1.720   3.674   0.775
 3095WAT     H2 9528   1.564   3.657   0.819
 3096WAT      O 9529   0.547   9.594   4.491
 3096WAT     H1 9530   0.507   9.613   4.402
 3096WAT     H2 9531   0.556   9.679   4.543
 3097WAT      O 9532   2.604   8.248   5.076
 3097WAT     H1 9533   2.703   8.245   5.070
 3097WAT     H2 9534   2.573   8.343   5.073
 3098WAT      O 9535   9.767   4.022   6.200
 3098WAT     H1 9536   9.768   3.925   6.225
 3098WAT     H2 9537   9.860   4.052   6.177
 3099WAT      O 9538   2.615   9.790   6.608
 3099WAT     H1 9539   2.695   9.743   6.646
 3099WAT     H2 9540   2.605   9.879   6.652
 3100WAT      O 9541   2.530   0.547   1.653
 3100WAT     H1 9542   2.477   0.616   1.604
 3100WAT     H2 9543   2.471   0.498   1.717
 3101WAT      O 9544   2.406   0.123   6.416
 3101WAT     H1 9545   2.415   0.110   6.514
 3101WAT     H2 9546   2.316   0.090   6.387
 3102WAT      O 9547   4.338   1.267   0.439
 3102WAT     H1 9548   4.419   1.257   0.381
 3102WAT     H2 9549   4.260   1.223   0.397
 3103WAT      O 9550   0.215   1.783   2.667
 3103WAT     H1 9551   0.230   1.690   2.699
 3103WAT     H2 9552   0.170   1.782   2.578
 3104WAT      O 9553   2.951   3.858   8.719
 3104WAT     H1 9554   2.911   3.768   8.706
 3104WAT     H2 9555   2.965   3.875   8.817
 3105WAT      O 9556   3.289   6.652   5.012
 3105WAT     H1 9557   3.338   6.726   5.058
 3105WAT     H2 9558   3.341   6.623   4.932
 3106WAT      O 9559   9.265   8.395   5.006
 3106WAT     H1 9560   9.255   8.479   4.953
 3106WAT     H2 9561   9.216   8.321   4.960
 3107WAT      O 9562   8.001   8.572   4.972
 3107WAT     H1 9563   8.024   8.492   4.917
 3107WAT     H2 9564   8.005   8.654   4.915
 3108WAT      O 9565   3.052   1.236   0.240
 3108WAT     H1 9566   3.076   1.317   0.187
 3108WAT     H2 9567   3.135   1.194   0.276
 3109WAT      O 9568   8.745   4.111   1.893
 3109WAT     H1 9569   8.778   4.075   1.980
 3109WAT     H2 9570   8.695   4.039   1.844
 3110WAT      O 9571   4.597   5.107   2.691
 3110WAT     H1 9572   4.598   5.008   2.682
 3110WAT     H2 9573   4.572   5.149   2.604
 3111WAT      O 9574   6.734   7.765   3.076
 3111WAT     H1 9575   6.662   7.803   3.134
 3111WAT     H2 9576   6.816   7.747   3.131
 3112WAT      O 9577   3.393   5.789   7.336
 3112WAT     H1 9578   3.326   5.818   7.404
 3112WAT     H2 9579   3.407   5.690   7.343
 3113WAT      O 9580   1.171   3.314   6.173
 3113WAT     H1 9581   1.184   3.221   6.209
 3113WAT     H2 9582   1.246   3.372   6.204
 3114WAT      O 9583   0.671   6.966   0.989
 3114WAT     H1 9584   0.710   7.002   1.073
 3114WAT     H2 9585   0.673   6.866   0.992
 3115WAT      O 9586   3.746   7.472   0.338
 3115WAT     H1 9587   3.790   7.544   0.283
 3115WAT     H2 9588   3.722   7.509   0.428
 3116WAT      O 9589   2.527   0.299   1.511
 3116WAT     H1 9590   2.504   0.238   1.587
 3116WAT     H2 9591   2.553   0.389   1.547
 3117WAT      O 9592   0.296   4.895   5.063
 3117WAT     H1 9593   0.332   4.913   4.971
 3117WAT     H2 9594   0.226   4.962   5.085
 3118WAT      O 9595   1.370   3.825   7.955
 3118WAT     H1 9596   1.389   3.821   7.856
 3118WAT     H2 9597   1.457   3.825   8.005
 3119WAT      O 9598   1.049   8.548   0.744
 3119WAT     H1 9599   0.970   8.570   0.686
 3119WAT     H2 9600   1.018   8.497   0.824
 3120WAT      O 9601   2.562   8.673   8.481
 3120WAT     H1 9602   2.529   8.590   8.438
 3120WAT     H2 9603   2.649   8.655   8.528
 3121WAT      O 9604   0.234   2.815   2.485
 3121WAT     H1 9605   0.134   2.815   2.482
 3121WAT     H2 9606   0.265   2.797   2.579
 3122WAT      O 9607   2.505   1.780   8.657
 3122WAT     H1 9608   2.418   1.751   8.699
 3122WAT     H2 9609   2.486   1.846   8.585
 3123WAT      O 9610   6.849   8.048   6.162
 3123WAT     H1 9611   6.833   8.084   6.254
 3123WAT     H2 9612   6.947   8.048   6.143
 3124WAT      O 9613   7.552   4.461   9.190
 3124WAT     H1 9614   7.648   4.480   9.209
 3124WAT     H2 9615   7.499   4.545   9.196
 3125WAT      O 9616   5.390   3.888   4.802
 3125WAT     H1 9617   5.375   3.828   4.880
 3125WAT     H2 9618   5.338   3.973   4.814
 3126WAT      O 9619   4.187   7.060   3.429
 3126WAT     H1 9620   4.214   6.964   3.437
 3126WAT     H2 9621   4.107   7.077   3.486
 3127WAT      O 9622   8.763   5.262   7.444
 3127WAT     H1 9623   8.664   5.251   7.450
 3127WAT     H2 9624   8.804   5.180   7.403
 3128WAT      O 9625   3.874   5.098   6.324
 3128WAT     H1 9626   3.784   5.139   6.309
 3128WAT     H2 9627   3.921   5.146   6.398
 3129WAT      O 9628   0.671   9.647   9.817
 3129WAT     H1 9629   0.589   9.687   9.858
 3129WAT     H2 9630   0.753   9.687   9.860
 3130WAT      O 9631   9.202   7.129   0.320
 3130WAT     H1 9632   9.234   7.101   0.229
 3130WAT     H2 9633   9.186   7.228   0.321
 3131WAT      O 9634   5.006   0.047   2.387
 3131WAT     H1 9635   5.054   0.041   2.299
 3131WAT     H2 9636   5.013  -0.040   2.435
 3132WAT      O 9637   8.441   0.147   9.435
 3132WAT     H1 9638   8.442   0.049   9.413
 3132WAT     H2 9639   8.351   0.185   9.411
 3133WAT      O 9640   5.094   8.286   4.168
 3133WAT     H1 9641   4.996   8.263   4.166
 3133WAT     H2 9642   5.146   8.204   4.190
 3134WAT      O 9643   3.252   6.687   4.194
 3134WAT     H1 9644   3.348   6.674   4.220
 3134WAT     H2 9645   3.200   6.718   4.273
 3135WAT      O 9646   0.038   4.103   1.125
 3135WAT     H1 9647   0.058   4.011   1.091
 3135WAT     H2 9648   0.044   4.104   1.225
 3136WAT      O 9649   0.271   8.972   4.707
 3136WAT     H1 9650   0.252   9.025   4.625
 3136WAT     H2 9651   0.222   9.012   4.785
 3137WAT      O 9652   5.980   0.184   6.635
 3137WAT     H1 9653   6.038   0.226   6.705
 3137WAT     H2 9654   5.925   0.254   6.591
 3138WAT      O 9655   3.971   7.880   9.415
 3138WAT     H1 9656   3.873   7.900   9.406
 3138WAT     H2 9657   4.006   7.848   9.327
 3139WAT      O 9658   5.197   0.397   2.134
 3139WAT     H1 9659   5.168   0.302   2.145
 3139WAT     H2 9660   5.246   0.426   2.216
 3140WAT      O 9661   4.539   7.909   0.678
 3140WAT     H1 9662   4.604   7.923   0.604
 3140WAT     H2 9663   4.586   7.916   0.766
 3141WAT      O 9664   4.887   4.000   5.388
 3141WAT     H1 9665   4.873   4.058   5.307
 3141WAT     H2 9666   4.926   3.913   5.361
 3142WAT      O 9667   8.681   5.579   9.291
 3142WAT     H1 9668   8.689   5.625   9.202
 3142WAT     H2 9669   8.770   5.579   9.336
 3143WAT      O 9670   5.653   6.772   1.166
 3143WAT     H1 9671   5.575   6.816   1.210
 3143WAT     H2 9672   5.693   6.704   1.227
 3144WAT      O 9673   4.223   1.760   9.503
 3144WAT     H1 9674   4.270   1.675   9.482
 3144WAT     H2 9675   4.158   1.781   9.430
 3145WAT      O 9676   9.558   1.015   4.832
 3145WAT     H1 9677   9.591   0.942   4.773
 3145WAT     H2 9678   9.557   0.982   4.927
 3146WAT      O 9679   4.270   1.940   0.068
 3146WAT     H1 9680   4.306   1.889  -0.010
 3146WAT     H2 9681   4.216   1.879   0.126
 3147WAT      O 9682   9.096   5.267   8.348
 3147WAT     H1 9683   9.118   5.233   8.256
 3147WAT     H2 9684   9.161   5.338   8.374
 3148WAT      O 9685   7.053   9.035   2.829
 3148WAT     H1 9686   7.135   9.082   2.797
 3148WAT     H2 9687   7.078   8.949   2.872
 3149WAT      O 9688   6.338   6.513   3.292
 3149WAT     H1 9689   6.295   6.586   3.240
 3149WAT     H2 9690   6.418   6.549   3.340
 3150WAT      O 9691   4.087   2.206   3.311
 3150WAT     H1 9692   4.073   2.247   3.220
 3150WAT     H2 9693   4.106   2.278   3.377
 3151WAT      O 9694   3.743   8.619   7.749
 3151WAT     H1 9695   3.781   8.652   7.835
 3151WAT     H2 9696   3.661   8.672   7.725
 3152WAT      O 9697   5.285   5.633   9.695
 3152WAT     H1 9698   5.212   5.567   9.714
 3152WAT     H2 9699   5.288   5.701   9.768
 3153WAT      O 9700   0.027   5.007   4.930
 3153WAT     H1 9701   0.091   5.041   4.999
 3153WAT     H2 9702  -0.066   5.024   4.959
 3154WAT      O 9703   3.665   4.591   6.050
 3154WAT     H1 9704   3.619   4.567   6.135
 3154WAT     H2 9705   3.610   4.561   5.972
 3155WAT      O 9706   2.869   8.587   4.777
 3155WAT     H1 9707   2.884   8.590   4.678
 3155WAT     H2 9708   2.860   8.492   4.806
 3156WAT      O 9709   3.506   6.531   5.298
 3156WAT     H1 9710   3.447   6.577   5.364
 3156WAT     H2 9711   3.598   6.569   5.304
 3157WAT      O 9712   4.757   4.724   5.598
 3157WAT     H1 9713   4.838   4.669   5.576
 3157WAT     H2 9714   4.690   4.715   5.525
 3158WAT      O 9715   9.389   4.296   1.917
 3158WAT     H1 9716   9.339   4.262   1.996
 3158WAT     H2 9717   9.327   4.348   1.858
 3159WAT      O 9718   1.233   4.919   1.771
 3159WAT     H1 9719   1.247   4.953   1.678
 3159WAT     H2 9720   1.243   4.819   1.772
 3160WAT      O 9721   3.352   6.326   3.758
 3160WAT     H1 9722   3.263   6.348   3.717
 3160WAT     H2 9723   3.339   6.303   3.854
 3161WAT      O 9724   6.899   3.031   0.119
 3161WAT     H1 9725   6.931   2.987   0.036
 3161WAT     H2 9726   6.964   3.102   0.147
 3162WAT      O 9727   0.762   2.732   1.898
 3162WAT     H1 9728   0.682   2.792   1.893
 3162WAT     H2 9729   0.737   2.647   1.943
 3163WAT      O 9730   5.556   3.966   6.482
 3163WAT     H1 9731   5.540   4.047   6.426
 3163WAT     H2 9732   5.649   3.933   6.466
 3164WAT      O 9733   7.129   4.952   3.158
 3164WAT     H1 9734   7.218   4.967   3.202
 3164WAT     H2 9735   7.092   4.864   3.186
 3165WAT      O 9736   8.281   5.503   0.116
 3165WAT     H1 9737   8.194   5.472   0.077
 3165WAT     H2 9738   8.352   5.434   0.099
 3166WAT      O 9739   3.402   2.334   9.259
 3166WAT     H1 9740   3.404   2.366   9.354
 3166WAT     H2 9741   3.394   2.412   9.198
 3167WAT      O 9742   9.809   1.528   6.163
 3167WAT     H1 9743   9.786   1.526   6.066
 3167WAT     H2 9744   9.740   1.581   6.212
 3168WAT      O 9745   3.747   6.374   1.954
 3168WAT     H1 9746   3.662   6.424   1.938
 3168WAT     H2 9747   3.801   6.423   2.022
 3169WAT      O 9748   7.820   1.141   8.647
 3169WAT     H1 9749   7.752   1.076   8.680
 3169WAT     H2 9750   7.893   1.093   8.599
 3170WAT      O 9751   7.093   2.468   0.400
 3170WAT     H1 9752   7.135   2.546   0.355
 3170WAT     H2 9753   7.159   2.425   0.462
 3171WAT      O 9754   2.005   8.564   4.229
 3171WAT     H1 9755   1.966   8.599   4.144
 3171WAT     H2 9756   2.098   8.531   4.212
 3172WAT      O 9757   5.249   2.722   6.331
 3172WAT     H1 9758   5.278   2.817   6.322
 3172WAT     H2 9759   5.323   2.661   6.303
 3173WAT      O 9760   3.430   7.193   7.997
 3173WAT     H1 9761   3.375   7.165   7.919
 3173WAT     H2 9762   3.416   7.290   8.016
 3174WAT      O 9763   7.525   3.940   6.984
 3174WAT     H1 9764   7.594   3.962   7.053
 3174WAT     H2 9765   7.439   3.915   7.028
 3175WAT      O 9766   7.479   6.806   1.305
 3175WAT     H1 9767   7.430   6.764   1.380
 3175WAT     H2 9768   7.528   6.887   1.337
 3176WAT      O 9769   0.379   6.581   9.426
 3176WAT     H1 9770   0.425   6.611   9.510
 3176WAT     H2 9771   0.326   6.498   9.445
 3177WAT      O 9772   8.347   8.549   3.729
 3177WAT     H1 9773   8.281   8.515   3.796
 3177WAT     H2 9774   8.316   8.525   3.637
 3178WAT      O 9775   3.051   8.937   6.101
 3178WAT     H1 9776   3.021   9.015   6.157
 3178WAT     H2 9777   2.971   8.891   6.062
 3179WAT      O 9778   6.883   8.711   0.833
 3179WAT     H1 9779   6.786   8.691   0.844
 3179WAT     H2 9780   6.903   8.728   0.737
 3180WAT      O 9781   2.005   7.884   9.726
 3180WAT     H1 9782   2.027   7.963   9.669
 3180WAT     H2 9783   2.089   7.842   9.759
 3181WAT      O 9784   6.911   8.665   3.453
 3181WAT     H1 9785   6.946   8.635   3.364
 3181WAT     H2 9786   6.964   8.623   3.526
 3182WAT      O 9787   4.773   4.191   1.964
 3182WAT     H1 9788   4.779   4.234   2.054
 3182WAT     H2 9789   4.727   4.103   1.972
 3183WAT      O 9790   3.130   1.447   8.139
 3183WAT     H1 9791   3.196   1.450   8.213
 3183WAT     H2 9792   3.091   1.538   8.125
 3184WAT      O 9793   7.835   3.609   6.239
 3184WAT     H1 9794   7.841   3.583   6.143
 3184WAT     H2 9795   7.753   3.569   6.280
 3185WAT      O 9796   2.954   8.481   0.741
 3185WAT     H1 9797   2.920   8.412   0.805
 3185WAT     H2 9798   2.981   8.563   0.792
 3186WAT      O 9799   6.343   3.308   0.605
 3186WAT     H1 9800   6.349   3.284   0.702
 3186WAT     H2 9801   6.291   3.392   0.595
 3187WAT      O 9802   6.394   3.846   7.964
 3187WAT     H1 9803   6.436   3.878   8.049
 3187WAT     H2 9804   6.428   3.900   7.888
 3188WAT      O 9805   9.677   8.131   3.475
 3188WAT     H1 9806   9.611   8.147   3.402
 3188WAT     H2 9807   9.755   8.080   3.439
 3189WAT      O 9808   1.398   6.339   3.982
 3189WAT     H1 9809   1.463   6.415   3.986
 3189WAT     H2 9810   1.446   6.254   4.003
 3190WAT      O 9811   1.964   8.590   6.286
 3190WAT     H1 9812   1.894   8.539   6.337
 3190WAT     H2 9813   1.958   8.687   6.310
 3191WAT      O 9814   1.815   7.182   8.808
 3191WAT     H1 9815   1.780   7.169   8.715
 3191WAT     H2 9816   1.820   7.280   8.828
 3192WAT      O 9817   3.849   8.428   0.832
 3192WAT     H1 9818   3.909   8.443   0.754
 3192WAT     H2 9819   3.904   8.421   0.916
 3193WAT      O 9820   5.442   2.741   2.283
 3193WAT     H1 9821   5.444   2.782   2.192
 3193WAT     H2 9822   5.372   2.670   2.286
 3194WAT      O 9823   4.470   6.506   4.849
 3194WAT     H1 9824   4.404   6.451   4.900
 3194WAT     H2 9825   4.456   6.603   4.869
 3195WAT      O 9826   8.990   4.769   6.616
 3195WAT     H1 9827   9.023   4.862   6.632
 3195WAT     H2 9828   9.009   4.712   6.696
 3196WAT      O 9829   5.807   2.644   6.325
 3196WAT     H1 9830   5.769   2.554   6.348
 3196WAT     H2 9831   5.852   2.683   6.405
 3197WAT      O 9832   6.486   1.283   6.249
 3197WAT     H1 9833   6.431   1.317   6.172
 3197WAT     H2 9834   6.563   1.230   6.214
 3198WAT      O 9835   5.411   0.008   0.655
 3198WAT     H1 9836   5.431  -0.048   0.736
 3198WAT     H2 9837   5.324   0.055   0.668
 3199WAT      O 9838   6.598   8.360   1.310
 3199WAT     H1 9839   6.685   8.383   1.354
 3199WAT     H2 9840   6.577   8.427   1.240
 3200WAT      O 9841   8.032   4.682   2.409
 3200WAT     H1 9842   8.129   4.691   2.385
 3200WAT     H2 9843   7.976   4.710   2.331
 3201WAT      O 9844   8.345   8.391   8.203
 3201WAT     H1 9845   8.307   8.362   8.116
 3201WAT     H2 9846   8.384   8.483   8.194
 3202WAT      O 9847   7.690   4.117   2.925
 3202WAT     H1 9848   7.622   4.064   2.977
 3202WAT     H2 9849   7.675   4.215   2.941
 3203WAT      O 9850   8.438   6.746   6.418
 3203WAT     H1 9851   8.366   6.781   6.478
 3203WAT     H2 9852   8.524   6.794   6.437
 3204WAT      O 9853   4.927   4.793   8.030
 3204WAT     H1 9854   4.840   4.748   8.009
 3204WAT     H2 9855   4.934   4.878   7.979
 3205WAT      O 9856   6.759   5.841   3.940
 3205WAT     H1 9857   6.693   5.768   3.961
 3205WAT     H2 9858   6.803   5.871   4.025
 3206WAT      O 9859   6.323   8.113   1.093
 3206WAT     H1 9860   6.405   8.109   1.036
 3206WAT     H2 9861   6.274   8.199   1.075
 3207WAT      O 9862   4.076   5.149   1.675
 3207WAT     H1 9863   4.139   5.144   1.752
 3207WAT     H2 9864   4.127   5.169   1.591
 3208WAT      O 9865   9.377   0.175   0.110
 3208WAT     H1 9866   9.294   0.153   0.161
 3208WAT     H2 9867   9.429   0.091   0.094
 3209WAT      O 9868   7.562  -0.002   5.202
 3209WAT     H1 9869   7.613   0.041   5.275
 3209WAT     H2 9870   7.464  -0.002   5.224
 3210WAT      O 9871   5.600   7.299   8.031
 3210WAT     H1 9872   5.627   7.246   7.951
 3210WAT     H2 9873   5.679   7.312   8.091
 3211WAT      O 9874   0.835   9.078   9.789
 3211WAT     H1 9875   0.869   8.996   9.834
 3211WAT     H2 9876   0.901   9.153   9.801
 3212WAT      O 9877   3.245   0.329   0.776
 3212WAT     H1 9878   3.227   0.302   0.681
 3212WAT     H2 9879   3.166   0.380   0.811
 3213WAT      O 9880   9.175   8.949   5.438
 3213WAT     H1 9881   9.083   8.990   5.445
 3213WAT     H2 9882   9.194   8.897   5.521
 3214WAT      O 9883   1.627   3.915   3.312
 3214WAT     H1 9884   1.568   3.853   3.262
 3214WAT     H2 9885   1.574   3.963   3.382
 3215WAT      O 9886   5.644   6.416   0.652
 3215WAT     H1 9887   5.663   6.344   0.585
 3215WAT     H2 9888   5.725   6.433   0.707
 3216WAT      O 9889   3.145   6.599   3.716
 3216WAT     H1 9890   3.091   6.669   3.670
 3216WAT     H2 9891   3.162   6.626   3.810
 3217WAT      O 9892   1.048   1.883   1.903
 3217WAT     H1 9893   1.019   1.932   1.986
 3217WAT     H2 9894   1.075   1.949   1.833
 3218WAT      O 9895   9.110   5.694   9.605
 3218WAT     H1 9896   9.157   5.743   9.531
 3218WAT     H2 9897   9.054   5.759   9.657
 3219WAT      O 9898   2.843   5.043   0.710
 3219WAT     H1 9899   2.833   5.102   0.790
 3219WAT     H2 9900   2.762   4.985   0.700
 3220WAT      O 9901   6.648   5.882   1.652
 3220WAT     H1 9902   6.596   5.877   1.567
 3220WAT     H2 9903   6.698   5.968   1.655
 3221WAT      O 9904   0.001   2.309   3.282
 3221WAT     H1 9905   0.092   2.348   3.298
 3221WAT     H2 9906   0.000   2.214   3.313
 3222WAT      O 9907   9.128   3.703   9.460
 3222WAT     H1 9908   9.225   3.723   9.444
 3222WAT     H2 9909   9.120   3.630   9.528
 3223WAT      O 9910   9.187   4.098   7.969
 3223WAT     H1 9911   9.231   4.128   8.054
 3223WAT     H2 9912   9.098   4.056   7.991
 3224WAT      O 9913   0.376   3.903   0.166
 3224WAT     H1 9914   0.391   3.949   0.079
 3224WAT     H2 9915   0.350   3.970   0.236
 3225WAT      O 9916   3.234   4.716   8.515
 3225WAT     H1 9917   3.248   4.813   8.496
 3225WAT     H2 9918   3.302   4.662   8.465
 3226WAT      O 9919   9.141   6.895   6.344
 3226WAT     H1 9920   9.149   6.981   6.294
 3226WAT     H2 9921   9.202   6.898   6.424
 3227WAT      O 9922   0.918   5.090   9.561
 3227WAT     H1 9923   0.950   4.997   9.578
 3227WAT     H2 9924   0.976   5.134   9.493
 3228WAT      O 9925   0.100   5.778   0.724
 3228WAT     H1 9926   0.116   5.876   0.715
 3228WAT     H2 9927   0.025   5.751   0.664
 3229WAT      O 9928   5.859   7.739   8.330
 3229WAT     H1 9929   5.863   7.644   8.360
 3229WAT     H2 9930   5.816   7.745   8.240
 3230WAT      O 9931   3.496   7.473   4.318
 3230WAT     H1 9932   3.537   7.385   4.344
 3230WAT     H2 9933   3.463   7.519   4.400
 3231WAT      O 9934   1.953   6.071   3.075
 3231WAT     H1 9935   2.040   6.062   3.026
 3231WAT     H2 9936   1.894   6.134   3.025
 3232WAT      O 9937   0.898   3.797   6.799
 3232WAT     H1 9938   0.910   3.862   6.874
 3232WAT     H2 9939   0.987   3.775   6.759
 3233WAT      O 9940   5.941   8.848   2.886
 3233WAT     H1 9941   5.875   8.921   2.904
 3233WAT     H2 9942   6.026   8.867   2.935
 3234WAT      O 9943   6.364   5.557   0.142
 3234WAT     H1 9944   6.339   5.480   0.201
 3234WAT     H2 9945   6.339   5.643   0.187
 3235WAT      O 9946   0.921   4.325   8.521
 3235WAT     H1 9947   0.996   4.341   8.457
 3235WAT     H2 9948   0.884   4.233   8.507
 3236WAT      O 9949   9.850   0.745   3.150
 3236WAT     H1 9950   9.817   0.696   3.070
 3236WAT     H2 9951   9.905   0.823   3.121
 3237WAT      O 9952   5.125   3.303   8.780
 3237WAT     H1 9953   5.118   3.230   8.713
 3237WAT     H2 9954   5.151   3.388   8.734
 3238WAT      O 9955   1.030   8.059   0.561
 3238WAT     H1 9956   1.121   8.022   0.583
 3238WAT     H2 9957   0.970   8.049   0.640
 3239WAT      O 9958   2.232   7.387   0.580
 3239WAT     H1 9959   2.244   7.335   0.664
 3239WAT     H2 9960   2.322   7.418   0.547
 3240WAT      O 9961   0.048   2.782   7.485
 3240WAT     H1 9962   0.118   2.851   7.504
 3240WAT     H2 9963   0.046   2.715   7.559
 3241WAT      O 9964   5.221   5.099   5.186
 3241WAT     H1 9965   5.304   5.126   5.235
 3241WAT     H2 9966   5.141   5.117   5.245
 3242WAT      O 9967   0.293   8.107   8.713
 3242WAT     H1 9968   0.279   8.009   8.699
 3242WAT     H2 9969   0.205   8.151   8.731
 3243WAT      O 9970   9.683   0.503   2.717
 3243WAT     H1 9971   9.674   0.564   2.639
 3243WAT     H2 9972   9.595   0.459   2.736
 3244WAT      O 9973   5.757   1.997   2.214
 3244WAT     H1 9974   5.689   2.034   2.151
 3244WAT     H2 9975   5.720   1.917   2.260
 3245WAT      O 9976   2.992   4.754   3.541
 3245WAT     H1 9977   3.004   4.782   3.636
 3245WAT     H2 9978   2.963   4.832   3.487
 3246WAT      O 9979   5.573   4.444   7.568
 3246WAT     H1 9980   5.656   4.410   7.613
 3246WAT     H2 9981   5.493   4.406   7.614
 3247WAT      O 9982   5.411   2.394   4.309
 3247WAT     H1 9983   5.494   2.406   4.254
 3247WAT     H2 9984   5.340   2.351   4.254
 3248WAT      O 9985   9.760   0.809   5.204
 3248WAT     H1 9986   9.829   0.867   5.246
 3248WAT     H2 9987   9.782   0.796   5.107
 3249WAT      O 9988   5.429   0.128   3.109
 3249WAT     H1 9989   5.410   0.226   3.106
 3249WAT     H2 9990   5.445   0.100   3.204
 3250WAT      O 9991   4.899   2.049   0.900
 3250WAT     H1 9992   4.932   2.041   0.806
 3250WAT     H2 9993   4.813   2.099   0.901
 3251WAT      O 9994   1.146   2.903   6.123
 3251WAT     H1 9995   1.217   2.955   6.076
 3251WAT     H2 9996   1.139   2.935   6.218
 3252WAT      O 9997   0.253   8.240   7.786
 3252WAT     H1 9998   0.287   8.311   7.848
 3252WAT     H2 9999   0.157   8.260   7.764
 3253WAT      O10000   7.881   7.895   5.207
 3253WAT     H110001   7.865   7.951   5.126
 3253WAT     H210002   7.812   7.823   5.213
 3254WAT      O10003   5.982   6.529   5.983
 3254WAT     H110004   5.941   6.476   6.057
 3254WAT     H210005   5.933   6.615   5.973
 3255WAT      O10006   2.145   6.015   9.242
 3255WAT     H110007   2.135   6.062   9.329
 3255WAT     H210008   2.065   5.959   9.224
 3256WAT      O10009   5.957   2.561   1.039
 3256WAT     H110010   5.914   2.525   0.956
 3256WAT     H210011   5.997   2.485   1.091
 3257WAT      O10012   7.913   0.383   3.617
 3257WAT     H110013   7.991   0.335   3.576
 3257WAT     H210014   7.837   0.319   3.626
 3258WAT      O10015   6.324   9.192   1.036
 3258WAT     H110016   6.412   9.143   1.040
 3258WAT     H210017   6.270   9.169   1.117
 3259WAT      O10018   8.432   8.046   4.753
 3259WAT     H110019   8.530   8.062   4.770
 3259WAT     H210020   8.413   7.948   4.752
 3260WAT      O10021   1.601   6.159   7.617
 3260WAT     H110022   1.545   6.080   7.591
 3260WAT     H210023   1.687   6.128   7.657
 3261WAT      O10024   8.611   8.009   9.681
 3261WAT     H110025   8.560   7.936   9.727
 3261WAT     H210026   8.603   8.094   9.734
 3262WAT      O10027   9.687   9.353   9.204
 3262WAT     H110028   9.630   9.274   9.226
 3262WAT     H210029   9.781   9.335   9.232
 3263WAT      O10030   4.924   1.135   3.873
 3263WAT     H110031   4.978   1.179   3.801
 3263WAT     H210032   4.969   1.148   3.962
 3264WAT      O10033   9.111   3.803   4.230
 3264WAT     H110034   9.036   3.811   4.164
 3264WAT     H210035   9.128   3.892   4.273
 3265WAT      O10036   5.879   3.047   9.166
 3265WAT     H110037   5.898   2.972   9.102
 3265WAT     H210038   5.780   3.062   9.170
 3266WAT      O10039   0.123   2.006   1.278
 3266WAT     H110040   0.117   1.906   1.280
 3266WAT     H210041   0.177   2.038   1.356
 3267WAT      O10042   6.700   8.668   7.073
 3267WAT     H110043   6.651   8.654   6.987
 3267WAT     H210044   6.640   8.642   7.149
 3268WAT      O10045   6.009   1.689   5.082
 3268WAT     H110046   5.952   1.770   5.093
 3268WAT     H210047   5.994   1.650   4.991
 3269WAT      O10048   2.487   1.046   8.707
 3269WAT     H110049   2.510   0.954   8.739
 3269WAT     H210050   2.475   1.044   8.608
 3270WAT      O10051   9.847   4.980   4.506
 3270WAT     H110052   9.884   4.920   4.577
 3270WAT     H210053   9.852   4.933   4.418
 3271WAT      O10054   0.415   3.298   9.372
 3271WAT     H110055   0.480   3.281   9.298
 3271WAT     H210056   0.384   3.393   9.369
 3272WAT      O10057   4.935   5.809   5.675
 3272WAT     H110058   4.849   5.790   5.627
 3272WAT     H210059   4.952   5.737   5.742
 3273WAT      O10060   1.952   1.123   4.255
 3273WAT     H110061   1.952   1.057   4.330
 3273WAT     H210062   1.858   1.151   4.235
 3274WAT      O10063   7.457   4.786   8.038
 3274WAT     H110064   7.406   4.819   7.959
 3274WAT     H210065   7.408   4.709   8.080
 3275WAT      O10066   0.625   5.865   2.275
 3275WAT     H110067   0.671   5.777   2.285
 3275WAT     H210068   0.593   5.896   2.365
 3276WAT      O10069   0.737   1.685   4.255
 3276WAT     H110070   0.776   1.712   4.343
 3276WAT     H210071   0.810   1.655   4.194
 3277WAT      O10072   6.074   4.084   9.436
 3277WAT     H110073   6.095   4.114   9.343
 3277WAT     H210074   6.095   3.987   9.446
 3278WAT      O10075   1.432   3.656   1.701
 3278WAT     H110076   1.408   3.742   1.746
 3278WAT     H210077   1.355   3.593   1.707
 3279WAT      O10078   4.771   3.961   2.698
 3279WAT     H110079   4.697   3.904   2.733
 3279WAT     H210080   4.821   4.003   2.774
 3280WAT      O10081   8.256   1.505   8.852
 3280WAT     H110082   8.169   1.554   8.849
 3280WAT     H210083   8.253   1.435   8.924
 3281WAT      O10084   7.788   4.086   6.260
 3281WAT     H110085   7.747   4.152   6.323
 3281WAT     H210086   7.793   4.127   6.169
 3282WAT      O10087   8.688   2.241   1.977
 3282WAT     H110088   8.725   2.297   1.902
 3282WAT     H210089   8.654   2.155   1.940
 3283WAT      O10090   9.861   4.540   8.830
 3283WAT     H110091   9.802   4.522   8.909
 3283WAT     H210092   9.957   4.523   8.856
 3284WAT      O10093   1.382   7.517   0.064
 3284WAT     H110094   1.313   7.459   0.022
 3284WAT     H210095   1.448   7.461   0.115
 3285WAT      O10096   1.039   0.805   6.997
 3285WAT     H110097   1.121   0.835   7.047
 3285WAT     H210098   1.067   0.752   6.917
 3286WAT      O10099   4.075   5.204   8.421
 3286WAT     H110100   4.161   5.247   8.449
 3286WAT     H210101   3.999   5.258   8.456
 3287WAT      O10102   0.402   5.402   4.065
 3287WAT     H110103   0.359   5.432   3.980
 3287WAT     H210104   0.463   5.325   4.045
 3288WAT      O10105   6.841   1.816   7.845
 3288WAT     H110106   6.819   1.914   7.848
 3288WAT     H210107   6.757   1.764   7.826
 3289WAT      O10108   6.480   3.620   4.502
 3289WAT     H110109   6.556   3.663   4.550
 3289WAT     H210110   6.400   3.680   4.504
 3290WAT      O10111   4.958   8.690   0.733
 3290WAT     H110112   4.896   8.733   0.799
 3290WAT     H210113   4.924   8.600   0.709
 3291WAT      O10114   4.671   9.237   9.727
 3291WAT     H110115   4.730   9.280   9.659
 3291WAT     H210116   4.681   9.285   9.814
 3292WAT      O10117   6.845   9.465   4.397
 3292WAT     H110118   6.757   9.493   4.436
 3292WAT     H210119   6.853   9.365   4.403
 3293WAT      O10120   3.351   6.679   4.619
 3293WAT     H110121   3.271   6.735   4.638
 3293WAT     H210122   3.416   6.730   4.562
 3294WAT      O10123   1.486   8.285   6.431
 3294WAT     H110124   1.454   8.374   6.463
 3294WAT     H210125   1.512   8.229   6.510
 3295WAT      O10126   1.307   0.396   7.177
 3295WAT     H110127   1.386   0.430   7.228
 3295WAT     H210128   1.314   0.426   7.081
 3296WAT      O10129   2.627   0.675   0.021
 3296WAT     H110130   2.566   0.738   0.068
 3296WAT     H210131   2.642   0.594   0.077
 3297WAT      O10132   2.775   7.574   2.472
 3297WAT     H110133   2.794   7.659   2.520
 3297WAT     H210134   2.685   7.580   2.428
 3298WAT      O10135   6.055   1.312   3.854
 3298WAT     H110136   5.986   1.379   3.825
 3298WAT     H210137   6.094   1.341   3.942
 3299WAT      O10138   8.784   8.166   4.313
 3299WAT     H110139   8.789   8.256   4.271
 3299WAT     H210140   8.758   8.175   4.410
 3300WAT      O10141   8.965   0.588   2.642
 3300WAT     H110142   8.928   0.510   2.592
 3300WAT     H210143   9.053   0.614   2.603
 3301WAT      O10144   7.170   9.197   7.771
 3301WAT     H110145   7.122   9.215   7.685
 3301WAT     H210146   7.161   9.276   7.832
 3302WAT      O10147   9.129   1.489   0.204
 3302WAT     H110148   9.153   1.508   0.299
 3302WAT     H210149   9.177   1.407   0.174
 3303WAT      O10150   9.450   2.065   7.746
 3303WAT     H110151   9.479   1.971   7.726
 3303WAT     H210152   9.447   2.118   7.661
 3304WAT      O10153   7.297   1.805   8.963
 3304WAT     H110154   7.346   1.719   8.950
 3304WAT     H210155   7.206   1.785   9.002
 3305WAT      O10156   6.547   8.031   8.877
 3305WAT     H110157   6.538   7.966   8.801
 3305WAT     H210158   6.468   8.023   8.937
 3306WAT      O10159   2.630   6.258   5.833
 3306WAT     H110160   2.663   6.348   5.861
 3306WAT     H210161   2.706   6.193   5.832
 3307WAT      O10162   2.606   0.736   5.142
 3307WAT     H110163   2.528   0.761   5.199
 3307WAT     H210164   2.588   0.649   5.097
 3308WAT      O10165   3.336   5.550   4.680
 3308WAT     H110166   3.353   5.635   4.630
 3308WAT     H210167   3.275   5.491   4.627
 3309WAT      O10168   9.635   0.957   5.629
 3309WAT     H110169   9.683   1.022   5.688
 3309WAT     H210170   9.579   0.896   5.684
 3310WAT      O10171   6.098   2.478   4.405
 3310WAT     H110172   6.128   2.565   4.445
 3310WAT     H210173   6.161   2.405   4.432
 3311WAT      O10174   3.050   8.348   6.494
 3311WAT     H110175   3.053   8.268   6.435
 3311WAT     H210176   3.032   8.430   6.439
 3312WAT      O10177   7.524   1.571   7.438
 3312WAT     H110178   7.589   1.559   7.513
 3312WAT     H210179   7.431   1.571   7.474
 3313WAT      O10180   2.116   2.241   2.156
 3313WAT     H110181   2.056   2.162   2.161
 3313WAT     H210182   2.067   2.322   2.187
 3314WAT      O10183   9.674   5.757   1.513
 3314WAT     H110184   9.713   5.779   1.603
 3314WAT     H210185   9.731   5.689   1.468
 3315WAT      O10186   6.097   1.596   0.444
 3315WAT     H110187   6.003   1.563   0.447
 3315WAT     H210188   6.097   1.696   0.432
 3316WAT      O10189   1.764   2.531   9.133
 3316WAT     H110190   1.817   2.604   9.176
 3316WAT     H210191   1.822   2.482   9.068
 3317WAT      O10192   2.890   3.609   4.703
 3317WAT     H110193   2.901   3.528   4.761
 3317WAT     H210194   2.917   3.587   4.609
 3318WAT      O10195   0.287   7.108   9.136
 3318WAT     H110196   0.265   7.129   9.041
 3318WAT     H210197   0.371   7.054   9.139
 3319WAT      O10198   9.338   6.401   1.492
 3319WAT     H110199   9.336   6.316   1.440
 3319WAT     H210200   9.264   6.401   1.559
 3320WAT      O10201   9.431   0.277   6.785
 3320WAT     H110202   9.481   0.191   6.785
 3320WAT     H210203   9.475   0.341   6.721
 3321WAT      O10204   8.068   7.585   6.925
 3321WAT     H110205   8.117   7.520   6.867
 3321WAT     H210206   7.982   7.611   6.881
 3322WAT      O10207   2.126   4.251   0.495
 3322WAT     H110208   2.209   4.226   0.546
 3322WAT     H210209   2.099   4.174   0.438
 3323WAT      O10210   0.652   9.491   5.050
 3323WAT     H110211   0.572   9.507   4.992
 3323WAT     H210212   0.734   9.488   4.994
 3324WAT      O10213   0.157   7.445   5.025
 3324WAT     H110214   0.247   7.419   4.990
 3324WAT     H210215   0.129   7.380   5.097
 3325WAT      O10216   7.510   0.223   0.529
 3325WAT     H110217   7.499   0.129   0.560
 3325WAT     H210218   7.607   0.242   0.514
 3326WAT      O10219   2.286   1.166   0.558
 3326WAT     H110220   2.258   1.072   0.539
 3326WAT     H210221   2.210   1.216   0.601
 3327WAT      O10222   7.843   1.946   0.320
 3327WAT     H110223   7.898   1.923   0.401
 3327WAT     H210224   7.749   1.914   0.334
 3328WAT      O10225   7.018   0.538   3.273
 3328WAT     H110226   6.918   0.537   3.269
 3328WAT     H210227   7.048   0.577   3.360
 3329WAT      O10228   6.379   5.284   5.163
 3329WAT     H110229   6.327   5.325   5.088
 3329WAT     H210230   6.333   5.303   5.250
 3330WAT      O10231   7.584   1.292   3.152
 3330WAT     H110232   7.503   1.267   3.206
 3330WAT     H210233   7.641   1.211   3.139
 3331WAT      O10234   9.126   6.033   7.737
 3331WAT     H110235   9.076   6.059   7.819
 3331WAT     H210236   9.220   6.011   7.761
 3332WAT      O10237   3.345   1.107   8.872
 3332WAT     H110238   3.263   1.118   8.816
 3332WAT     H210239   3.335   1.158   8.957
 3333WAT      O10240   4.534   8.330   0.593
 3333WAT     H110241   4.516   8.318   0.495
 3333WAT     H210242   4.584   8.251   0.628
 3334WAT      O10243   2.918   0.600   1.773
 3334WAT     H110244   2.990   0.621   1.840
 3334WAT     H210245   2.845   0.549   1.818
 3335WAT      O10246   6.492   7.800   3.443
 3335WAT     H110247   6.408   7.821   3.493
 3335WAT     H210248   6.469   7.764   3.353
 3336WAT      O10249   2.019   2.103   9.053
 3336WAT     H110250   2.114   2.074   9.054
 3336WAT     H210251   1.962   2.033   9.096
 3337WAT      O10252   8.856   1.193   4.958
 3337WAT     H110253   8.869   1.162   4.864
 3337WAT     H210254   8.811   1.120   5.011
 3338WAT      O10255   5.379   6.323   6.075
 3338WAT     H110256   5.334   6.325   5.986
 3338WAT     H210257   5.395   6.228   6.103
 3339WAT      O10258   8.957   6.929   3.343
 3339WAT     H110259   8.993   6.836   3.348
 3339WAT     H210260   8.857   6.926   3.350
 3340WAT      O10261   6.820   2.930   0.828
 3340WAT     H110262   6.825   3.029   0.842
 3340WAT     H210263   6.728   2.897   0.853
 3341WAT      O10264   1.936   4.713   2.442
 3341WAT     H110265   1.964   4.768   2.521
 3341WAT     H210266   1.876   4.767   2.383
 3342WAT      O10267   7.928   6.141   0.320
 3342WAT     H110268   7.871   6.183   0.390
 3342WAT     H210269   7.988   6.073   0.362
 3343WAT      O10270   0.848   0.672   8.849
 3343WAT     H110271   0.902   0.593   8.879
 3343WAT     H210272   0.902   0.755   8.859
 3344WAT      O10273   4.353   8.613   7.099
 3344WAT     H110274   4.340   8.550   7.176
 3344WAT     H210275   4.378   8.560   7.017
 3345WAT      O10276   5.670   4.128   2.808
 3345WAT     H110277   5.687   4.049   2.749
 3345WAT     H210278   5.643   4.096   2.899
 3346WAT      O10279   4.777   4.534   1.236
 3346WAT     H110280   4.727   4.447   1.243
 3346WAT     H210281   4.711   4.610   1.234
 3347WAT      O10282   1.082   5.406   7.224
 3347WAT     H110283   1.048   5.466   7.297
 3347WAT     H210284   1.007   5.382   7.163
 3348WAT      O10285   0.060   8.073   1.232
 3348WAT     H110286   0.127   8.147   1.237
 3348WAT     H210287  -0.033   8.111   1.235
 3349WAT      O10288   9.389   4.859   2.992
 3349WAT     H110289   9.441   4.942   3.009
 3349WAT     H210290   9.316   4.850   3.060
 3350WAT      O10291   1.436   0.907   6.622
 3350WAT     H110292   1.401   0.813   6.633
 3350WAT     H210293   1.359   0.971   6.623
 3351WAT      O10294   0.700   3.448   1.497
 3351WAT     H110295   0.758   3.368   1.482
 3351WAT     H210296   0.619   3.442   1.438
 3352WAT      O10297   3.982   7.700   8.807
 3352WAT     H110298   3.958   7.782   8.755
 3352WAT     H210299   3.966   7.717   8.905
 3353WAT      O10300   0.623   8.769   9.432
 3353WAT     H110301   0.700   8.778   9.368
 3353WAT     H210302   0.626   8.845   9.497
 3354WAT      O10303   5.110   8.684   5.905
 3354WAT     H110304   5.032   8.719   5.958
 3354WAT     H210305   5.095   8.704   5.808
 3355WAT      O10306   0.155   5.024   0.921
 3355WAT     H110307   0.069   5.053   0.879
 3355WAT     H210308   0.177   4.931   0.893
 3356WAT      O10309   0.188   0.840   2.507
 3356WAT     H110310   0.162   0.750   2.542
 3356WAT     H210311   0.142   0.911   2.561
 3357WAT      O10312   0.684   3.030   4.575
 3357WAT     H110313   0.710   2.933   4.575
 3357WAT     H210314   0.753   3.082   4.524
 3358WAT      O10315   8.230   7.783   7.655
 3358WAT     H110316   8.220   7.827   7.744
 3358WAT     H210317   8.273   7.846   7.591
 3359WAT      O10318   8.814   5.859   1.715
 3359WAT     H110319   8.859   5.935   1.763
 3359WAT     H210320   8.839   5.862   1.618
 3360WAT      O10321   7.090   8.516   0.366
 3360WAT     H110322   7.028   8.481   0.437
 3360WAT     H210323   7.036   8.552   0.290
 3361WAT      O10324   5.442   6.926   9.687
 3361WAT     H110325   5.517   6.873   9.728
 3361WAT     H210326   5.413   6.881   9.602
 3362WAT      O10327   7.434   3.299   5.240
 3362WAT     H110328   7.525   3.341   5.245
 3362WAT     H210329   7.367   3.361   5.280
 3363WAT      O10330   8.440   9.806   8.691
 3363WAT     H110331   8.484   9.765   8.611
 3363WAT     H210332   8.388   9.886   8.663
 3364WAT      O10333   5.145   4.388   4.459
 3364WAT     H110334   5.210   4.464   4.460
 3364WAT     H210335   5.074   4.405   4.390
 3365WAT      O10336   3.618   6.717   1.579
 3365WAT     H110337   3.642   6.806   1.617
 3365WAT     H210338   3.698   6.677   1.535
 3366WAT      O10339   1.959   5.088   3.352
 3366WAT     H110340   1.871   5.061   3.389
 3366WAT     H210341   1.974   5.186   3.369
 3367WAT      O10342   2.582   7.382   1.235
 3367WAT     H110343   2.511   7.359   1.302
 3367WAT     H210344   2.634   7.301   1.212
 3368WAT      O10345   1.887   8.043   2.340
 3368WAT     H110346   1.876   7.948   2.310
 3368WAT     H210347   1.968   8.082   2.298
 3369WAT      O10348   7.269   0.931   7.512
 3369WAT     H110349   7.318   1.009   7.550
 3369WAT     H210350   7.247   0.949   7.416
 3370WAT      O10351   9.426   7.761   9.868
 3370WAT     H110352   9.424   7.798   9.774
 3370WAT     H210353   9.420   7.662   9.864
 3371WAT      O10354   4.571   4.056   8.910
 3371WAT     H110355   4.504   3.982   8.915
 3371WAT     H210356   4.571   4.107   8.997
 3372WAT      O10357   3.815   3.326   4.005
 3372WAT     H110358   3.879   3.394   3.968
 3372WAT     H210359   3.863   3.268   4.070
 3373WAT      O10360   8.835   4.121   3.419
 3373WAT     H110361   8.765   4.145   3.487
 3373WAT     H210362   8.790   4.107   3.330
 3374WAT      O10363   9.814   6.162   6.025
 3374WAT     H110364   9.726   6.113   6.023
 3374WAT     H210365   9.812   6.238   5.960
 3375WAT      O10366   1.612   0.903   8.670
 3375WAT     H110367   1.635   0.836   8.599
 3375WAT     H210368   1.535   0.959   8.639
 3376WAT      O10369   1.590   8.116   7.104
 3376WAT     H110370   1.623   8.210   7.091
 3376WAT     H210371   1.646   8.071   7.174
 3377WAT      O10372   1.804   4.936   9.788
 3377WAT     H110373   1.878   4.917   9.853
 3377WAT     H210374   1.743   4.857   9.782
 3378WAT      O10375   4.520   9.766   4.768
 3378WAT     H110376   4.451   9.833   4.740
 3378WAT     H210377   4.609   9.811   4.776
 3379WAT      O10378   0.152   3.512   7.494
 3379WAT     H110379   0.213   3.556   7.428
 3379WAT     H210380   0.077   3.467   7.446
 3380WAT      O10381   3.727   2.552   8.156
 3380WAT     H110382   3.797   2.489   8.190
 3380WAT     H210383   3.638   2.528   8.196
 3381WAT      O10384   0.054   5.483   8.509
 3381WAT     H110385   0.033   5.388   8.531
 3381WAT     H210386   0.125   5.487   8.439
 3382WAT      O10387   2.393   7.040   9.015
 3382WAT     H110388   2.403   7.058   8.918
 3382WAT     H210389   2.482   7.016   9.054
 3383WAT      O10390   6.495   0.523   5.705
 3383WAT     H110391   6.501   0.623   5.697
 3383WAT     H210392   6.521   0.496   5.797
 3384WAT      O10393   8.922   6.312   1.872
 3384WAT     H110394   8.956   6.356   1.955
 3384WAT     H210395   8.867   6.377   1.820
 3385WAT      O10396   1.606   1.023   1.697
 3385WAT     H110397   1.637   1.018   1.792
 3385WAT     H210398   1.507   1.012   1.694
 3386WAT      O10399   0.929   7.434   4.099
 3386WAT     H110400   0.861   7.368   4.068
 3386WAT     H210401   0.888   7.495   4.167
 3387WAT      O10402   4.038   0.312   3.902
 3387WAT     H110403   4.105   0.338   3.971
 3387WAT     H210404   4.073   0.234   3.850
 3388WAT      O10405   0.745   9.024   5.986
 3388WAT     H110406   0.700   9.087   6.049
 3388WAT     H210407   0.792   8.952   6.037
 3389WAT      O10408   2.745   5.984   1.271
 3389WAT     H110409   2.701   6.066   1.307
 3389WAT     H210410   2.795   5.938   1.344
 3390WAT      O10411   7.601   5.270   4.074
 3390WAT     H110412   7.688   5.280   4.122
 3390WAT     H210413   7.609   5.308   3.982
 3391WAT      O10414   3.768   1.887   2.361
 3391WAT     H110415   3.693   1.951   2.371
 3391WAT     H210416   3.732   1.794   2.353
 3392WAT      O10417   5.900   9.391   6.953
 3392WAT     H110418   5.848   9.318   6.909
 3392WAT     H210419   5.986   9.406   6.903
 3393WAT      O10420   1.324   2.251   6.353
 3393WAT     H110421   1.378   2.211   6.279
 3393WAT     H210422   1.316   2.185   6.427
 3394WAT      O10423   0.030   2.076   5.510
 3394WAT     H110424  -0.041   2.132   5.555
 3394WAT     H210425   0.088   2.034   5.579
 3395WAT      O10426   4.893   8.882   5.383
 3395WAT     H110427   4.897   8.789   5.346
 3395WAT     H210428   4.976   8.901   5.435
 3396WAT      O10429   1.285   4.736   4.436
 3396WAT     H110430   1.308   4.682   4.518
 3396WAT     H210431   1.188   4.762   4.440
 3397WAT      O10432   7.166   7.578   9.837
 3397WAT     H110433   7.234   7.571   9.911
 3397WAT     H210434   7.079   7.540   9.867
 3398WAT      O10435   6.573   8.363   3.853
 3398WAT     H110436   6.556   8.267   3.877
 3398WAT     H210437   6.523   8.422   3.916
 3399WAT      O10438   4.641   5.014   9.759
 3399WAT     H110439   4.667   5.099   9.805
 3399WAT     H210440   4.583   4.960   9.819
 3400WAT      O10441   0.065   3.915   2.547
 3400WAT     H110442   0.164   3.923   2.551
 3400WAT     H210443   0.032   3.941   2.457
 3401WAT      O10444   7.529   1.954   5.915
 3401WAT     H110445   7.496   1.864   5.944
 3401WAT     H210446   7.461   1.997   5.855
 3402WAT      O10447   3.778   8.166   3.684
 3402WAT     H110448   3.735   8.083   3.720
 3402WAT     H210449   3.823   8.145   3.597
 3403WAT      O10450   3.300   6.279   4.017
 3403WAT     H110451   3.335   6.212   4.082
 3403WAT     H210452   3.212   6.315   4.050
 3404WAT      O10453   0.209   5.130   7.243
 3404WAT     H110454   0.297   5.174   7.224
 3404WAT     H210455   0.150   5.137   7.163
 3405WAT      O10456   3.213   5.368   4.507
 3405WAT     H110457   3.284   5.310   4.468
 3405WAT     H210458   3.171   5.424   4.435
 3406WAT      O10459   8.281   5.005   5.114
 3406WAT     H110460   8.215   5.064   5.068
 3406WAT     H210461   8.336   5.060   5.177
 3407WAT      O10462   1.619   6.223   0.812
 3407WAT     H110463   1.615   6.253   0.907
 3407WAT     H210464   1.660   6.296   0.756
 3408WAT      O10465   7.872   7.167   1.782
 3408WAT     H110466   7.839   7.210   1.698
 3408WAT     H210467   7.879   7.069   1.768
 3409WAT      O10468   1.609   7.775   7.101
 3409WAT     H110469   1.651   7.725   7.024
 3409WAT     H210470   1.644   7.869   7.102
 3410WAT      O10471   6.485   8.353   8.920
 3410WAT     H110472   6.580   8.359   8.951
 3410WAT     H210473   6.470   8.264   8.877
 3411WAT      O10474   9.392   3.039   9.781
 3411WAT     H110475   9.439   3.055   9.694
 3411WAT     H210476   9.347   3.123   9.810
 3412WAT      O10477   8.789   3.623   7.820
 3412WAT     H110478   8.768   3.692   7.751
 3412WAT     H210479   8.705   3.594   7.864
 3413WAT      O10480   9.071   6.351   8.886
 3413WAT     H110481   9.082   6.324   8.790
 3413WAT     H210482   9.161   6.359   8.929
 3414WAT      O10483   4.496   2.766   9.496
 3414WAT     H110484   4.482   2.794   9.591
 3414WAT     H210485   4.423   2.703   9.469
 3415WAT      O10486   0.912   7.076   2.600
 3415WAT     H110487   0.954   6.994   2.560
 3415WAT     H210488   0.822   7.052   2.638
 3416WAT      O10489   1.155   3.809   5.561
 3416WAT     H110490   1.110   3.793   5.649
 3416WAT     H210491   1.237   3.866   5.575
 3417WAT      O10492   7.410   6.374   7.045
 3417WAT     H110493   7.437   6.464   7.078
 3417WAT     H210494   7.382   6.317   7.122
 3418WAT      O10495   2.809   7.119   3.087
 3418WAT     H110496   2.728   7.161   3.046
 3418WAT     H210497   2.796   7.019   3.092
 3419WAT      O10498   5.193   4.626   8.307
 3419WAT     H110499   5.113   4.567   8.307
 3419WAT     H210500   5.255   4.597   8.380
 3420WAT      O10501   9.394   3.502   6.472
 3420WAT     H110502   9.408   3.416   6.522
 3420WAT     H210503   9.319   3.553   6.513
 3421WAT      O10504   7.929   4.144   4.429
 3421WAT     H110505   7.863   4.127   4.356
 3421WAT     H210506   7.890   4.114   4.516
 3422WAT      O10507   3.816   1.212   6.260
 3422WAT     H110508   3.877   1.145   6.301
 3422WAT     H210509   3.830   1.302   6.303
 3423WAT      O10510   7.307   2.185   4.433
 3423WAT     H110511   7.379   2.151   4.494
 3423WAT     H210512   7.235   2.116   4.426
 3424WAT      O10513   2.758   1.770   3.491
 3424WAT     H110514   2.723   1.863   3.492
 3424WAT     H210515   2.827   1.759   3.563
 3425WAT      O10516   1.910   4.191   2.593
 3425WAT     H110517   1.951   4.250   2.662
 3425WAT     H210518   1.898   4.099   2.630
 3426WAT      O10519   1.869   7.063   8.309
 3426WAT     H110520   1.884   7.156   8.274
 3426WAT     H210521   1.952   7.033   8.357
 3427WAT      O10522   2.886   3.838   9.674
 3427WAT     H110523   2.981   3.810   9.677
 3427WAT     H210524   2.827   3.761   9.699
 3428WAT      O10525   9.554   1.284   6.549
 3428WAT     H110526   9.610   1.364   6.527
 3428WAT     H210527   9.554   1.221   6.471
 3429WAT      O10528   8.349   1.120   4.501
 3429WAT     H110529   8.442   1.156   4.508
 3429WAT     H210530   8.339   1.041   4.561
 3430WAT      O10531   2.318   6.436   1.775
 3430WAT     H110532   2.388   6.468   1.711
 3430WAT     H210533   2.360   6.418   1.864
 3431WAT      O10534   7.874   7.776   4.210
 3431WAT     H110535   7.905   7.719   4.134
 3431WAT     H210536   7.796   7.831   4.180
 3432WAT      O10537   8.659   0.768   1.077
 3432WAT     H110538   8.747   0.811   1.056
 3432WAT     H210539   8.590   0.840   1.090
 3433WAT      O10540   8.009   8.376   4.396
 3433WAT     H110541   8.017   8.461   4.448
 3433WAT     H210542   7.958   8.308   4.448
 3434WAT      O10543   4.785   7.341   1.487
 3434WAT     H110544   4.848   7.268   1.460
 3434WAT     H210545   4.820   7.429   1.455
 3435WAT      O10546   4.146   4.020   0.333
 3435WAT     H110547   4.085   4.093   0.362
 3435WAT     H210548   4.241   4.052   0.335
 3436WAT      O10549   3.139   9.770   0.288
 3436WAT     H110550   3.167   9.852   0.238
 3436WAT     H210551   3.145   9.788   0.386
 3437WAT      O10552   4.920   7.892   8.328
 3437WAT     H110553   4.893   7.846   8.243
 3437WAT     H210554   4.909   7.829   8.405
 3438WAT      O10555   9.192   9.628   8.038
 3438WAT     H110556   9.184   9.680   8.124
 3438WAT     H210557   9.178   9.531   8.057
 3439WAT      O10558   1.359   8.380   0.684
 3439WAT     H110559   1.309   8.426   0.611
 3439WAT     H210560   1.456   8.378   0.661
 3440WAT      O10561   7.573   5.416   1.254
 3440WAT     H110562   7.616   5.342   1.306
 3440WAT     H210563   7.604   5.504   1.290
 3441WAT      O10564   3.379   7.504   6.794
 3441WAT     H110565   3.453   7.506   6.860
 3441WAT     H210566   3.340   7.596   6.785
 3442WAT      O10567   3.964   4.720   7.886
 3442WAT     H110568   3.990   4.800   7.832
 3442WAT     H210569   3.929   4.749   7.975
 3443WAT      O10570   1.735   9.625   6.500
 3443WAT     H110571   1.700   9.624   6.406
 3443WAT     H210572   1.658   9.626   6.564
 3444WAT      O10573   6.806   0.688   9.515
 3444WAT     H110574   6.882   0.732   9.563
 3444WAT     H210575   6.809   0.711   9.418
 3445WAT      O10576   9.224   3.529   1.751
 3445WAT     H110577   9.277   3.479   1.820
 3445WAT     H210578   9.247   3.626   1.755
 3446WAT      O10579   1.417   7.876   2.916
 3446WAT     H110580   1.417   7.778   2.931
 3446WAT     H210581   1.412   7.895   2.818
 3447WAT      O10582   6.486   0.844   9.665
 3447WAT     H110583   6.544   0.775   9.708
 3447WAT     H210584   6.471   0.821   9.569
 3448WAT      O10585   4.562   7.554   7.859
 3448WAT     H110586   4.531   7.460   7.869
 3448WAT     H210587   4.497   7.606   7.804
 3449WAT      O10588   5.246   1.702   9.307
 3449WAT     H110589   5.157   1.726   9.344
 3449WAT     H210590   5.253   1.735   9.213
 3450WAT      O10591   7.480   7.000   8.048
 3450WAT     H110592   7.398   6.954   8.080
 3450WAT     H210593   7.515   7.060   8.119
 3451WAT      O10594   4.393   4.515   0.579
 3451WAT     H110595   4.471   4.573   0.604
 3451WAT     H210596   4.399   4.492   0.482
 3452WAT      O10597   8.689   4.550   0.410
 3452WAT     H110598   8.732   4.633   0.444
 3452WAT     H210599   8.686   4.482   0.484
 3453WAT      O10600   2.419   0.084   5.099
 3453WAT     H110601   2.474   0.124   5.172
 3453WAT     H210602   2.323   0.084   5.126
 3454WAT      O10603   1.339   2.988   8.083
 3454WAT     H110604   1.276   3.065   8.093
 3454WAT     H210605   1.427   3.021   8.048
 3455WAT      O10606   5.967   8.871   1.417
 3455WAT     H110607   6.063   8.852   1.435
 3455WAT     H210608   5.940   8.955   1.464
 3456WAT      O10609   3.183   5.189   7.954
 3456WAT     H110610   3.218   5.215   7.864
 3456WAT     H210611   3.252   5.210   8.024
 3457WAT      O10612   1.362   1.241   8.242
 3457WAT     H110613   1.331   1.330   8.276
 3457WAT     H210614   1.300   1.170   8.273
 3458WAT      O10615   7.590   8.603   4.272
 3458WAT     H110616   7.565   8.513   4.307
 3458WAT     H210617   7.541   8.621   4.186
 3459WAT      O10618   1.844   3.699   1.679
 3459WAT     H110619   1.928   3.698   1.733
 3459WAT     H210620   1.834   3.789   1.635
 3460WAT      O10621   0.874   5.102   5.662
 3460WAT     H110622   0.808   5.151   5.605
 3460WAT     H210623   0.893   5.013   5.620
 3461WAT      O10624   3.984   4.483   2.313
 3461WAT     H110625   4.047   4.544   2.361
 3461WAT     H210626   4.030   4.399   2.288
 3462WAT      O10627   3.711   5.983   0.839
 3462WAT     H110628   3.729   5.949   0.747
 3462WAT     H210629   3.722   6.083   0.840
 3463WAT      O10630   9.449   9.183   8.385
 3463WAT     H110631   9.466   9.270   8.432
 3463WAT     H210632   9.535   9.133   8.376
 3464WAT      O10633   1.235   7.014   2.288
 3464WAT     H110634   1.248   6.915   2.293
 3464WAT     H210635   1.217   7.041   2.193
 3465WAT      O10636   6.767   4.125   6.199
 3465WAT     H110637   6.854   4.170   6.181
 3465WAT     H210638   6.697   4.162   6.137
 3466WAT      O10639   8.329   4.843   3.995
 3466WAT     H110640   8.265   4.848   4.072
 3466WAT     H210641   8.280   4.859   3.909
 3467WAT      O10642   7.263   8.039   5.492
 3467WAT     H110643   7.212   7.975   5.434
 3467WAT     H210644   7.212   8.125   5.499
 3468WAT      O10645   1.232   7.950   0.319
 3468WAT     H110646   1.237   8.043   0.356
 3468WAT     H210647   1.137   7.925   0.304
 3469WAT      O10648   3.513   2.662   8.702
 3469WAT     H110649   3.569   2.580   8.707
 3469WAT     H210650   3.435   2.645   8.642
 3470WAT      O10651   9.339   1.215   4.433
 3470WAT     H110652   9.330   1.186   4.528
 3470WAT     H210653   9.399   1.296   4.429
 3471WAT      O10654   9.468   9.263   7.859
 3471WAT     H110655   9.505   9.312   7.780
 3471WAT     H210656   9.381   9.220   7.835
 3472WAT      O10657   6.189   8.414   2.567
 3472WAT     H110658   6.198   8.485   2.638
 3472WAT     H210659   6.280   8.378   2.546
 3473WAT      O10660   1.667   9.784   4.296
 3473WAT     H110661   1.621   9.698   4.318
 3473WAT     H210662   1.698   9.781   4.201
 3474WAT      O10663   4.842   2.591   2.712
 3474WAT     H110664   4.897   2.559   2.789
 3474WAT     H210665   4.885   2.671   2.671
 3475WAT      O10666   8.958   4.232   7.487
 3475WAT     H110667   8.858   4.223   7.485
 3475WAT     H210668   8.984   4.291   7.563
 3476WAT      O10669   8.301   2.575   4.984
 3476WAT     H110670   8.375   2.622   5.032
 3476WAT     H210671   8.258   2.638   4.919
 3477WAT      O10672   2.787   6.153   7.327
 3477WAT     H110673   2.817   6.063   7.295
 3477WAT     H210674   2.866   6.210   7.348
 3478WAT      O10675   5.182   1.362   0.669
 3478WAT     H110676   5.181   1.293   0.597
 3478WAT     H210677   5.268   1.413   0.664
 3479WAT      O10678   9.072   1.171   2.674
 3479WAT     H110679   9.101   1.090   2.623
 3479WAT     H210680   9.053   1.145   2.769
 3480WAT      O10681   8.188   2.946   3.467
 3480WAT     H110682   8.268   2.961   3.409
 3480WAT     H210683   8.215   2.894   3.548
 3481WAT      O10684   2.897   1.609   3.168
 3481WAT     H110685   2.873   1.704   3.146
 3481WAT     H210686   2.827   1.547   3.133
 3482WAT      O10687   5.710   8.577   7.414
 3482WAT     H110688   5.805   8.568   7.386
 3482WAT     H210689   5.668   8.654   7.365
 3483WAT      O10690   7.651   6.744   1.844
 3483WAT     H110691   7.557   6.768   1.820
 3483WAT     H210692   7.668   6.648   1.820
 3484WAT      O10693   9.479   1.694   7.952
 3484WAT     H110694   9.471   1.619   8.017
 3484WAT     H210695   9.575   1.721   7.943
 3485WAT      O10696   1.495   4.128   6.553
 3485WAT     H110697   1.416   4.068   6.538
 3485WAT     H210698   1.509   4.141   6.651
 3486WAT      O10699   1.927   1.792   8.968
 3486WAT     H110700   1.965   1.785   9.061
 3486WAT     H210701   1.840   1.841   8.971
 3487WAT      O10702   8.765   5.166   1.069
 3487WAT     H110703   8.746   5.085   1.013
 3487WAT     H210704   8.800   5.240   1.010
 3488WAT      O10705   6.744   0.292   2.388
 3488WAT     H110706   6.840   0.261   2.384
 3488WAT     H210707   6.741   0.388   2.416
 3489WAT      O10708   8.580   2.656   6.927
 3489WAT     H110709   8.506   2.592   6.906
 3489WAT     H210710   8.667   2.608   6.924
 3490WAT      O10711   2.235   7.025   6.456
 3490WAT     H110712   2.173   7.097   6.425
 3490WAT     H210713   2.198   6.981   6.538
 3491WAT      O10714   2.150   4.872   3.345
 3491WAT     H110715   2.097   4.954   3.368
 3491WAT     H210716   2.092   4.807   3.297
 3492WAT      O10717   8.414   5.952   1.688
 3492WAT     H110718   8.414   5.928   1.785
 3492WAT     H210719   8.507   5.969   1.657
 3493WAT      O10720   2.205   5.696   4.481
 3493WAT     H110721   2.151   5.613   4.495
 3493WAT     H210722   2.243   5.696   4.389
 3494WAT      O10723   5.417   3.413   7.288
 3494WAT     H110724   5.510   3.392   7.258
 3494WAT     H210725   5.401   3.511   7.281
 3495WAT      O10726   2.387   6.299   6.572
 3495WAT     H110727   2.380   6.292   6.473
 3495WAT     H210728   2.315   6.246   6.616
 3496WAT      O10729   3.033   4.460   8.799
 3496WAT     H110730   3.021   4.533   8.867
 3496WAT     H210731   3.042   4.372   8.846
 3497WAT      O10732   1.215   3.224   9.264
 3497WAT     H110733   1.154   3.167   9.319
 3497WAT     H210734   1.265   3.167   9.199
 3498WAT      O10735   7.866   2.544   0.128
 3498WAT     H110736   7.893   2.484   0.052
 3498WAT     H210737   7.776   2.583   0.108
 3499WAT      O10738   2.016   2.847   3.914
 3499WAT     H110739   2.034   2.779   3.985
 3499WAT     H210740   1.953   2.808   3.847
 3500WAT      O10741   1.227   4.959   9.307
 3500WAT     H110742   1.246   4.933   9.402
 3500WAT     H210743   1.311   4.948   9.252
 3501WAT      O10744   5.431   8.419   0.943
 3501WAT     H110745   5.500   8.478   0.901
 3501WAT     H210746   5.425   8.440   1.041
 3502WAT      O10747   1.288   9.388   0.088
 3502WAT     H110748   1.251   9.478   0.065
 3502WAT     H210749   1.227   9.343   0.153
 3503WAT      O10750   4.766   1.524   5.087
 3503WAT     H110751   4.727   1.594   5.148
 3503WAT     H210752   4.755   1.434   5.129
 3504WAT      O10753   6.327   1.654   4.131
 3504WAT     H110754   6.251   1.610   4.084
 3504WAT     H210755   6.412   1.637   4.082
 3505WAT      O10756   0.641   5.020   5.036
 3505WAT     H110757   0.605   5.039   5.128
 3505WAT     H210758   0.663   4.923   5.028
 3506WAT      O10759   1.693   7.358   4.805
 3506WAT     H110760   1.621   7.316   4.749
 3506WAT     H210761   1.659   7.374   4.897
 3507WAT      O10762   8.388   1.548   7.305
 3507WAT     H110763   8.309   1.565   7.246
 3507WAT     H210764   8.457   1.497   7.254
 3508WAT      O10765   4.094   7.001   5.155
 3508WAT     H110766   4.075   7.022   5.059
 3508WAT     H210767   4.141   6.913   5.161
 3509WAT      O10768   6.657   3.858   2.370
 3509WAT     H110769   6.576   3.881   2.317
 3509WAT     H210770   6.738   3.862   2.310
 3510WAT      O10771   7.809   5.097   6.929
 3510WAT     H110772   7.843   5.065   6.841
 3510WAT     H210773   7.834   5.193   6.942
 3511WAT      O10774   3.168   3.140   8.651
 3511WAT     H110775   3.143   3.223   8.702
 3511WAT     H210776   3.133   3.147   8.558
 3512WAT      O10777   4.201   3.659   3.509
 3512WAT     H110778   4.296   3.690   3.506
 3512WAT     H210779   4.166   3.664   3.602
 3513WAT      O10780   0.419   1.806   5.792
 3513WAT     H110781   0.424   1.820   5.890
 3513WAT     H210782   0.436   1.892   5.744
 3514WAT      O10783   3.470   9.617   8.598
 3514WAT     H110784   3.549   9.556   8.599
 3514WAT     H210785   3.488   9.697   8.655
 3515WAT      O10786   5.659   1.572   6.617
 3515WAT     H110787   5.613   1.656   6.647
 3515WAT     H210788   5.751   1.595   6.585
 3516WAT      O10789   4.738   0.169   8.301
 3516WAT     H110790   4.683   0.131   8.226
 3516WAT     H210791   4.755   0.098   8.369
 3517WAT      O10792   4.905   8.758   1.840
 3517WAT     H110793   4.839   8.732   1.910
 3517WAT     H210794   4.977   8.690   1.834
 3518WAT      O10795   1.968   9.318   2.806
 3518WAT     H110796   1.945   9.279   2.717
 3518WAT     H210797   1.899   9.291   2.873
 3519WAT      O10798   9.135   4.450   2.088
 3519WAT     H110799   9.154   4.546   2.072
 3519WAT     H210800   9.066   4.418   2.023
 3520WAT      O10801   9.582   9.057   4.883
 3520WAT     H110802   9.606   9.153   4.895
 3520WAT     H210803   9.633   9.019   4.806
 3521WAT      O10804   1.201   3.847   0.784
 3521WAT     H110805   1.157   3.870   0.870
 3521WAT     H210806   1.157   3.765   0.746
 3522WAT      O10807   3.292   4.689   2.324
 3522WAT     H110808   3.214   4.641   2.364
 3522WAT     H210809   3.377   4.642   2.349
 3523WAT      O10810   0.487   0.516   8.079
 3523WAT     H110811   0.552   0.459   8.129
 3523WAT     H210812   0.490   0.609   8.114
 3524WAT      O10813   4.493   3.103   4.580
 3524WAT     H110814   4.543   3.169   4.524
 3524WAT     H210815   4.444   3.150   4.653
 3525WAT      O10816   5.556   0.904   7.860
 3525WAT     H110817   5.643   0.905   7.810
 3525WAT     H210818   5.529   0.998   7.881
 3526WAT      O10819   5.353   9.290   6.367
 3526WAT     H110820   5.397   9.237   6.439
 3526WAT     H210821   5.375   9.387   6.380
 3527WAT      O10822   7.490   6.975   1.904
 3527WAT     H110823   7.516   7.066   1.936
 3527WAT     H210824   7.475   6.915   1.984
 3528WAT      O10825   6.711   0.878   3.060
 3528WAT     H110826   6.808   0.895   3.043
 3528WAT     H210827   6.656   0.934   2.997
 3529WAT      O10828   4.192   1.111   0.279
 3529WAT     H110829   4.129   1.136   0.205
 3529WAT     H210830   4.222   1.016   0.265
 3530WAT      O10831   5.919   9.155   4.856
 3530WAT     H110832   5.990   9.104   4.905
 3530WAT     H210833   5.877   9.222   4.917
 3531WAT      O10834   0.566   3.244   8.371
 3531WAT     H110835   0.525   3.335   8.382
 3531WAT     H210836   0.663   3.253   8.352
 3532WAT      O10837   2.691   0.543   6.919
 3532WAT     H110838   2.689   0.496   6.830
 3532WAT     H210839   2.643   0.631   6.911
 3533WAT      O10840   1.762   5.640   5.890
 3533WAT     H110841   1.842   5.663   5.944
 3533WAT     H210842   1.775   5.672   5.796
 3534WAT      O10843   9.261   8.644   4.874
 3534WAT     H110844   9.334   8.672   4.812
 3534WAT     H210845   9.172   8.668   4.834
 3535WAT      O10846   0.481   3.975   0.874
 3535WAT     H110847   0.443   4.058   0.915
 3535WAT     H210848   0.414   3.901   0.881
 3536WAT      O10849   7.336   1.861   3.704
 3536WAT     H110850   7.370   1.909   3.622
 3536WAT     H210851   7.256   1.806   3.679
 3537WAT      O10852   3.940   7.955   8.688
 3537WAT     H110853   4.027   7.949   8.638
 3537WAT     H210854   3.936   8.043   8.736
 3538WAT      O10855   8.950   9.080   5.689
 3538WAT     H110856   8.955   9.103   5.592
 3538WAT     H210857   8.945   8.981   5.700
 3539WAT      O10858   8.357   7.390   8.496
 3539WAT     H110859   8.309   7.306   8.470
 3539WAT     H210860   8.300   7.469   8.473
 3540WAT      O10861   5.451   9.422   2.697
 3540WAT     H110862   5.358   9.438   2.664
 3540WAT     H210863   5.466   9.472   2.782
 3541WAT      O10864   5.395   9.583   5.036
 3541WAT     H110865   5.368   9.618   4.946
 3541WAT     H210866   5.317   9.591   5.099
 3542WAT      O10867   0.198   7.166   6.295
 3542WAT     H110868   0.195   7.209   6.385
 3542WAT     H210869   0.128   7.205   6.237
 3543WAT      O10870   1.574   2.735   5.283
 3543WAT     H110871   1.502   2.788   5.327
 3543WAT     H210872   1.649   2.720   5.348
 3544WAT      O10873   7.786   0.588   7.935
 3544WAT     H110874   7.772   0.680   7.899
 3544WAT     H210875   7.725   0.524   7.889
 3545WAT      O10876   8.203   7.322   1.086
 3545WAT     H110877   8.302   7.320   1.096
 3545WAT     H210878   8.172   7.416   1.072
 3546WAT      O10879   3.187   3.071   3.038
 3546WAT     H110880   3.282   3.101   3.048
 3546WAT     H210881   3.156   3.031   3.124
 3547WAT      O10882   6.606   4.861   5.025
 3547WAT     H110883   6.552   4.930   5.073
 3547WAT     H210884   6.582   4.863   4.928
 3548WAT      O10885   0.377   9.171   2.490
 3548WAT     H110886   0.453   9.191   2.428
 3548WAT     H210887   0.292   9.164   2.438
 3549WAT      O10888   2.671   6.605   4.751
 3549WAT     H110889   2.642   6.619   4.657
 3549WAT     H210890   2.688   6.694   4.794
 3550WAT      O10891   9.550   5.146   8.720
 3550WAT     H110892   9.460   5.105   8.707
 3550WAT     H210893   9.607   5.128   8.640
 3551WAT      O10894   2.959   8.323   1.648
 3551WAT     H110895   2.914   8.362   1.729
 3551WAT     H210896   2.890   8.302   1.579
 3552WAT      O10897   2.900   6.627   8.046
 3552WAT     H110898   2.895   6.691   8.122
 3552WAT     H210899   2.994   6.626   8.010
 3553WAT      O10900   0.988   1.149   6.360
 3553WAT     H110901   0.979   1.225   6.297
 3553WAT     H210902   0.923   1.161   6.436
 3554WAT      O10903   2.600   3.735   1.958
 3554WAT     H110904   2.618   3.828   1.987
 3554WAT     H210905   2.664   3.710   1.884
 3555WAT      O10906   6.378   2.887   9.778
 3555WAT     H110907   6.436   2.960   9.741
 3555WAT     H210908   6.282   2.907   9.757
 3556WAT      O10909   7.478   0.425   8.409
 3556WAT     H110910   7.424   0.508   8.414
 3556WAT     H210911   7.433   0.359   8.347
 3557WAT      O10912   0.031   9.213   5.379
 3557WAT     H110913   0.033   9.146   5.305
 3557WAT     H210914   0.046   9.167   5.466
 3558WAT      O10915   3.455   5.039   5.772
 3558WAT     H110916   3.442   5.069   5.677
 3558WAT     H210917   3.425   5.111   5.834
 3559WAT      O10918   0.055   6.610   7.894
 3559WAT     H110919   0.048   6.707   7.869
 3559WAT     H210920   0.031   6.598   7.990
 3560WAT      O10921   4.009   4.748   2.565
 3560WAT     H110922   4.055   4.836   2.577
 3560WAT     H210923   3.956   4.727   2.647
 3561WAT      O10924   6.767   5.842   6.917
 3561WAT     H110925   6.790   5.859   6.821
 3561WAT     H210926   6.699   5.908   6.948
 3562WAT      O10927   5.836   1.762   3.673
 3562WAT     H110928   5.792   1.848   3.699
 3562WAT     H210929   5.840   1.756   3.573
 3563WAT      O10930   0.061   7.479   0.045
 3563WAT     H110931   0.092   7.483  -0.050
 3563WAT     H210932   0.058   7.572   0.082
 3564WAT      O10933   3.392   0.678   6.381
 3564WAT     H110934   3.357   0.729   6.302
 3564WAT     H210935   3.491   0.663   6.369
 3565WAT      O10936   1.412   7.925   2.410
 3565WAT     H110937   1.451   7.989   2.345
 3565WAT     H210938   1.332   7.966   2.453
 3566WAT      O10939   1.964   2.853   1.301
 3566WAT     H110940   1.894   2.914   1.337
 3566WAT     H210941   1.921   2.774   1.259
 3567WAT      O10942   9.204   3.810   7.165
 3567WAT     H110943   9.239   3.758   7.244
 3567WAT     H210944   9.217   3.907   7.181
 3568WAT      O10945   3.162   2.158   9.654
 3568WAT     H110946   3.172   2.245   9.606
 3568WAT     H210947   3.196   2.168   9.748
 3569WAT      O10948   5.607   7.171   5.271
 3569WAT     H110949   5.616   7.149   5.174
 3569WAT     H210950   5.566   7.262   5.280
 3570WAT      O10951   6.412   7.551   2.625
 3570WAT     H110952   6.429   7.647   2.645
 3570WAT     H210953   6.379   7.505   2.708
 3571WAT      O10954   1.470   3.104   3.107
 3571WAT     H110955   1.418   3.098   3.192
 3571WAT     H210956   1.552   3.159   3.121
 3572WAT      O10957   9.764   4.475   6.887
 3572WAT     H110958   9.718   4.484   6.799
 3572WAT     H210959   9.700   4.437   6.954
 3573WAT      O10960   9.784   6.014   7.969
 3573WAT     H110961   9.724   6.074   8.021
 3573WAT     H210962   9.767   5.919   7.995
 3574WAT      O10963   0.042   4.308   0.066
 3574WAT     H110964   0.068   4.348   0.154
 3574WAT     H210965   0.041   4.378  -0.004
 3575WAT      O10966   8.958   5.279   3.022
 3575WAT     H110967   8.964   5.196   2.966
 3575WAT     H210968   8.893   5.263   3.097
 3576WAT      O10969   7.370   4.038   0.372
 3576WAT     H110970   7.328   4.092   0.446
 3576WAT     H210971   7.299   4.004   0.311
 3577WAT      O10972   2.595   1.227   4.955
 3577WAT     H110973   2.638   1.191   5.037
 3577WAT     H210974   2.587   1.327   4.963
 3578WAT      O10975   7.196   2.029   2.721
 3578WAT     H110976   7.242   1.986   2.643
 3578WAT     H210977   7.264   2.065   2.785
 3579WAT      O10978   3.608   6.779   4.504
 3579WAT     H110979   3.630   6.827   4.419
 3579WAT     H210980   3.598   6.681   4.485
 3580WAT      O10981   1.159   8.256   2.554
 3580WAT     H110982   1.115   8.338   2.589
 3580WAT     H210983   1.258   8.268   2.558
 3581WAT      O10984   5.457   4.430   3.039
 3581WAT     H110985   5.554   4.414   3.025
 3581WAT     H210986   5.443   4.474   3.128
 3582WAT      O10987   8.934   2.295   9.870
 3582WAT     H110988   8.859   2.234   9.845
 3582WAT     H210989   8.957   2.354   9.793
 3583WAT      O10990   2.357   5.519   1.712
 3583WAT     H110991   2.326   5.435   1.666
 3583WAT     H210992   2.452   5.507   1.742
 3584WAT      O10993   2.549   6.464   7.750
 3584WAT     H110994   2.590   6.541   7.799
 3584WAT     H210995   2.611   6.386   7.752
 3585WAT      O10996   5.686   2.042   3.675
 3585WAT     H110997   5.627   1.979   3.626
 3585WAT     H210998   5.669   2.136   3.643
 3586WAT      O10999   7.199   3.607   3.109
 3586WAT     H111000   7.285   3.557   3.099
 3586WAT     H211001   7.155   3.617   3.020
 3587WAT      O11002   4.738   9.655   3.363
 3587WAT     H111003   4.833   9.671   3.336
 3587WAT     H211004   4.695   9.593   3.297
 3588WAT      O11005   7.007   2.919   2.749
 3588WAT     H111006   6.973   3.012   2.741
 3588WAT     H211007   7.052   2.908   2.838
 3589WAT      O11008   6.636   3.806   4.132
 3589WAT     H111009   6.648   3.837   4.037
 3589WAT     H211010   6.581   3.874   4.181
 3590WAT      O11011   8.368   1.605   5.730
 3590WAT     H111012   8.445   1.585   5.792
 3590WAT     H211013   8.284   1.569   5.770
 3591WAT      O11014   3.665   8.951   5.350
 3591WAT     H111015   3.652   9.044   5.385
 3591WAT     H211016   3.723   8.954   5.268
 3592WAT      O11017   0.690   2.149   7.600
 3592WAT     H111018   0.620   2.184   7.662
 3592WAT     H211019   0.778   2.192   7.622
 3593WAT      O11020   4.839   7.594   1.393
 3593WAT     H111021   4.752   7.626   1.355
 3593WAT     H211022   4.906   7.669   1.391
 3594WAT      O11023   2.164   7.902   2.019
 3594WAT     H111024   2.233   7.935   2.083
 3594WAT     H211025   2.079   7.953   2.032
 3595WAT      O11026   6.654   1.645   3.148
 3595WAT     H111027   6.752   1.643   3.169
 3595WAT     H211028   6.611   1.720   3.198
 3596WAT      O11029   8.992   4.928   7.963
 3596WAT     H111030   8.966   4.841   8.004
 3596WAT     H211031   8.994   4.919   7.863
 3597WAT      O11032   9.821   5.364   1.297
 3597WAT     H111033   9.731   5.320   1.289
 3597WAT     H211034   9.876   5.343   1.217
 3598WAT      O11035   9.178   3.636   9.072
 3598WAT     H111036   9.266   3.604   9.106
 3598WAT     H211037   9.193   3.708   9.004
 3599WAT      O11038   8.493   5.248   7.955
 3599WAT     H111039   8.579   5.199   7.965
 3599WAT     H211040   8.508   5.332   7.903
 3600WAT      O11041   7.256   0.385   0.820
 3600WAT     H111042   7.169   0.420   0.785
 3600WAT     H211043   7.329   0.408   0.756
 3601WAT      O11044   9.480   9.185   0.517
 3601WAT     H111045   9.417   9.190   0.440
 3601WAT     H211046   9.427   9.172   0.602
 3602WAT      O11047   6.282   3.718   8.305
 3602WAT     H111048   6.355   3.694   8.241
 3602WAT     H211049   6.255   3.636   8.356
 3603WAT      O11050   1.821   1.739   2.572
 3603WAT     H111051   1.887   1.728   2.646
 3603WAT     H211052   1.818   1.656   2.516
 3604WAT      O11053   5.768   8.886   3.344
 3604WAT     H111054   5.799   8.803   3.391
 3604WAT     H211055   5.844   8.925   3.291
 3605WAT      O11056   4.335   8.318   4.473
 3605WAT     H111057   4.237   8.329   4.493
 3605WAT     H211058   4.388   8.377   4.535
 3606WAT      O11059   4.376   3.435   9.219
 3606WAT     H111060   4.381   3.416   9.317
 3606WAT     H211061   4.425   3.364   9.169
 3607WAT      O11062   1.431   6.031   2.199
 3607WAT     H111063   1.445   5.947   2.252
 3607WAT     H211064   1.477   6.107   2.246
 3608WAT      O11065   2.369   6.715   3.913
 3608WAT     H111066   2.345   6.791   3.852
 3608WAT     H211067   2.445   6.664   3.874
 3609WAT      O11068   7.956   3.436   8.680
 3609WAT     H111069   7.996   3.357   8.726
 3609WAT     H211070   7.968   3.518   8.737
 3610WAT      O11071   4.485   0.987   1.016
 3610WAT     H111072   4.523   0.899   0.988
 3610WAT     H211073   4.458   0.983   1.112
 3611WAT      O11074   9.598   4.145   9.384
 3611WAT     H111075   9.555   4.073   9.439
 3611WAT     H211076   9.696   4.145   9.401
 3612WAT      O11077   1.888   1.396   4.812
 3612WAT     H111078   1.874   1.374   4.716
 3612WAT     H211079   1.820   1.347   4.867
 3613WAT      O11080   9.538   4.696   1.685
 3613WAT     H111081   9.606   4.687   1.758
 3613WAT     H211082   9.539   4.789   1.649
 3614WAT      O11083   4.405   8.958   3.315
 3614WAT     H111084   4.329   8.920   3.367
 3614WAT     H211085   4.484   8.896   3.321
 3615WAT      O11086   7.858   0.405   9.348
 3615WAT     H111087   7.893   0.424   9.256
 3615WAT     H211088   7.770   0.357   9.341
 3616WAT      O11089   2.089   0.781   2.967
 3616WAT     H111090   2.110   0.694   2.922
 3616WAT     H211091   2.173   0.835   2.975
 3617WAT      O11092   4.622   4.739   6.950
 3617WAT     H111093   4.639   4.836   6.935
 3617WAT     H211094   4.531   4.726   6.989
 3618WAT      O11095   1.556   5.801   7.619
 3618WAT     H111096   1.510   5.713   7.627
 3618WAT     H211097   1.646   5.788   7.577
 3619WAT      O11098   8.624   3.826   8.926
 3619WAT     H111099   8.710   3.876   8.915
 3619WAT     H211100   8.644   3.732   8.951
 3620WAT      O11101   6.006   0.822   7.225
 3620WAT     H111102   5.954   0.797   7.306
 3620WAT     H211103   5.961   0.784   7.144
 3621WAT      O11104   0.097   4.665   5.615
 3621WAT     H111105   0.076   4.690   5.521
 3621WAT     H211106   0.090   4.746   5.674
 3622WAT      O11107   4.831   3.013   7.070
 3622WAT     H111108   4.930   3.027   7.073
 3622WAT     H211109   4.807   2.930   7.119
 3623WAT      O11110   4.343   6.209   4.178
 3623WAT     H111111   4.322   6.169   4.267
 3623WAT     H211112   4.426   6.264   4.184
 3624WAT      O11113   2.810   6.602   7.312
 3624WAT     H111114   2.873   6.678   7.325
 3624WAT     H211115   2.716   6.636   7.319
 3625WAT      O11116   4.158   7.505   3.518
 3625WAT     H111117   4.075   7.560   3.510
 3625WAT     H211118   4.202   7.524   3.605
 3626WAT      O11119   8.984   7.594   7.669
 3626WAT     H111120   8.912   7.651   7.708
 3626WAT     H211121   9.051   7.652   7.623
 3627WAT      O11122   4.322   0.995   2.804
 3627WAT     H111123   4.395   1.063   2.807
 3627WAT     H211124   4.323   0.941   2.888
 3628WAT      O11125   7.808   5.204   8.432
 3628WAT     H111126   7.862   5.279   8.394
 3628WAT     H211127   7.712   5.231   8.438
 3629WAT      O11128   6.590   0.902   7.383
 3629WAT     H111129   6.674   0.853   7.404
 3629WAT     H211130   6.537   0.851   7.315
 3630WAT      O11131   0.700   1.165   0.806
 3630WAT     H111132   0.618   1.110   0.825
 3630WAT     H211133   0.758   1.167   0.887
 3631WAT      O11134   8.173   5.526   9.479
 3631WAT     H111135   8.259   5.574   9.496
 3631WAT     H211136   8.114   5.535   9.559
 3632WAT      O11137   2.579   0.422   4.132
 3632WAT     H111138   2.597   0.449   4.037
 3632WAT     H211139   2.642   0.348   4.157
 3633WAT      O11140   8.934   6.649   9.845
 3633WAT     H111141   8.984   6.575   9.798
 3633WAT     H211142   8.847   6.613   9.879
 3634WAT      O11143   7.635   6.605   3.521
 3634WAT     H111144   7.596   6.664   3.451
 3634WAT     H211145   7.726   6.638   3.546
 3635WAT      O11146   5.954   0.546   3.622
 3635WAT     H111147   5.872   0.526   3.675
 3635WAT     H211148   6.017   0.602   3.676
 3636WAT      O11149   7.296   5.770   2.328
 3636WAT     H111150   7.217   5.805   2.378
 3636WAT     H211151   7.273   5.683   2.284
 3637WAT      O11152   2.687   1.188   8.798
 3637WAT     H111153   2.595   1.164   8.766
 3637WAT     H211154   2.722   1.113   8.855
 3638WAT      O11155   7.853   7.605   9.638
 3638WAT     H111156   7.940   7.564   9.609
 3638WAT     H211157   7.790   7.532   9.664
 3639WAT      O11158   5.070   3.153   1.127
 3639WAT     H111159   5.125   3.227   1.167
 3639WAT     H211160   5.125   3.070   1.122
 3640WAT      O11161   8.632   6.852   9.350
 3640WAT     H111162   8.723   6.828   9.384
 3640WAT     H211163   8.637   6.933   9.293
 3641WAT      O11164   9.818   7.555   4.915
 3641WAT     H111165   9.891   7.515   4.970
 3641WAT     H211166   9.854   7.577   4.824
 3642WAT      O11167   6.950   9.569   7.166
 3642WAT     H111168   6.913   9.625   7.092
 3642WAT     H211169   6.951   9.621   7.251
 3643WAT      O11170   6.192   2.683   2.694
 3643WAT     H111171   6.272   2.685   2.754
 3643WAT     H211172   6.198   2.604   2.633
 3644WAT      O11173   3.112   1.500   1.499
 3644WAT     H111174   3.133   1.448   1.582
 3644WAT     H211175   3.173   1.579   1.493
 3645WAT      O11176   0.206   8.520   0.370
 3645WAT     H111177   0.171   8.612   0.384
 3645WAT     H211178   0.261   8.517   0.287
 3646WAT      O11179   2.107   5.713   1.098
 3646WAT     H111180   2.084   5.696   1.002
 3646WAT     H211181   2.170   5.790   1.105
 3647WAT      O11182   2.291   8.864   1.740
 3647WAT     H111183   2.325   8.928   1.671
 3647WAT     H211184   2.210   8.817   1.704
 3648WAT      O11185   8.987   6.649   6.587
 3648WAT     H111186   9.076   6.639   6.633
 3648WAT     H211187   8.915   6.661   6.655
 3649WAT      O11188   6.502   4.968   6.278
 3649WAT     H111189   6.438   5.038   6.308
 3649WAT     H211190   6.486   4.883   6.328
 3650WAT      O11191   2.829   8.183   4.225
 3650WAT     H111192   2.885   8.180   4.308
 3650WAT     H211193   2.811   8.090   4.194
 3651WAT      O11194   4.150   5.176   1.263
 3651WAT     H111195   4.167   5.089   1.216
 3651WAT     H211196   4.064   5.170   1.314
 3652WAT      O11197   4.785   1.293   7.254
 3652WAT     H111198   4.879   1.319   7.276
 3652WAT     H211199   4.730   1.296   7.337
 3653WAT      O11200   2.314   2.499   7.245
 3653WAT     H111201   2.284   2.507   7.340
 3653WAT     H211202   2.304   2.587   7.199
 3654WAT      O11203   7.943   7.979   2.650
 3654WAT     H111204   7.883   7.961   2.728
 3654WAT     H211205   7.958   7.893   2.600
 3655WAT      O11206   7.366   0.058   7.042
 3655WAT     H111207   7.396   0.009   7.124
 3655WAT     H211208   7.303   0.000   6.990
 3656WAT      O11209   3.419   7.271   8.733
 3656WAT     H111210   3.420   7.196   8.799
 3656WAT     H211211   3.439   7.357   8.779
 3657WAT      O11212   2.417   3.848   0.397
 3657WAT     H111213   2.328   3.819   0.363
 3657WAT     H211214   2.423   3.948   0.394
 3658WAT      O11215   1.327   8.858   7.604
 3658WAT     H111216   1.261   8.812   7.545
 3658WAT     H211217   1.284   8.879   7.692
 3659WAT      O11218   9.259   8.605   9.352
 3659WAT     H111219   9.166   8.594   9.318
 3659WAT     H211220   9.305   8.677   9.300
 3660WAT      O11221   6.693   5.540   4.956
 3660WAT     H111222   6.646   5.463   4.912
 3660WAT     H211223   6.646   5.625   4.933
 3661WAT      O11224   7.478   3.086   8.281
 3661WAT     H111225   7.392   3.105   8.329
 3661WAT     H211226   7.554   3.086   8.347
 3662WAT      O11227   6.214   7.338   3.215
 3662WAT     H111228   6.170   7.249   3.226
 3662WAT     H211229   6.168   7.404   3.274
 3663WAT      O11230   8.129   4.137   8.225
 3663WAT     H111231   8.140   4.038   8.216
 3663WAT     H211232   8.217   4.182   8.216
 3664WAT      O11233   0.038   6.929   5.346
 3664WAT     H111234   0.044   6.976   5.434
 3664WAT     H211235   0.056   6.994   5.272
 3665WAT      O11236   5.628   2.273   9.126
 3665WAT     H111237   5.713   2.261   9.074
 3665WAT     H211238   5.585   2.184   9.141
 3666WAT      O11239   5.406   3.724   6.864
 3666WAT     H111240   5.309   3.702   6.860
 3666WAT     H211241   5.451   3.693   6.780
 3667WAT      O11242   1.832   8.097   7.666
 3667WAT     H111243   1.858   8.193   7.663
 3667WAT     H211244   1.884   8.051   7.739
 3668WAT      O11245   6.611   9.534   7.977
 3668WAT     H111246   6.618   9.499   7.884
 3668WAT     H211247   6.577   9.462   8.038
 3669WAT      O11248   8.906   5.804   7.975
 3669WAT     H111249   8.896   5.748   7.893
 3669WAT     H211250   8.823   5.798   8.030
 3670WAT      O11251   7.597   4.746   4.159
 3670WAT     H111252   7.613   4.843   4.176
 3670WAT     H211253   7.530   4.711   4.225
 3671WAT      O11254   9.334   9.776   1.862
 3671WAT     H111255   9.263   9.788   1.792
 3671WAT     H211256   9.387   9.694   1.842
 3672WAT      O11257   2.817   7.714   6.090
 3672WAT     H111258   2.897   7.690   6.145
 3672WAT     H211259   2.776   7.631   6.053
 3673WAT      O11260   2.852   1.674   9.583
 3673WAT     H111261   2.834   1.710   9.492
 3673WAT     H211262   2.775   1.616   9.612
 3674WAT      O11263   2.105   2.860   9.887
 3674WAT     H111264   2.064   2.769   9.897
 3674WAT     H211265   2.041   2.921   9.840
 3675WAT      O11266   3.103   7.783   9.866
 3675WAT     H111267   3.049   7.824   9.940
 3675WAT     H211268   3.133   7.855   9.803
 3676WAT      O11269   9.862   9.306   6.616
 3676WAT     H111270   9.929   9.298   6.542
 3676WAT     H211271   9.769   9.304   6.577
 3677WAT      O11272   1.737   9.211   3.450
 3677WAT     H111273   1.818   9.267   3.436
 3677WAT     H211274   1.681   9.250   3.524
 3678WAT      O11275   1.189   5.470   0.256
 3678WAT     H111276   1.267   5.484   0.195
 3678WAT     H211277   1.222   5.445   0.347
 3679WAT      O11278   0.023   7.061   0.452
 3679WAT     H111279   0.052   7.035   0.544
 3679WAT     H211280   0.100   7.099   0.401
 3680WAT      O11281   1.347   4.643   9.598
 3680WAT     H111282   1.353   4.736   9.636
 3680WAT     H211283   1.332   4.648   9.500
 3681WAT      O11284   0.333   3.511   1.882
 3681WAT     H111285   0.282   3.585   1.839
 3681WAT     H211286   0.393   3.548   1.953
 3682WAT      O11287   6.786   1.593   7.589
 3682WAT     H111288   6.827   1.628   7.505
 3682WAT     H211289   6.843   1.519   7.625
 3683WAT      O11290   4.107   2.861   0.789
 3683WAT     H111291   4.009   2.843   0.794
 3683WAT     H211292   4.148   2.807   0.716
 3684WAT      O11293   8.710   8.058   3.858
 3684WAT     H111294   8.809   8.070   3.850
 3684WAT     H211295   8.687   8.032   3.952
 3685WAT      O11296   3.518   5.684   1.523
 3685WAT     H111297   3.453   5.758   1.509
 3685WAT     H211298   3.560   5.693   1.613
 3686WAT      O11299   6.893   6.084   6.484
 3686WAT     H111300   6.907   5.993   6.523
 3686WAT     H211301   6.975   6.112   6.435
 3687WAT      O11302   3.493   6.849   7.989
 3687WAT     H111303   3.523   6.921   8.052
 3687WAT     H211304   3.467   6.768   8.041
 3688WAT      O11305   3.226   9.580   0.104
 3688WAT     H111306   3.206   9.654   0.168
 3688WAT     H211307   3.255   9.499   0.154
 3689WAT      O11308   2.719   3.350   6.251
 3689WAT     H111309   2.763   3.264   6.278
 3689WAT     H211310   2.676   3.339   6.162
 3690WAT      O11311   5.423   4.833   0.356
 3690WAT     H111312   5.449   4.901   0.425
 3690WAT     H211313   5.327   4.846   0.332
 3691WAT      O11314   6.155   2.948   2.658
 3691WAT     H111315   6.227   3.007   2.620
 3691WAT     H211316   6.167   2.855   2.622
 3692WAT      O11317   9.189   8.008   3.069
 3692WAT     H111318   9.186   8.019   3.169
 3692WAT     H211319   9.181   8.098   3.026
 3693WAT      O11320   1.307   8.522   2.893
 3693WAT     H111321   1.259   8.586   2.953
 3693WAT     H211322   1.284   8.428   2.920
 3694WAT      O11323   9.171   2.181   7.210
 3694WAT     H111324   9.224   2.132   7.141
 3694WAT     H211325   9.158   2.123   7.290
 3695WAT      O11326   3.650   9.227   2.382
 3695WAT     H111327   3.638   9.324   2.359
 3695WAT     H211328   3.652   9.216   2.481
 3696WAT      O11329   9.354   9.548   9.641
 3696WAT     H111330   9.442   9.531   9.597
 3696WAT     H211331   9.360   9.630   9.698
 3697WAT      O11332   1.362   8.501   8.178
 3697WAT     H111333   1.304   8.505   8.260
 3697WAT     H211334   1.444   8.557   8.193
 3698WAT      O11335   3.407   1.792   0.227
 3698WAT     H111336   3.505   1.773   0.231
 3698WAT     H211337   3.389   1.858   0.155
 3699WAT      O11338   5.917   4.217   1.117
 3699WAT     H111339   5.984   4.214   1.043
 3699WAT     H211340   5.903   4.312   1.146
 3700WAT      O11341   5.330   7.072   1.207
 3700WAT     H111342   5.236   7.046   1.184
 3700WAT     H211343   5.390   7.049   1.131
 3701WAT      O11344   1.539   2.243   7.114
 3701WAT     H111345   1.449   2.255   7.073
 3701WAT     H211346   1.551   2.146   7.139
 3702WAT      O11347   0.042   6.408   0.935
 3702WAT     H111348   0.125   6.385   0.984
 3702WAT     H211349   0.057   6.395   0.837
 3703WAT      O11350   8.370   1.280   3.157
 3703WAT     H111351   8.426   1.205   3.192
 3703WAT     H211352   8.309   1.245   3.085
 3704WAT      O11353   9.768   1.464   8.578
 3704WAT     H111354   9.736   1.375   8.545
 3704WAT     H211355   9.788   1.523   8.500
 3705WAT      O11356   0.653   3.133   0.012
 3705WAT     H111357   0.580   3.168  -0.047
 3705WAT     H211358   0.615   3.106   0.100
 3706WAT      O11359   5.171   8.398   1.160
 3706WAT     H111360   5.232   8.478   1.172
 3706WAT     H211361   5.227   8.315   1.155
 3707WAT      O11362   3.949   1.473   7.145
 3707WAT     H111363   3.949   1.555   7.088
 3707WAT     H211364   3.877   1.480   7.214
 3708WAT      O11365   4.699   5.615   7.183
 3708WAT     H111366   4.627   5.600   7.251
 3708WAT     H211367   4.658   5.653   7.100
 3709WAT      O11368   2.100   2.857   4.302
 3709WAT     H111369   2.037   2.932   4.281
 3709WAT     H211370   2.120   2.857   4.400
 3710WAT      O11371   4.329   2.473   2.462
 3710WAT     H111372   4.261   2.488   2.391
 3710WAT     H211373   4.410   2.429   2.423
 3711WAT      O11374   0.982   6.799   0.654
 3711WAT     H111375   0.942   6.751   0.577
 3711WAT     H211376   0.917   6.866   0.690
 3712WAT      O11377   3.847   6.565   0.277
 3712WAT     H111378   3.889   6.655   0.287
 3712WAT     H211379   3.784   6.566   0.199
 3713WAT      O11380   2.982   9.387   4.051
 3713WAT     H111381   3.025   9.463   4.003
 3713WAT     H211382   2.974   9.309   3.989
 3714WAT      O11383   8.250   7.209   1.574
 3714WAT     H111384   8.295   7.122   1.553
 3714WAT     H211385   8.214   7.206   1.667
 3715WAT      O11386   6.250   1.540   6.602
 3715WAT     H111387   6.257   1.625   6.550
 3715WAT     H211388   6.174   1.547   6.667
 3716WAT      O11389   5.748   5.906   7.904
 3716WAT     H111390   5.651   5.928   7.919
 3716WAT     H211391   5.789   5.876   7.990
 3717WAT      O11392   4.053   1.784   4.962
 3717WAT     H111393   3.958   1.795   4.934
 3717WAT     H211394   4.094   1.708   4.910
 3718WAT      O11395   6.063   5.998   4.610
 3718WAT     H111396   6.007   5.918   4.631
 3718WAT     H211397   6.159   5.969   4.600
 3719WAT      O11398   4.841   0.958   2.565
 3719WAT     H111399   4.748   0.963   2.601
 3719WAT     H211400   4.838   0.927   2.470
 3720WAT      O11401   3.712   6.501   9.267
 3720WAT     H111402   3.675   6.594   9.279
 3720WAT     H211403   3.671   6.440   9.335
 3721WAT      O11404   4.245   0.762   9.708
 3721WAT     H111405   4.296   0.790   9.626
 3721WAT     H211406   4.152   0.736   9.682
 3722WAT      O11407   7.511   3.055   8.645
 3722WAT     H111408   7.551   3.043   8.736
 3722WAT     H211409   7.451   3.135   8.645
 3723WAT      O11410   9.250   1.924   8.146
 3723WAT     H111411   9.232   1.992   8.075
 3723WAT     H211412   9.348   1.907   8.152
 3724WAT      O11413   7.711   4.252   5.143
 3724WAT     H111414   7.689   4.156   5.124
 3724WAT     H211415   7.646   4.288   5.211
 3725WAT      O11416   9.521   5.719   9.483
 3725WAT     H111417   9.590   5.780   9.521
 3725WAT     H211418   9.545   5.624   9.504
 3726WAT      O11419   1.440   1.770   8.856
 3726WAT     H111420   1.412   1.852   8.805
 3726WAT     H211421   1.535   1.748   8.835
 3727WAT      O11422   1.113   0.523   5.693
 3727WAT     H111423   1.084   0.576   5.773
 3727WAT     H211424   1.053   0.545   5.616
 3728WAT      O11425   4.569   1.167   0.110
 3728WAT     H111426   4.497   1.111   0.069
 3728WAT     H211427   4.567   1.156   0.209
 3729WAT      O11428   2.817   9.225   2.379
 3729WAT     H111429   2.743   9.271   2.429
 3729WAT     H211430   2.880   9.183   2.445
 3730WAT      O11431   3.659   9.382   6.327
 3730WAT     H111432   3.633   9.334   6.411
 3730WAT     H211433   3.758   9.389   6.323
 3731WAT      O11434   6.947   9.375   8.739
 3731WAT     H111435   6.908   9.314   8.670
 3731WAT     H211436   6.968   9.322   8.822
 3732WAT      O11437   0.410   0.726   0.617
 3732WAT     H111438   0.474   0.710   0.693
 3732WAT     H211439   0.331   0.666   0.627
 3733WAT      O11440   0.522   2.421   3.958
 3733WAT     H111441   0.561   2.418   4.051
 3733WAT     H211442   0.449   2.489   3.955
 3734WAT      O11443   7.874   4.341   3.207
 3734WAT     H111444   7.867   4.414   3.275
 3734WAT     H211445   7.956   4.287   3.225
 3735WAT      O11446   0.125   7.752   3.550
 3735WAT     H111447   0.077   7.790   3.629
 3735WAT     H211448   0.085   7.790   3.466
 3736WAT      O11449   4.771   3.697   1.036
 3736WAT     H111450   4.731   3.687   0.945
 3736WAT     H211451   4.798   3.793   1.051
 3737WAT      O11452   3.434   8.455   0.299
 3737WAT     H111453   3.334   8.455   0.297
 3737WAT     H211454   3.469   8.485   0.211
 3738WAT      O11455   6.019   1.104   0.432
 3738WAT     H111456   6.026   1.155   0.517
 3738WAT     H211457   5.923   1.080   0.415
 3739WAT      O11458   0.331   4.674   2.678
 3739WAT     H111459   0.383   4.637   2.754
 3739WAT     H211460   0.364   4.765   2.655
 3740WAT      O11461   2.461   1.446   7.305
 3740WAT     H111462   2.444   1.386   7.383
 3740WAT     H211463   2.407   1.414   7.227
 3741WAT      O11464   8.525   4.985   4.225
 3741WAT     H111465   8.616   4.986   4.266
 3741WAT     H211466   8.473   4.907   4.261
 3742WAT      O11467   3.508   0.006   7.524
 3742WAT     H111468   3.499  -0.012   7.426
 3742WAT     H211469   3.475  -0.074   7.575
 3743WAT      O11470   8.564   5.773   3.633
 3743WAT     H111471   8.635   5.734   3.691
 3743WAT     H211472   8.478   5.779   3.684
 3744WAT      O11473   3.206   8.383   6.228
 3744WAT     H111474   3.259   8.367   6.311
 3744WAT     H211475   3.262   8.431   6.161
 3745WAT      O11476   1.174   3.209   8.112
 3745WAT     H111477   1.253   3.270   8.123
 3745WAT     H211478   1.108   3.252   8.050
 3746WAT      O11479   4.201   5.909   2.698
 3746WAT     H111480   4.300   5.898   2.689
 3746WAT     H211481   4.181   5.985   2.759
 3747WAT      O11482   4.140   9.064   0.330
 3747WAT     H111483   4.050   9.030   0.357
 3747WAT     H211484   4.172   9.130   0.398
 3748WAT      O11485   8.356   4.206   6.023
 3748WAT     H111486   8.310   4.198   5.935
 3748WAT     H211487   8.411   4.290   6.024
 3749WAT      O11488   3.998   7.332   6.957
 3749WAT     H111489   3.909   7.310   6.917
 3749WAT     H211490   4.010   7.279   7.041
 3750WAT      O11491   2.752   3.503   2.971
 3750WAT     H111492   2.715   3.442   2.900
 3750WAT     H211493   2.798   3.580   2.927
 3751WAT      O11494   2.484   8.689   5.355
 3751WAT     H111495   2.494   8.714   5.259
 3751WAT     H211496   2.574   8.693   5.400
 3752WAT      O11497   0.167   9.313   1.008
 3752WAT     H111498   0.174   9.302   0.908
 3752WAT     H211499   0.182   9.225   1.052
 3753WAT      O11500   8.639   7.649   2.744
 3753WAT     H111501   8.725   7.691   2.772
 3753WAT     H211502   8.574   7.720   2.716
 3754WAT      O11503   0.415   4.127   3.300
 3754WAT     H111504   0.324   4.124   3.258
 3754WAT     H211505   0.423   4.053   3.367
 3755WAT      O11506   7.261   5.651   6.671
 3755WAT     H111507   7.236   5.555   6.664
 3755WAT     H211508   7.201   5.697   6.736
 3756WAT      O11509   6.577   2.978   4.555
 3756WAT     H111510   6.585   2.913   4.479
 3756WAT     H211511   6.642   3.053   4.542
 3757WAT      O11512   2.386   5.003   8.133
 3757WAT     H111513   2.481   4.999   8.164
 3757WAT     H211514   2.354   5.098   8.134
 3758WAT      O11515   8.305   4.502   1.349
 3758WAT     H111516   8.228   4.499   1.285
 3758WAT     H211517   8.271   4.531   1.439
 3759WAT      O11518   0.413   3.222   9.814
 3759WAT     H111519   0.346   3.149   9.805
 3759WAT     H211520   0.385   3.285   9.887
 3760WAT      O11521   5.918   1.106   4.081
 3760WAT     H111522   5.900   1.021   4.130
 3760WAT     H211523   5.837   1.164   4.084
 3761WAT      O11524   3.783   2.987   5.600
 3761WAT     H111525   3.789   2.948   5.508
 3761WAT     H211526   3.816   2.919   5.667
 3762WAT      O11527   7.918   1.618   5.609
 3762WAT     H111528   7.893   1.710   5.577
 3762WAT     H211529   7.903   1.612   5.708
 3763WAT      O11530   2.207   5.696   1.571
 3763WAT     H111531   2.266   5.647   1.634
 3763WAT     H211532   2.153   5.631   1.518
 3764WAT      O11533   7.882   1.187   5.478
 3764WAT     H111534   7.796   1.224   5.444
 3764WAT     H211535   7.934   1.147   5.403
 3765WAT      O11536   2.962   2.150   1.165
 3765WAT     H111537   2.878   2.111   1.203
 3765WAT     H211538   2.944   2.181   1.071
 3766WAT      O11539   9.747   3.565   9.422
 3766WAT     H111540   9.762   3.645   9.365
 3766WAT     H211541   9.834   3.534   9.460
 3767WAT      O11542   7.566   0.110   7.684
 3767WAT     H111543   7.602   0.078   7.772
 3767WAT     H211544   7.475   0.150   7.698
 3768WAT      O11545   0.138   4.530   0.901
 3768WAT     H111546   0.215   4.467   0.897
 3768WAT     H211547   0.060   4.484   0.944
 3769WAT      O11548   9.375   9.819   9.704
 3769WAT     H111549   9.455   9.849   9.755
 3769WAT     H211550   9.326   9.898   9.668
 3770WAT      O11551   4.445   3.821   8.140
 3770WAT     H111552   4.451   3.892   8.210
 3770WAT     H211553   4.428   3.863   8.051
 3771WAT      O11554   3.630   9.692   9.488
 3771WAT     H111555   3.600   9.600   9.515
 3771WAT     H211556   3.646   9.694   9.389
 3772WAT      O11557   0.177   7.152   8.884
 3772WAT     H111558   0.123   7.236   8.879
 3772WAT     H211559   0.116   7.073   8.893
 3773WAT      O11560   5.531   2.265   0.005
 3773WAT     H111561   5.548   2.321   0.086
 3773WAT     H211562   5.600   2.192   0.000
 3774WAT      O11563   3.780   0.229   3.841
 3774WAT     H111564   3.872   0.259   3.865
 3774WAT     H211565   3.774   0.218   3.741
 3775WAT      O11566   9.262   2.441   7.151
 3775WAT     H111567   9.250   2.348   7.186
 3775WAT     H211568   9.211   2.451   7.066
 3776WAT      O11569   8.821   4.230   2.314
 3776WAT     H111570   8.855   4.323   2.331
 3776WAT     H211571   8.859   4.168   2.382
 3777WAT      O11572   3.149   0.458   6.754
 3777WAT     H111573   3.126   0.369   6.794
 3777WAT     H211574   3.199   0.445   6.669
 3778WAT      O11575   7.071   3.693   6.534
 3778WAT     H111576   7.154   3.738   6.502
 3778WAT     H211577   6.994   3.720   6.477
 3779WAT      O11578   1.285   5.222   6.523
 3779WAT     H111579   1.317   5.256   6.435
 3779WAT     H211580   1.356   5.236   6.592
 3780WAT      O11581   2.328   4.807   4.547
 3780WAT     H111582   2.329   4.711   4.517
 3780WAT     H211583   2.394   4.859   4.492
 3781WAT      O11584   0.757   2.089   5.471
 3781WAT     H111585   0.806   2.054   5.551
 3781WAT     H211586   0.709   2.014   5.426
 3782WAT      O11587   3.815   5.351   0.184
 3782WAT     H111588   3.741   5.366   0.118
 3782WAT     H211589   3.788   5.282   0.250
 3783WAT      O11590   8.709   2.251   5.151
 3783WAT     H111591   8.669   2.180   5.093
 3783WAT     H211592   8.677   2.239   5.245
 3784WAT      O11593   8.753   2.995   5.299
 3784WAT     H111594   8.815   3.074   5.299
 3784WAT     H211595   8.659   3.027   5.294
 3785WAT      O11596   1.929   5.541   8.319
 3785WAT     H111597   1.953   5.445   8.306
 3785WAT     H211598   1.834   5.555   8.291
 3786WAT      O11599   2.464   7.798   7.148
 3786WAT     H111600   2.521   7.741   7.088
 3786WAT     H211601   2.426   7.741   7.221
 3787WAT      O11602   9.849   4.359   7.166
 3787WAT     H111603   9.872   4.327   7.074
 3787WAT     H211604   9.914   4.430   7.194
 3788WAT      O11605   5.422   6.249   9.085
 3788WAT     H111606   5.514   6.287   9.090
 3788WAT     H211607   5.356   6.322   9.068
 3789WAT      O11608   1.394   4.635   7.418
 3789WAT     H111609   1.338   4.615   7.498
 3789WAT     H211610   1.476   4.577   7.419
 3790WAT      O11611   6.571   2.497   8.930
 3790WAT     H111612   6.561   2.593   8.902
 3790WAT     H211613   6.527   2.484   9.018
 3791WAT      O11614   8.229   2.783   1.837
 3791WAT     H111615   8.312   2.770   1.891
 3791WAT     H211616   8.180   2.696   1.827
 3792WAT      O11617   4.380   9.640   0.454
 3792WAT     H111618   4.407   9.650   0.550
 3792WAT     H211619   4.453   9.673   0.395
 3793WAT      O11620   3.690   4.978   3.097
 3793WAT     H111621   3.636   5.007   3.175
 3793WAT     H211622   3.697   5.053   3.031
 3794WAT      O11623   6.848   3.744   6.372
 3794WAT     H111624   6.821   3.804   6.296
 3794WAT     H211625   6.809   3.653   6.358
 3795WAT      O11626   7.190   9.572   6.059
 3795WAT     H111627   7.181   9.542   5.965
 3795WAT     H211628   7.278   9.541   6.095
 3796WAT      O11629   4.745   7.507   1.068
 3796WAT     H111630   4.739   7.522   0.969
 3796WAT     H211631   4.675   7.562   1.114
 3797WAT      O11632   6.918   2.388   7.883
 3797WAT     H111633   6.875   2.302   7.857
 3797WAT     H211634   6.991   2.371   7.949
 3798WAT      O11635   5.385   5.707   7.738
 3798WAT     H111636   5.435   5.631   7.780
 3798WAT     H211637   5.404   5.709   7.640
 3799WAT      O11638   2.393   9.667   0.669
 3799WAT     H111639   2.451   9.708   0.739
 3799WAT     H211640   2.324   9.733   0.640
 3800WAT      O11641   5.635   1.110   5.031
 3800WAT     H111642   5.652   1.013   5.015
 3800WAT     H211643   5.623   1.157   4.943
 3801WAT      O11644   0.251   8.956   8.437
 3801WAT     H111645   0.266   8.858   8.447
 3801WAT     H211646   0.316   8.993   8.370
 3802WAT      O11647   6.764   4.301   5.315
 3802WAT     H111648   6.768   4.401   5.305
 3802WAT     H211649   6.698   4.277   5.386
 3803WAT      O11650   1.405   0.011   1.983
 3803WAT     H111651   1.367  -0.008   1.892
 3803WAT     H211652   1.505   0.004   1.979
 3804WAT      O11653   1.903   0.319   6.969
 3804WAT     H111654   1.943   0.377   7.041
 3804WAT     H211655   1.804   0.324   6.975
 3805WAT      O11656   4.410   8.121   3.309
 3805WAT     H111657   4.422   8.206   3.258
 3805WAT     H211658   4.394   8.142   3.406
 3806WAT      O11659   4.066   9.729   6.156
 3806WAT     H111660   4.137   9.660   6.145
 3806WAT     H211661   3.983   9.686   6.191
 3807WAT      O11662   5.187   9.563   7.985
 3807WAT     H111663   5.137   9.484   7.951
 3807WAT     H211664   5.161   9.644   7.932
 3808WAT      O11665   8.543   6.862   8.896
 3808WAT     H111666   8.607   6.791   8.924
 3808WAT     H211667   8.485   6.887   8.974
 3809WAT      O11668   0.428   7.127   5.312
 3809WAT     H111669   0.336   7.162   5.295
 3809WAT     H211670   0.480   7.192   5.368
 3810WAT      O11671   3.303   9.279   7.964
 3810WAT     H111672   3.387   9.318   8.003
 3810WAT     H211673   3.298   9.182   7.988
 3811WAT      O11674   1.065   6.957   0.098
 3811WAT     H111675   1.035   7.042   0.055
 3811WAT     H211676   0.997   6.927   0.165
 3812WAT      O11677   1.763   4.280   8.735
 3812WAT     H111678   1.806   4.370   8.730
 3812WAT     H211679   1.689   4.282   8.802
 3813WAT      O11680   0.756   2.787   5.312
 3813WAT     H111681   0.684   2.738   5.361
 3813WAT     H211682   0.811   2.839   5.377
 3814WAT      O11683   7.903   8.428   8.215
 3814WAT     H111684   7.973   8.452   8.282
 3814WAT     H211685   7.822   8.395   8.263
 3815WAT      O11686   8.251   1.148   2.616
 3815WAT     H111687   8.251   1.048   2.618
 3815WAT     H211688   8.170   1.181   2.567
 3816WAT      O11689   2.783   3.385   7.127
 3816WAT     H111690   2.768   3.321   7.203
 3816WAT     H211691   2.864   3.358   7.076
 3817WAT      O11692   6.784   8.524   2.350
 3817WAT     H111693   6.801   8.619   2.325
 3817WAT     H211694   6.868   8.471   2.341
 3818WAT      O11695   2.044   2.373   9.554
 3818WAT     H111696   2.124   2.344   9.502
 3818WAT     H211697   1.984   2.427   9.496
 3819WAT      O11698   1.462   2.841   4.122
 3819WAT     H111699   1.516   2.882   4.048
 3819WAT     H211700   1.522   2.784   4.179
 3820WAT      O11701   6.060   3.453   1.766
 3820WAT     H111702   6.090   3.431   1.673
 3820WAT     H211703   6.046   3.368   1.817
 3821WAT      O11704   6.222   8.421   1.385
 3821WAT     H111705   6.132   8.440   1.424
 3821WAT     H211706   6.219   8.338   1.330
 3822WAT      O11707   4.781   1.516   0.793
 3822WAT     H111708   4.823   1.604   0.771
 3822WAT     H211709   4.683   1.528   0.809
 3823WAT      O11710   7.124   6.880   4.872
 3823WAT     H111711   7.031   6.913   4.854
 3823WAT     H211712   7.134   6.787   4.837
 3824WAT      O11713   8.534   4.691   6.624
 3824WAT     H111714   8.440   4.724   6.620
 3824WAT     H211715   8.596   4.769   6.630
 3825WAT      O11716   5.614   3.364   2.565
 3825WAT     H111717   5.570   3.386   2.477
 3825WAT     H211718   5.711   3.389   2.561
 3826WAT      O11719   5.886   4.466   1.206
 3826WAT     H111720   5.899   4.471   1.305
 3826WAT     H211721   5.844   4.551   1.174
 3827WAT      O11722   5.678   3.955   7.121
 3827WAT     H111723   5.717   4.036   7.166
 3827WAT     H211724   5.679   3.968   7.022
 3828WAT      O11725   2.759   6.824   4.919
 3828WAT     H111726   2.748   6.750   4.985
 3828WAT     H211727   2.856   6.840   4.901
 3829WAT      O11728   7.894   9.370   2.283
 3829WAT     H111729   7.965   9.387   2.215
 3829WAT     H211730   7.824   9.441   2.277
 3830WAT      O11731   5.357   3.993   9.212
 3830WAT     H111732   5.329   3.951   9.299
 3830WAT     H211733   5.427   3.936   9.169
 3831WAT      O11734   2.130   0.710   3.436
 3831WAT     H111735   2.195   0.732   3.364
 3831WAT     H211736   2.176   0.715   3.525
 3832WAT      O11737   2.961   4.004   8.023
 3832WAT     H111738   3.022   3.972   8.096
 3832WAT     H211739   2.910   3.926   7.986
 3833WAT      O11740   6.517   2.103   5.376
 3833WAT     H111741   6.481   2.175   5.436
 3833WAT     H211742   6.523   2.137   5.283
 3834WAT      O11743   8.060   0.941   1.706
 3834WAT     H111744   8.152   0.960   1.739
 3834WAT     H211745   8.037   0.846   1.726
 3835WAT      O11746   3.716   8.399   1.954
 3835WAT     H111747   3.630   8.358   1.983
 3835WAT     H211748   3.739   8.476   2.015
 3836WAT      O11749   0.276   9.128   0.514
 3836WAT     H111750   0.330   9.045   0.497
 3836WAT     H211751   0.337   9.207   0.519
 3837WAT      O11752   5.471   1.543   5.797
 3837WAT     H111753   5.503   1.536   5.892
 3837WAT     H211754   5.526   1.484   5.738
 3838WAT      O11755   5.229   1.196   0.239
 3838WAT     H111756   5.312   1.213   0.185
 3838WAT     H211757   5.150   1.233   0.190
 3839WAT      O11758   9.707   4.391   9.273
 3839WAT     H111759   9.647   4.330   9.325
 3839WAT     H211760   9.711   4.480   9.318
 3840WAT      O11761   7.109   5.828   7.914
 3840WAT     H111762   7.062   5.832   8.002
 3840WAT     H211763   7.075   5.750   7.862
 3841WAT      O11764   8.061   5.668   1.654
 3841WAT     H111765   8.026   5.679   1.747
 3841WAT     H211766   8.114   5.749   1.629
 3842WAT      O11767   6.122   6.599   8.756
 3842WAT     H111768   6.120   6.699   8.754
 3842WAT     H211769   6.206   6.568   8.799
 3843WAT      O11770   1.702   5.638   2.037
 3843WAT     H111771   1.603   5.622   2.038
 3843WAT     H211772   1.749   5.551   2.051
 3844WAT      O11773   4.221   4.773   6.502
 3844WAT     H111774   4.292   4.836   6.536
 3844WAT     H211775   4.134   4.794   6.547
 3845WAT      O11776   8.367   6.069   0.570
 3845WAT     H111777   8.382   6.005   0.645
 3845WAT     H211778   8.360   6.162   0.607
 3846WAT      O11779   0.872   3.680   1.985
 3846WAT     H111780   0.799   3.748   1.990
 3846WAT     H211781   0.834   3.589   2.002
 3847WAT      O11782   4.205   5.533   6.225
 3847WAT     H111783   4.260   5.489   6.296
 3847WAT     H211784   4.132   5.586   6.268
 3848WAT      O11785   2.613   7.260   0.558
 3848WAT     H111786   2.541   7.198   0.525
 3848WAT     H211787   2.703   7.220   0.540
 3849WAT      O11788   8.551   5.944   3.441
 3849WAT     H111789   8.557   5.874   3.512
 3849WAT     H211790   8.584   6.031   3.478
 3850WAT      O11791   1.999   3.489   8.299
 3850WAT     H111792   1.975   3.394   8.319
 3850WAT     H211793   2.072   3.519   8.361
 3851WAT      O11794   3.843   4.771   8.133
 3851WAT     H111795   3.913   4.755   8.202
 3851WAT     H211796   3.838   4.868   8.111
 3852WAT      O11797   1.685   4.215   7.063
 3852WAT     H111798   1.656   4.138   7.119
 3852WAT     H211799   1.774   4.249   7.096
 3853WAT      O11800   3.375   7.811   8.238
 3853WAT     H111801   3.291   7.865   8.240
 3853WAT     H211802   3.366   7.738   8.170
 3854WAT      O11803   1.833   6.732   2.673
 3854WAT     H111804   1.848   6.725   2.574
 3854WAT     H211805   1.738   6.757   2.690
 3855WAT      O11806   4.096   7.231   4.377
 3855WAT     H111807   4.108   7.135   4.350
 3855WAT     H211808   4.154   7.250   4.456
 3856WAT      O11809   4.009   7.016   9.370
 3856WAT     H111810   3.932   6.982   9.424
 3856WAT     H211811   4.000   6.985   9.276
 3857WAT      O11812   2.586   2.054   9.780
 3857WAT     H111813   2.670   2.064   9.832
 3857WAT     H211814   2.589   2.111   9.698
 3858WAT      O11815   1.496   4.314   7.456
 3858WAT     H111816   1.522   4.305   7.552
 3858WAT     H211817   1.558   4.379   7.411
 3859WAT      O11818   9.209   4.310   5.950
 3859WAT     H111819   9.143   4.357   5.890
 3859WAT     H211820   9.286   4.278   5.895
 3860WAT      O11821   5.829   8.916   4.746
 3860WAT     H111822   5.877   9.003   4.757
 3860WAT     H211823   5.808   8.901   4.649
 3861WAT      O11824   0.332   5.467   6.991
 3861WAT     H111825   0.351   5.554   7.036
 3861WAT     H211826   0.268   5.414   7.047
 3862WAT      O11827   8.513   6.154   8.813
 3862WAT     H111828   8.519   6.217   8.735
 3862WAT     H211829   8.600   6.152   8.861
 3863WAT      O11830   9.528   0.947   4.553
 3863WAT     H111831   9.485   0.905   4.474
 3863WAT     H211832   9.464   1.011   4.596
 3864WAT      O11833   5.369   3.171   2.251
 3864WAT     H111834   5.279   3.178   2.208
 3864WAT     H211835   5.435   3.132   2.187
 3865WAT      O11836   2.787   0.553   8.751
 3865WAT     H111837   2.762   0.553   8.848
 3865WAT     H211838   2.818   0.644   8.724
 3866WAT      O11839   7.480   7.532   4.309
 3866WAT     H111840   7.434   7.579   4.384
 3866WAT     H211841   7.512   7.599   4.242
 3867WAT      O11842   7.658   2.360   2.249
 3867WAT     H111843   7.694   2.435   2.305
 3867WAT     H211844   7.733   2.301   2.218
 3868WAT      O11845   2.088   2.552   4.514
 3868WAT     H111846   2.124   2.645   4.518
 3868WAT     H211847   2.142   2.498   4.448
 3869WAT      O11848   3.109   0.444   2.990
 3869WAT     H111849   3.025   0.411   2.947
 3869WAT     H211850   3.188   0.404   2.945
 3870WAT      O11851   5.172   4.444   2.447
 3870WAT     H111852   5.160   4.542   2.461
 3870WAT     H211853   5.270   4.424   2.436
 3871WAT      O11854   2.422   8.732   4.345
 3871WAT     H111855   2.507   8.681   4.332
 3871WAT     H211856   2.442   8.822   4.384
 3872WAT      O11857   8.386   8.006   2.803
 3872WAT     H111858   8.444   7.944   2.750
 3872WAT     H211859   8.313   8.042   2.744
 3873WAT      O11860   9.097   7.035   8.587
 3873WAT     H111861   9.076   6.954   8.532
 3873WAT     H211862   9.196   7.044   8.595
 3874WAT      O11863   5.319   6.879   6.235
 3874WAT     H111864   5.362   6.938   6.166
 3874WAT     H211865   5.270   6.936   6.301
 3875WAT      O11866   1.731   1.400   9.835
 3875WAT     H111867   1.692   1.427   9.923
 3875WAT     H211868   1.725   1.476   9.770
 3876WAT      O11869   2.853   0.966   8.885
 3876WAT     H111870   2.826   0.918   8.968
 3876WAT     H211871   2.835   0.908   8.805
 3877WAT      O11872   9.574   5.352   0.922
 3877WAT     H111873   9.557   5.435   0.975
 3877WAT     H211874   9.667   5.354   0.885
 3878WAT      O11875   5.440   1.064   2.641
 3878WAT     H111876   5.453   1.161   2.621
 3878WAT     H211877   5.388   1.021   2.567
 3879WAT      O11878   7.647   0.019   4.939
 3879WAT     H111879   7.569   0.066   4.898
 3879WAT     H211880   7.627  -0.002   5.035
 3880WAT      O11881   2.240   6.390   0.090
 3880WAT     H111882   2.167   6.391   0.158
 3880WAT     H211883   2.327   6.370   0.135
 3881WAT      O11884   8.706   0.206   9.483
 3881WAT     H111885   8.606   0.197   9.479
 3881WAT     H211886   8.742   0.144   9.553
 3882WAT      O11887   6.318   8.673   4.583
 3882WAT     H111888   6.311   8.773   4.586
 3882WAT     H211889   6.322   8.637   4.676
 3883WAT      O11890   8.857   1.426   0.265
 3883WAT     H111891   8.831   1.339   0.307
 3883WAT     H211892   8.954   1.443   0.279
 3884WAT      O11893   8.307   4.736   1.204
 3884WAT     H111894   8.215   4.697   1.197
 3884WAT     H211895   8.373   4.664   1.225
 3885WAT      O11896   6.382   1.876   3.903
 3885WAT     H111897   6.303   1.829   3.864
 3885WAT     H211898   6.407   1.953   3.844
 3886WAT      O11899   3.508   8.788   3.343
 3886WAT     H111900   3.519   8.691   3.320
 3886WAT     H211901   3.521   8.800   3.442
 3887WAT      O11902   1.192   8.887   7.179
 3887WAT     H111903   1.172   8.861   7.084
 3887WAT     H211904   1.177   8.986   7.190
 3888WAT      O11905   0.156   1.567   9.155
 3888WAT     H111906   0.087   1.614   9.100
 3888WAT     H211907   0.123   1.560   9.250
 3889WAT      O11908   3.610   1.674   3.374
 3889WAT     H111909   3.586   1.744   3.442
 3889WAT     H211910   3.527   1.628   3.343
 3890WAT      O11911   2.043   0.865   7.299
 3890WAT     H111912   2.097   0.791   7.336
 3890WAT     H211913   2.103   0.933   7.257
 3891WAT      O11914   0.067   9.333   7.139
 3891WAT     H111915   0.038   9.288   7.054
 3891WAT     H211916   0.019   9.291   7.216
 3892WAT      O11917   6.794   8.268   7.647
 3892WAT     H111918   6.768   8.188   7.700
 3892WAT     H211919   6.712   8.318   7.619
 3893WAT      O11920   1.546   3.474   2.741
 3893WAT     H111921   1.509   3.498   2.831
 3893WAT     H211922   1.471   3.444   2.682
 3894WAT      O11923   1.634   9.671   8.893
 3894WAT     H111924   1.610   9.768   8.888
 3894WAT     H211925   1.699   9.657   8.968
 3895WAT      O11926   2.714   6.098   4.973
 3895WAT     H111927   2.621   6.127   4.954
 3895WAT     H211928   2.737   6.117   5.068
 3896WAT      O11929   1.987   8.250   3.606
 3896WAT     H111930   1.921   8.215   3.671
 3896WAT     H211931   2.059   8.300   3.655
 3897WAT      O11932   1.629   5.356   3.814
 3897WAT     H111933   1.555   5.335   3.750
 3897WAT     H211934   1.709   5.300   3.791
 3898WAT      O11935   3.080   8.965   2.766
 3898WAT     H111936   2.988   8.990   2.796
 3898WAT     H211937   3.117   9.037   2.707
 3899WAT      O11938   5.434   4.397   8.137
 3899WAT     H111939   5.486   4.482   8.129
 3899WAT     H211940   5.451   4.356   8.227
 3900WAT      O11941   7.522   6.555   6.271
 3900WAT     H111942   7.436   6.558   6.322
 3900WAT     H211943   7.505   6.519   6.179
 3901WAT      O11944   6.176   4.041   8.254
 3901WAT     H111945   6.205   3.975   8.323
 3901WAT     H211946   6.227   4.126   8.265
 3902WAT      O11947   9.308   4.813   9.737
 3902WAT     H111948   9.356   4.892   9.699
 3902WAT     H211949   9.315   4.736   9.674
 3903WAT      O11950   0.554   4.374   0.012
 3903WAT     H111951   0.570   4.324   0.097
 3903WAT     H211952   0.640   4.414  -0.020
 3904WAT      O11953   3.680   6.379   4.823
 3904WAT     H111954   3.746   6.450   4.798
 3904WAT     H211955   3.713   6.329   4.903
 3905WAT      O11956   2.085   3.327   2.181
 3905WAT     H111957   2.053   3.262   2.249
 3905WAT     H211958   2.010   3.388   2.155
 3906WAT      O11959   7.070   3.053   5.031
 3906WAT     H111960   6.972   3.058   5.050
 3906WAT     H211961   7.121   3.084   5.111
 3907WAT      O11962   2.436   8.312   9.139
 3907WAT     H111963   2.362   8.291   9.075
 3907WAT     H211964   2.426   8.405   9.173
 3908WAT      O11965   8.518   9.091   0.276
 3908WAT     H111966   8.603   9.137   0.250
 3908WAT     H211967   8.448   9.159   0.297
 3909WAT      O11968   3.476   8.241   5.748
 3909WAT     H111969   3.527   8.251   5.662
 3909WAT     H211970   3.515   8.167   5.802
 3910WAT      O11971   9.449   7.545   2.824
 3910WAT     H111972   9.354   7.572   2.806
 3910WAT     H211973   9.454   7.501   2.914
 3911WAT      O11974   8.782   4.566   7.412
 3911WAT     H111975   8.748   4.545   7.320
 3911WAT     H211976   8.728   4.516   7.480
 3912WAT      O11977   0.912   4.592   4.390
 3912WAT     H111978   0.884   4.497   4.380
 3912WAT     H211979   0.934   4.611   4.485
 3913WAT      O11980   8.315   2.137   6.453
 3913WAT     H111981   8.375   2.057   6.458
 3913WAT     H211982   8.248   2.124   6.380
 3914WAT      O11983   7.464   4.144   1.573
 3914WAT     H111984   7.547   4.181   1.530
 3914WAT     H211985   7.465   4.165   1.671
 3915WAT      O11986   0.720   6.210   0.670
 3915WAT     H111987   0.791   6.245   0.732
 3915WAT     H211988   0.659   6.150   0.721
 3916WAT      O11989   4.133   6.520   5.105
 3916WAT     H111990   4.199   6.446   5.119
 3916WAT     H211991   4.107   6.524   5.009
 3917WAT      O11992   4.355   0.532   3.115
 3917WAT     H111993   4.293   0.497   3.045
 3917WAT     H211994   4.352   0.472   3.195
 3918WAT      O11995   9.073   0.496   2.915
 3918WAT     H111996   9.012   0.496   2.836
 3918WAT     H211997   9.066   0.583   2.963
 3919WAT      O11998   1.921   0.898   2.314
 3919WAT     H111999   1.869   0.965   2.261
 3919WAT     H212000   1.998   0.865   2.259
 3920WAT      O12001   4.092   1.485   8.231
 3920WAT     H112002   3.992   1.491   8.221
 3920WAT     H212003   4.115   1.415   8.298
 3921WAT      O12004   4.355   2.969   2.438
 3921WAT     H112005   4.341   3.003   2.345
 3921WAT     H212006   4.451   2.979   2.463
 3922WAT      O12007   8.961   8.953   3.886
 3922WAT     H112008   8.868   8.965   3.922
 3922WAT     H212009   8.964   8.985   3.792
 3923WAT      O12010   8.592   1.473   9.492
 3923WAT     H112011   8.595   1.555   9.548
 3923WAT     H212012   8.516   1.480   9.427
 3924WAT      O12013   9.536   4.421   7.040
 3924WAT     H112014   9.437   4.429   7.030
 3924WAT     H212015   9.563   4.446   7.133
 3925WAT      O12016   2.350   7.410   8.581
 3925WAT     H112017   2.284   7.340   8.611
 3925WAT     H212018   2.313   7.501   8.601
 3926WAT      O12019   4.792   0.396   2.561
 3926WAT     H112020   4.848   0.401   2.643
 3926WAT     H212021   4.809   0.309   2.514
 3927WAT      O12022   0.779   8.810   1.871
 3927WAT     H112023   0.816   8.830   1.780
 3927WAT     H212024   0.693   8.859   1.883
 3928WAT      O12025   0.376   5.829   6.099
 3928WAT     H112026   0.330   5.917   6.109
 3928WAT     H212027   0.308   5.758   6.083
 3929WAT      O12028   0.955   6.531   9.518
 3929WAT     H112029   1.037   6.545   9.573
 3929WAT     H212030   0.981   6.513   9.423
 3930WAT      O12031   1.558   3.176   1.279
 3930WAT     H112032   1.566   3.225   1.193
 3930WAT     H212033   1.483   3.110   1.273
 3931WAT      O12034   4.447   8.139   5.934
 3931WAT     H112035   4.374   8.207   5.940
 3931WAT     H212036   4.410   8.054   5.898
 3932WAT      O12037   0.215   0.108   4.346
 3932WAT     H112038   0.282   0.132   4.417
 3932WAT     H212039   0.251   0.136   4.257
 3933WAT      O12040   8.023   1.554   2.362
 3933WAT     H112041   8.059   1.638   2.401
 3933WAT     H212042   7.941   1.526   2.412
 3934WAT      O12043   2.429   4.263   9.219
 3934WAT     H112044   2.354   4.197   9.222
 3934WAT     H212045   2.514   4.215   9.197
 3935WAT      O12046   8.809   5.713   9.683
 3935WAT     H112047   8.829   5.643   9.614
 3935WAT     H212048   8.828   5.676   9.774
 3936WAT      O12049   5.341   2.502   8.577
 3936WAT     H112050   5.265   2.508   8.642
 3936WAT     H212051   5.421   2.465   8.624
 3937WAT      O12052   3.902   2.780   0.345
 3937WAT     H112053   3.942   2.689   0.341
 3937WAT     H212054   3.803   2.772   0.356
 3938WAT      O12055   5.710   9.359   3.484
 3938WAT     H112056   5.691   9.263   3.462
 3938WAT     H212057   5.739   9.366   3.580
 3939WAT      O12058   6.077   9.097   9.351
 3939WAT     H112059   6.039   9.053   9.432
 3939WAT     H212060   6.050   9.045   9.269
 3940WAT      O12061   3.154   2.731   5.294
 3940WAT     H112062   3.181   2.635   5.289
 3940WAT     H212063   3.173   2.775   5.207
 3941WAT      O12064   4.565   4.824   2.809
 3941WAT     H112065   4.550   4.767   2.728
 3941WAT     H212066   4.488   4.815   2.872
 3942WAT      O12067   8.229   5.226   0.338
 3942WAT     H112068   8.167   5.162   0.293
 3942WAT     H212069   8.321   5.214   0.302
 3943WAT      O12070   1.317   1.339   9.057
 3943WAT     H112071   1.347   1.280   9.132
 3943WAT     H212072   1.348   1.433   9.073
 3944WAT      O12073   0.776   4.053   0.384
 3944WAT     H112074   0.801   4.050   0.480
 3944WAT     H212075   0.818   3.975   0.336
 3945WAT      O12076   4.330   3.963   0.690
 3945WAT     H112077   4.295   4.028   0.757
 3945WAT     H212078   4.355   3.877   0.735
 3946WAT      O12079   3.711   6.804   4.882
 3946WAT     H112080   3.760   6.802   4.969
 3946WAT     H212081   3.631   6.744   4.887
 3947WAT      O12082   5.257   7.767   1.516
 3947WAT     H112083   5.332   7.704   1.496
 3947WAT     H212084   5.170   7.722   1.499
 3948WAT      O12085   0.336   5.811   1.975
 3948WAT     H112086   0.277   5.732   1.956
 3948WAT     H212087   0.282   5.895   1.966
 3949WAT      O12088   4.862   9.752   2.693
 3949WAT     H112089   4.865   9.694   2.612
 3949WAT     H212090   4.871   9.695   2.775
 3950WAT      O12091   0.480   6.964   5.100
 3950WAT     H112092   0.474   7.014   5.186
 3950WAT     H212093   0.502   6.868   5.118
 3951WAT      O12094   3.722   4.022   8.766
 3951WAT     H112095   3.626   4.048   8.780
 3951WAT     H212096   3.769   4.020   8.854
 3952WAT      O12097   1.430   6.139   1.697
 3952WAT     H112098   1.525   6.172   1.701
 3952WAT     H212099   1.423   6.069   1.626
 3953WAT      O12100   2.643   5.759   1.691
 3953WAT     H112101   2.662   5.664   1.666
 3953WAT     H212102   2.572   5.796   1.630
 3954WAT      O12103   0.962   2.064   5.654
 3954WAT     H112104   1.055   2.028   5.658
 3954WAT     H212105   0.966   2.161   5.629
 3955WAT      O12106   3.542   9.795   2.920
 3955WAT     H112107   3.571   9.808   3.015
 3955WAT     H212108   3.480   9.717   2.915
 3956WAT      O12109   5.374   5.734   1.778
 3956WAT     H112110   5.370   5.637   1.802
 3956WAT     H212111   5.468   5.758   1.753
 3957WAT      O12112   5.072   1.127   8.865
 3957WAT     H112113   5.170   1.128   8.846
 3957WAT     H212114   5.057   1.120   8.964
 3958WAT      O12115   5.372   1.813   5.045
 3958WAT     H112116   5.333   1.877   4.979
 3958WAT     H212117   5.341   1.837   5.137
 3959WAT      O12118   0.841   9.330   7.072
 3959WAT     H112119   0.824   9.401   7.140
 3959WAT     H212120   0.936   9.298   7.080
 3960WAT      O12121   2.705   5.824   2.280
 3960WAT     H112122   2.667   5.789   2.195
 3960WAT     H212123   2.636   5.878   2.328
 3961WAT      O12124   3.800   0.016   6.859
 3961WAT     H112125   3.840  -0.064   6.815
 3961WAT     H212126   3.816   0.012   6.958
 3962WAT      O12127   4.282   4.477   1.142
 3962WAT     H112128   4.252   4.391   1.184
 3962WAT     H212129   4.249   4.482   1.048
 3963WAT      O12130   9.273   3.227   8.915
 3963WAT     H112131   9.234   3.136   8.930
 3963WAT     H212132   9.307   3.264   9.001
 3964WAT      O12133   7.753   0.456   0.121
 3964WAT     H112134   7.697   0.509   0.058
 3964WAT     H212135   7.839   0.505   0.139
 3965WAT      O12136   4.307   2.229   3.040
 3965WAT     H112137   4.210   2.211   3.025
 3965WAT     H212138   4.321   2.327   3.054
 3966WAT      O12139   7.469   6.693   0.570
 3966WAT     H112140   7.451   6.613   0.514
 3966WAT     H212141   7.463   6.668   0.667
 3967WAT      O12142   1.333   1.866   9.845
 3967WAT     H112143   1.302   1.771   9.835
 3967WAT     H212144   1.279   1.925   9.786
 3968WAT      O12145   8.233   1.228   2.056
 3968WAT     H112146   8.182   1.234   1.969
 3968WAT     H212147   8.204   1.302   2.116
 3969WAT      O12148   1.907   4.657   5.348
 3969WAT     H112149   1.878   4.611   5.432
 3969WAT     H212150   1.936   4.751   5.370
 3970WAT      O12151   3.380   5.598   3.361
 3970WAT     H112152   3.380   5.535   3.284
 3970WAT     H212153   3.427   5.556   3.438
 3971WAT      O12154   3.785   8.035   6.067
 3971WAT     H112155   3.796   8.027   6.166
 3971WAT     H212156   3.821   8.123   6.037
 3972WAT      O12157   7.159   0.686   0.924
 3972WAT     H112158   7.249   0.692   0.880
 3972WAT     H212159   7.170   0.683   1.023
 3973WAT      O12160   0.126   6.007   8.871
 3973WAT     H112161   0.038   5.969   8.840
 3973WAT     H212162   0.111   6.061   8.954
 3974WAT      O12163   9.272   6.325   4.369
 3974WAT     H112164   9.202   6.268   4.410
 3974WAT     H212165   9.339   6.268   4.321
 3975WAT      O12166   5.331   8.077   3.991
 3975WAT     H112167   5.269   8.031   4.056
 3975WAT     H212168   5.301   8.057   3.898
 3976WAT      O12169   0.354   1.708   4.173
 3976WAT     H112170   0.421   1.718   4.099
 3976WAT     H212171   0.262   1.707   4.135
 3977WAT      O12172   4.126   1.679   4.117
 3977WAT     H112173   4.153   1.673   4.213
 3977WAT     H212174   4.208   1.677   4.060
 3978WAT      O12175   1.917   1.881   6.262
 3978WAT     H112176   1.820   1.897   6.280
 3978WAT     H212177   1.938   1.907   6.167
 3979WAT      O12178   2.878   5.056   7.565
 3979WAT     H112179   2.806   5.112   7.606
 3979WAT     H212180   2.968   5.095   7.587
 3980WAT      O12181   5.364   0.362   7.055
 3980WAT     H112182   5.386   0.330   6.962
 3980WAT     H212183   5.289   0.307   7.092
 3981WAT      O12184   8.852   1.270   3.652
 3981WAT     H112185   8.857   1.370   3.640
 3981WAT     H212186   8.880   1.247   3.746
 3982WAT      O12187   9.366   7.565   3.379
 3982WAT     H112188   9.459   7.530   3.384
 3982WAT     H212189   9.348   7.625   3.457
 3983WAT      O12190   4.579   0.575   4.941
 3983WAT     H112191   4.675   0.550   4.954
 3983WAT     H212192   4.535   0.509   4.881
 3984WAT      O12193   1.481   5.994   8.478
 3984WAT     H112194   1.546   5.923   8.451
 3984WAT     H212195   1.452   6.046   8.398
 3985WAT      O12196   7.646   8.768   1.442
 3985WAT     H112197   7.571   8.832   1.426
 3985WAT     H212198   7.609   8.677   1.460
 3986WAT      O12199   5.639   2.209   0.709
 3986WAT     H112200   5.629   2.115   0.678
 3986WAT     H212201   5.717   2.252   0.663
 3987WAT      O12202   3.233   5.153   5.621
 3987WAT     H112203   3.201   5.124   5.711
 3987WAT     H212204   3.250   5.073   5.564
 3988WAT      O12205   5.694   7.429   2.217
 3988WAT     H112206   5.680   7.456   2.122
 3988WAT     H212207   5.703   7.329   2.222
 3989WAT      O12208   7.756   0.064   9.334
 3989WAT     H112209   7.810   0.039   9.253
 3989WAT     H212210   7.673   0.112   9.306
 3990WAT      O12211   0.951   7.137   2.184
 3990WAT     H112212   0.858   7.172   2.190
 3990WAT     H212213   1.011   7.194   2.241
 3991WAT      O12214   3.444   2.735   0.569
 3991WAT     H112215   3.444   2.655   0.509
 3991WAT     H212216   3.381   2.803   0.533
 3992WAT      O12217   4.218   8.250   1.754
 3992WAT     H112218   4.296   8.226   1.812
 3992WAT     H212219   4.243   8.325   1.693
 3993WAT      O12220   0.824   4.451   2.846
 3993WAT     H112221   0.898   4.469   2.781
 3993WAT     H212222   0.762   4.529   2.849
 3994WAT      O12223   2.319   7.098   3.043
 3994WAT     H112224   2.402   7.152   3.030
 3994WAT     H212225   2.333   7.006   3.009
 3995WAT      O12226   3.680   6.774   9.332
 3995WAT     H112227   3.586   6.753   9.358
 3995WAT     H212228   3.680   6.815   9.241
 3996WAT      O12229   1.104   8.010   3.846
 3996WAT     H112230   1.120   7.928   3.900
 3996WAT     H212231   1.190   8.038   3.804
 3997WAT      O12232   3.550   0.624   6.848
 3997WAT     H112233   3.461   0.629   6.894
 3997WAT     H212234   3.600   0.709   6.863
 3998WAT      O12235   0.609   8.998   4.239
 3998WAT     H112236   0.671   9.076   4.247
 3998WAT     H212237   0.663   8.914   4.231
 3999WAT      O12238   9.245   7.028   5.592
 3999WAT     H112239   9.336   7.068   5.582
 3999WAT     H212240   9.251   6.946   5.648
 4000WAT      O12241   5.879   2.427   2.886
 4000WAT     H112242   5.941   2.363   2.932
 4000WAT     H212243   5.898   2.427   2.788
 4001WAT      O12244   2.253   1.428   7.116
 4001WAT     H112245   2.253   1.522   7.082
 4001WAT     H212246   2.290   1.367   7.046
 4002WAT      O12247   5.096   5.244   2.867
 4002WAT     H112248   5.169   5.178   2.851
 4002WAT     H212249   5.135   5.332   2.893
 4003WAT      O12250   7.740   0.872   7.558
 4003WAT     H112251   7.838   0.893   7.561
 4003WAT     H212252   7.706   0.857   7.651
 4004WAT      O12253   6.615   9.622   8.357
 4004WAT     H112254   6.712   9.641   8.365
 4004WAT     H212255   6.575   9.679   8.285
 4005WAT      O12256   2.043   0.812   5.475
 4005WAT     H112257   1.960   0.762   5.498
 4005WAT     H212258   2.092   0.838   5.559
 4006WAT      O12259   0.869   3.502   4.416
 4006WAT     H112260   0.815   3.437   4.363
 4006WAT     H212261   0.922   3.453   4.485
 4007WAT      O12262   9.500   5.220   7.990
 4007WAT     H112263   9.479   5.309   7.951
 4007WAT     H212264   9.486   5.222   8.089
 4008WAT      O12265   2.911   3.486   0.004
 4008WAT     H112266   3.008   3.475  -0.017
 4008WAT     H212267   2.873   3.398   0.031
 4009WAT      O12268   6.616   2.874   7.803
 4009WAT     H112269   6.568   2.946   7.854
 4009WAT     H212270   6.695   2.843   7.856
 4010WAT      O12271   7.393   7.133   1.054
 4010WAT     H112272   7.467   7.082   1.013
 4010WAT     H212273   7.308   7.080   1.050
 4011WAT      O12274   0.773   6.471   1.695
 4011WAT     H112275   0.729   6.382   1.706
 4011WAT     H212276   0.860   6.471   1.743
 4012WAT      O12277   4.771   4.313   3.186
 4012WAT     H112278   4.868   4.335   3.182
 4012WAT     H212279   4.739   4.285   3.095
 4013WAT      O12280   0.560   5.857   9.773
 4013WAT     H112281   0.591   5.952   9.769
 4013WAT     H212282   0.633   5.797   9.741
 4014WAT      O12283   5.241   9.281   6.645
 4014WAT     H112284   5.179   9.290   6.723
 4014WAT     H212285   5.199   9.223   6.576
 4015WAT      O12286   6.795   0.610   2.134
 4015WAT     H112287   6.772   0.516   2.108
 4015WAT     H212288   6.836   0.611   2.225
 4016WAT      O12289   6.234   8.000   0.523
 4016WAT     H112290   6.323   7.995   0.477
 4016WAT     H212291   6.244   8.048   0.610
 4017WAT      O12292   6.020   7.281   6.934
 4017WAT     H112293   6.078   7.246   6.860
 4017WAT     H212294   5.928   7.298   6.899
 4018WAT      O12295   8.280   0.534   1.930
 4018WAT     H112296   8.272   0.452   1.874
 4018WAT     H212297   8.238   0.518   2.019
 4019WAT      O12298   4.091   1.142   7.864
 4019WAT     H112299   4.089   1.068   7.931
 4019WAT     H212300   4.050   1.224   7.904
 4020WAT      O12301   8.301   5.994   4.484
 4020WAT     H112302   8.271   6.023   4.393
 4020WAT     H212303   8.264   6.056   4.553
 4021WAT      O12304   6.579   1.750   1.111
 4021WAT     H112305   6.573   1.734   1.209
 4021WAT     H212306   6.674   1.775   1.087
 4022WAT      O12307   7.676   4.914   5.107
 4022WAT     H112308   7.638   4.830   5.071
 4022WAT     H212309   7.681   4.983   5.034
 4023WAT      O12310   0.993   9.110   2.752
 4023WAT     H112311   1.045   9.136   2.671
 4023WAT     H212312   0.914   9.170   2.761
 4024WAT      O12313   9.504   4.707   6.200
 4024WAT     H112314   9.439   4.637   6.170
 4024WAT     H212315   9.587   4.663   6.234
 4025WAT      O12316   8.789   6.327   3.370
 4025WAT     H112317   8.803   6.312   3.272
 4025WAT     H212318   8.793   6.425   3.389
 4026WAT      O12319   1.177   5.396   4.245
 4026WAT     H112320   1.138   5.377   4.155
 4026WAT     H212321   1.105   5.391   4.314
 4027WAT      O12322   2.588   6.159   7.114
 4027WAT     H112323   2.635   6.149   7.201
 4027WAT     H212324   2.506   6.214   7.126
 4028WAT      O12325   3.655   4.345   3.002
 4028WAT     H112326   3.673   4.259   3.049
 4028WAT     H212327   3.734   4.406   3.010
 4029WAT      O12328   4.927   3.549   0.451
 4029WAT     H112329   4.980   3.571   0.369
 4029WAT     H212330   4.973   3.477   0.503
 4030WAT      O12331   5.216   4.235   5.157
 4030WAT     H112332   5.175   4.278   5.077
 4030WAT     H212333   5.316   4.242   5.151
 4031WAT      O12334   8.652   4.425   8.024
 4031WAT     H112335   8.677   4.473   7.939
 4031WAT     H212336   8.735   4.393   8.069
 4032WAT      O12337   0.417   3.239   5.134
 4032WAT     H112338   0.476   3.161   5.152
 4032WAT     H212339   0.418   3.300   5.213
 4033WAT      O12340   5.215   5.013   8.907
 4033WAT     H112341   5.236   5.079   8.978
 4033WAT     H212342   5.184   5.061   8.825
 4034WAT      O12343   9.509   5.105   6.208
 4034WAT     H112344   9.569   5.043   6.158
 4034WAT     H212345   9.563   5.170   6.261
 4035WAT      O12346   6.421   7.943   4.562
 4035WAT     H112347   6.465   7.863   4.602
 4035WAT     H212348   6.448   7.953   4.466
 4036WAT      O12349   4.037   9.616   5.189
 4036WAT     H112350   3.993   9.628   5.100
 4036WAT     H212351   3.998   9.537   5.236
 4037WAT      O12352   7.116   7.066   1.414
 4037WAT     H112353   7.140   6.988   1.356
 4037WAT     H212354   7.199   7.115   1.440
 4038WAT      O12355   1.951   3.921   6.280
 4038WAT     H112356   1.883   3.849   6.266
 4038WAT     H212357   1.906   4.008   6.299
 4039WAT      O12358   5.970   9.084   5.543
 4039WAT     H112359   6.038   9.012   5.527
 4039WAT     H212360   5.926   9.109   5.456
 4040WAT      O12361   3.337   4.506   8.287
 4040WAT     H112362   3.305   4.597   8.261
 4040WAT     H212363   3.436   4.500   8.275
 4041WAT      O12364   9.164   8.777   3.926
 4041WAT     H112365   9.137   8.684   3.899
 4041WAT     H212366   9.088   8.840   3.911
 4042WAT      O12367   6.665   3.279   5.604
 4042WAT     H112368   6.586   3.298   5.662
 4042WAT     H212369   6.647   3.198   5.548
 4043WAT      O12370   8.288   7.714   8.048
 4043WAT     H112371   8.304   7.751   8.139
 4043WAT     H212372   8.360   7.648   8.025
 4044WAT      O12373   4.823   2.313   3.687
 4044WAT     H112374   4.828   2.412   3.695
 4044WAT     H212375   4.762   2.289   3.611
 4045WAT      O12376   0.447   4.454   9.390
 4045WAT     H112377   0.410   4.494   9.474
 4045WAT     H212378   0.423   4.358   9.385
 4046WAT      O12379   5.023   0.303   4.921
 4046WAT     H112380   5.079   0.289   4.839
 4046WAT     H212381   4.978   0.392   4.916
 4047WAT      O12382   4.640   7.697   6.107
 4047WAT     H112383   4.590   7.764   6.161
 4047WAT     H212384   4.579   7.656   6.039
 4048WAT      O12385   0.324   3.347   9.076
 4048WAT     H112386   0.409   3.295   9.068
 4048WAT     H212387   0.346   3.444   9.088
 4049WAT      O12388   6.993   2.180   7.576
 4049WAT     H112389   7.082   2.211   7.610
 4049WAT     H212390   6.945   2.131   7.649
 4050WAT      O12391   9.344   6.167   3.081
 4050WAT     H112392   9.357   6.145   2.984
 4050WAT     H212393   9.428   6.206   3.119
 4051WAT      O12394   0.738   8.255   5.989
 4051WAT     H112395   0.640   8.238   6.000
 4051WAT     H212396   0.776   8.283   6.077
 4052WAT      O12397   0.038   3.520   6.555
 4052WAT     H112398   0.125   3.475   6.572
 4052WAT     H212399   0.053   3.607   6.509
 4053WAT      O12400   7.314   3.537   0.387
 4053WAT     H112401   7.336   3.449   0.346
 4053WAT     H212402   7.320   3.609   0.318
 4054WAT      O12403   9.022   1.750   3.160
 4054WAT     H112404   9.010   1.769   3.062
 4054WAT     H212405   8.936   1.765   3.207
 4055WAT      O12406   2.276   2.638   4.825
 4055WAT     H112407   2.322   2.653   4.913
 4055WAT     H212408   2.237   2.546   4.823
 4056WAT      O12409   5.562   0.126   5.138
 4056WAT     H112410   5.627   0.053   5.119
 4056WAT     H212411   5.610   0.203   5.181
 4057WAT      O12412   2.592   4.590   8.316
 4057WAT     H112413   2.688   4.567   8.304
 4057WAT     H212414   2.582   4.660   8.387
 4058WAT      O12415   9.757   7.626   8.398
 4058WAT     H112416   9.683   7.618   8.331
 4058WAT     H212417   9.799   7.536   8.412
 4059WAT      O12418   5.710   7.289   8.347
 4059WAT     H112419   5.615   7.316   8.328
 4059WAT     H212420   5.711   7.202   8.395
 4060WAT      O12421   3.957   2.756   7.106
 4060WAT     H112422   3.928   2.673   7.153
 4060WAT     H212423   3.877   2.811   7.082
 4061WAT      O12424   5.873   3.343   3.931
 4061WAT     H112425   5.972   3.348   3.921
 4061WAT     H212426   5.843   3.400   4.007
 4062WAT      O12427   7.812   8.998   7.450
 4062WAT     H112428   7.781   8.906   7.475
 4062WAT     H212429   7.846   9.045   7.532
 4063WAT      O12430   0.502   3.640   6.658
 4063WAT     H112431   0.570   3.670   6.724
 4063WAT     H212432   0.452   3.561   6.695
 4064WAT      O12433   0.950   4.281   6.135
 4064WAT     H112434   1.044   4.277   6.170
 4064WAT     H212435   0.886   4.277   6.211
 4065WAT      O12436   7.282   8.232   2.718
 4065WAT     H112437   7.215   8.302   2.694
 4065WAT     H212438   7.372   8.275   2.731
 4066WAT      O12439   0.627   3.322   3.971
 4066WAT     H112440   0.570   3.389   4.019
 4066WAT     H212441   0.721   3.355   3.966
 4067WAT      O12442   8.075   8.573   5.233
 4067WAT     H112443   8.054   8.560   5.136
 4067WAT     H212444   7.991   8.570   5.287
 4068WAT      O12445   9.693   0.739   4.651
 4068WAT     H112446   9.645   0.807   4.596
 4068WAT     H212447   9.778   0.713   4.606
 4069WAT      O12448   5.758   0.021   2.468
 4069WAT     H112449   5.723   0.091   2.405
 4069WAT     H212450   5.750   0.054   2.562
 4070WAT      O12451   4.268   8.968   9.800
 4070WAT     H112452   4.337   8.948   9.870
 4070WAT     H212453   4.311   9.010   9.720
 4071WAT      O12454   2.225   7.692   8.641
 4071WAT     H112455   2.129   7.678   8.664
 4071WAT     H212456   2.281   7.678   8.722
 4072WAT      O12457   7.834   3.442   1.313
 4072WAT     H112458   7.912   3.387   1.285
 4072WAT     H212459   7.795   3.489   1.234
 4073WAT      O12460   0.887   2.405   7.021
 4073WAT     H112461   0.923   2.333   6.961
 4073WAT     H212462   0.787   2.400   7.022
 4074WAT      O12463   8.706   2.159   3.485
 4074WAT     H112464   8.697   2.194   3.579
 4074WAT     H212465   8.769   2.082   3.484
 4075WAT      O12466   0.240   9.215   1.603
 4075WAT     H112467   0.228   9.303   1.650
 4075WAT     H212468   0.188   9.217   1.518
 4076WAT      O12469   7.115   9.692   4.709
 4076WAT     H112470   7.066   9.699   4.622
 4076WAT     H212471   7.207   9.657   4.694
 4077WAT      O12472   8.363   8.081   6.426
 4077WAT     H112473   8.429   8.052   6.496
 4077WAT     H212474   8.271   8.055   6.454
 4078WAT      O12475   1.658   4.440   7.894
 4078WAT     H112476   1.622   4.427   7.987
 4078WAT     H212477   1.747   4.486   7.899
 4079WAT      O12478   5.809   4.947   9.255
 4079WAT     H112479   5.714   4.978   9.262
 4079WAT     H212480   5.862   4.986   9.330
 4080WAT      O12481   4.698   9.527   6.934
 4080WAT     H112482   4.719   9.489   7.024
 4080WAT     H212483   4.599   9.544   6.928
 4081WAT      O12484   5.293   6.621   8.385
 4081WAT     H112485   5.368   6.651   8.443
 4081WAT     H212486   5.243   6.700   8.351
 4082WAT      O12487   4.043   7.271   9.466
 4082WAT     H112488   4.030   7.187   9.412
 4082WAT     H212489   4.115   7.256   9.534
 4083WAT      O12490   8.863   2.778   7.069
 4083WAT     H112491   8.861   2.680   7.089
 4083WAT     H212492   8.956   2.805   7.043
 4084WAT      O12493   7.850   1.997   0.034
 4084WAT     H112494   7.783   1.959  -0.031
 4084WAT     H212495   7.841   1.950   0.122
 4085WAT      O12496   3.756   0.543   1.592
 4085WAT     H112497   3.787   0.593   1.672
 4085WAT     H212498   3.715   0.607   1.526
 4086WAT      O12499   8.989   2.447   3.673
 4086WAT     H112500   9.011   2.401   3.587
 4086WAT     H212501   9.064   2.508   3.698
 4087WAT      O12502   2.835   3.191   9.744
 4087WAT     H112503   2.903   3.127   9.708
 4087WAT     H212504   2.779   3.226   9.669
 4088WAT      O12505   6.720   7.725   8.507
 4088WAT     H112506   6.795   7.737   8.441
 4088WAT     H212507   6.755   7.679   8.589
 4089WAT      O12508   5.710   3.231   1.161
 4089WAT     H112509   5.801   3.203   1.192
 4089WAT     H212510   5.642   3.205   1.229
 4090WAT      O12511   7.239   5.707   3.327
 4090WAT     H112512   7.251   5.650   3.408
 4090WAT     H212513   7.294   5.790   3.336
 4091WAT      O12514   8.423   1.897   8.762
 4091WAT     H112515   8.436   1.850   8.675
 4091WAT     H212516   8.434   1.832   8.838
 4092WAT      O12517   9.553   6.117   4.913
 4092WAT     H112518   9.607   6.179   4.969
 4092WAT     H212519   9.539   6.157   4.822
 4093WAT      O12520   4.578   3.231   6.716
 4093WAT     H112521   4.634   3.152   6.739
 4093WAT     H212522   4.566   3.237   6.617
 4094WAT      O12523   1.762   7.428   0.391
 4094WAT     H112524   1.685   7.482   0.426
 4094WAT     H212525   1.839   7.435   0.454
 4095WAT      O12526   5.348   5.080   5.806
 4095WAT     H112527   5.402   4.996   5.816
 4095WAT     H212528   5.337   5.101   5.709
 4096WAT      O12529   4.963   2.720   1.207
 4096WAT     H112530   4.974   2.692   1.302
 4096WAT     H212531   4.878   2.682   1.170
 4097WAT      O12532   5.577   8.578   1.991
 4097WAT     H112533   5.617   8.535   2.072
 4097WAT     H212534   5.594   8.521   1.911
 4098WAT      O12535   3.466   7.179   3.462
 4098WAT     H112536   3.486   7.130   3.547
 4098WAT     H212537   3.490   7.276   3.474
 4099WAT      O12538   5.009   7.331   3.255
 4099WAT     H112539   4.912   7.307   3.264
 4099WAT     H212540   5.029   7.352   3.160
 4100WAT      O12541   1.413   8.155   9.106
 4100WAT     H112542   1.503   8.147   9.065
 4100WAT     H212543   1.371   8.242   9.081
 4101WAT      O12544   6.507   4.754   1.228
 4101WAT     H112545   6.476   4.848   1.219
 4101WAT     H212546   6.567   4.731   1.151
 4102WAT      O12547   8.773   4.611   7.850
 4102WAT     H112548   8.750   4.547   7.776
 4102WAT     H212549   8.793   4.701   7.811
 4103WAT      O12550   7.170   9.438   4.793
 4103WAT     H112551   7.093   9.500   4.806
 4103WAT     H212552   7.166   9.399   4.701
 4104WAT      O12553   0.520   3.911   5.263
 4104WAT     H112554   0.511   3.937   5.167
 4104WAT     H212555   0.609   3.942   5.297
 4105WAT      O12556   5.227   8.013   8.806
 4105WAT     H112557   5.252   7.923   8.770
 4105WAT     H212558   5.144   8.003   8.862
 4106WAT      O12559   4.164   2.482   4.897
 4106WAT     H112560   4.228   2.431   4.954
 4106WAT     H212561   4.201   2.489   4.804
 4107WAT      O12562   4.618   3.731   2.846
 4107WAT     H112563   4.570   3.798   2.904
 4107WAT     H212564   4.640   3.650   2.900
 4108WAT      O12565   0.440   7.777   2.634
 4108WAT     H112566   0.391   7.845   2.580
 4108WAT     H212567   0.447   7.809   2.729
 4109WAT      O12568   4.733   6.954   7.374
 4109WAT     H112569   4.702   6.932   7.467
 4109WAT     H212570   4.830   6.979   7.376
 4110WAT      O12571   3.709   4.933   1.541
 4110WAT     H112572   3.611   4.942   1.529
 4110WAT     H212573   3.752   4.916   1.452
 4111WAT      O12574   0.396   6.627   6.562
 4111WAT     H112575   0.458   6.700   6.590
 4111WAT     H212576   0.332   6.608   6.636
 4112WAT      O12577   7.233   2.668   0.262
 4112WAT     H112578   7.331   2.665   0.282
 4112WAT     H212579   7.191   2.743   0.313
 4113WAT      O12580   8.717   0.455   2.095
 4113WAT     H112581   8.620   0.476   2.101
 4113WAT     H212582   8.771   0.537   2.114
 4114WAT      O12583   3.583   9.148   6.807
 4114WAT     H112584   3.557   9.062   6.763
 4114WAT     H212585   3.662   9.133   6.866
 4115WAT      O12586   9.101   8.047   0.299
 4115WAT     H112587   9.027   7.988   0.329
 4115WAT     H212588   9.152   8.003   0.225
 4116WAT      O12589   7.897   6.758   7.542
 4116WAT     H112590   7.903   6.718   7.450
 4116WAT     H212591   7.824   6.713   7.593
 4117WAT      O12592   4.858   6.706   5.006
 4117WAT     H112593   4.847   6.729   4.910
 4117WAT     H212594   4.892   6.612   5.014
 4118WAT      O12595   9.764   5.837   9.580
 4118WAT     H112596   9.738   5.755   9.629
 4118WAT     H212597   9.809   5.901   9.643
 4119WAT      O12598   2.200   5.234   4.402
 4119WAT     H112599   2.119   5.282   4.369
 4119WAT     H212600   2.192   5.221   4.501
 4120WAT      O12601   4.808   2.406   4.159
 4120WAT     H112602   4.867   2.398   4.079
 4120WAT     H212603   4.779   2.315   4.188
 4121WAT      O12604   8.063   2.438   0.757
 4121WAT     H112605   8.030   2.353   0.714
 4121WAT     H212606   8.151   2.464   0.718
 4122WAT      O12607   8.991   7.525   4.383
 4122WAT     H112608   9.041   7.439   4.391
 4122WAT     H212609   8.894   7.510   4.403
 4123WAT      O12610   5.539   4.385   0.597
 4123WAT     H112611   5.592   4.349   0.520
 4123WAT     H212612   5.524   4.483   0.584
 4124WAT      O12613   6.081   3.956   3.750
 4124WAT     H112614   6.018   4.030   3.772
 4124WAT     H212615   6.175   3.987   3.761
 4125WAT      O12616   9.763   3.044   3.757
 4125WAT     H112617   9.755   3.119   3.823
 4125WAT     H212618   9.740   2.958   3.802
 4126WAT      O12619   4.958   7.830   6.776
 4126WAT     H112620   4.916   7.889   6.846
 4126WAT     H212621   4.989   7.886   6.700
 4127WAT      O12622   3.099   0.423   5.138
 4127WAT     H112623   3.022   0.461   5.190
 4127WAT     H212624   3.163   0.379   5.201
 4128WAT      O12625   9.706   2.944   7.500
 4128WAT     H112626   9.726   3.040   7.482
 4128WAT     H212627   9.791   2.891   7.499
 4129WAT      O12628   7.819   7.988   4.928
 4129WAT     H112629   7.918   8.004   4.919
 4129WAT     H212630   7.801   7.890   4.917
 4130WAT      O12631   2.105   2.356   4.985
 4130WAT     H112632   2.125   2.368   4.888
 4130WAT     H212633   2.051   2.272   4.998
 4131WAT      O12634   5.343   1.381   8.034
 4131WAT     H112635   5.244   1.379   8.020
 4131WAT     H212636   5.383   1.295   8.003
 4132WAT      O12637   5.739   9.670   3.583
 4132WAT     H112638   5.706   9.681   3.676
 4132WAT     H212639   5.833   9.636   3.585
 4133WAT      O12640   7.387   0.667   7.540
 4133WAT     H112641   7.460   0.661   7.472
 4133WAT     H212642   7.340   0.755   7.530
 4134WAT      O12643   2.793   1.797   2.225
 4134WAT     H112644   2.735   1.776   2.304
 4134WAT     H212645   2.761   1.881   2.182
 4135WAT      O12646   2.334   0.283   0.271
 4135WAT     H112647   2.410   0.345   0.289
 4135WAT     H212648   2.370   0.197   0.233
 4136WAT      O12649   6.856   1.007   2.558
 4136WAT     H112650   6.883   0.961   2.474
 4136WAT     H212651   6.909   1.091   2.569
 4137WAT      O12652   4.055   7.364   9.164
 4137WAT     H112653   4.147   7.402   9.151
 4137WAT     H212654   4.019   7.392   9.252
 4138WAT      O12655   6.875   5.852   6.649
 4138WAT     H112656   6.878   5.767   6.596
 4138WAT     H212657   6.953   5.855   6.711
 4139WAT      O12658   7.437   6.674   9.128
 4139WAT     H112659   7.412   6.767   9.154
 4139WAT     H212660   7.537   6.667   9.122
 4140WAT      O12661   8.160   9.406   6.964
 4140WAT     H112662   8.079   9.371   6.915
 4140WAT     H212663   8.209   9.469   6.904
 4141WAT      O12664   0.316   1.063   2.365
 4141WAT     H112665   0.310   1.020   2.455
 4141WAT     H212666   0.301   0.995   2.293
 4142WAT      O12667   2.754   6.951   7.396
 4142WAT     H112668   2.728   6.975   7.303
 4142WAT     H212669   2.818   6.875   7.394
 4143WAT      O12670   7.509   7.406   3.442
 4143WAT     H112671   7.489   7.358   3.528
 4143WAT     H212672   7.457   7.364   3.368
 4144WAT      O12673   6.817   6.264   6.680
 4144WAT     H112674   6.727   6.235   6.713
 4144WAT     H212675   6.841   6.211   6.598
 4145WAT      O12676   9.708   5.878   0.540
 4145WAT     H112677   9.646   5.875   0.461
 4145WAT     H212678   9.768   5.798   0.539
 4146WAT      O12679   7.397   7.265   3.652
 4146WAT     H112680   7.446   7.231   3.732
 4146WAT     H212681   7.312   7.213   3.640
 4147WAT      O12682   6.083   2.466   5.731
 4147WAT     H112683   6.073   2.501   5.638
 4147WAT     H212684   6.020   2.513   5.792
 4148WAT      O12685   5.862   5.875   5.454
 4148WAT     H112686   5.915   5.929   5.388
 4148WAT     H212687   5.863   5.779   5.427
 4149WAT      O12688   7.828   6.769   9.796
 4149WAT     H112689   7.848   6.773   9.894
 4149WAT     H212690   7.743   6.817   9.777
 4150WAT      O12691   1.818   0.476   1.713
 4150WAT     H112692   1.835   0.548   1.781
 4150WAT     H212693   1.890   0.477   1.644
 4151WAT      O12694   0.836   8.197   0.424
 4151WAT     H112695   0.869   8.259   0.353
 4151WAT     H212696   0.908   8.132   0.448
 4152WAT      O12697   2.038   9.156   3.128
 4152WAT     H112698   1.975   9.212   3.181
 4152WAT     H212699   2.098   9.215   3.073
 4153WAT      O12700   9.265   5.619   7.075
 4153WAT     H112701   9.239   5.661   7.162
 4153WAT     H212702   9.338   5.553   7.091
 4154WAT      O12703   0.250   8.678   3.645
 4154WAT     H112704   0.269   8.580   3.643
 4154WAT     H212705   0.223   8.706   3.737
 4155WAT      O12706   7.020   8.828   3.839
 4155WAT     H112707   7.077   8.752   3.871
 4155WAT     H212708   6.992   8.884   3.917
 4156WAT      O12709   2.349   6.053   3.678
 4156WAT     H112710   2.364   5.990   3.754
 4156WAT     H212711   2.399   6.138   3.695
 4157WAT      O12712   2.026   1.819   5.637
 4157WAT     H112713   2.090   1.860   5.572
 4157WAT     H212714   1.952   1.773   5.587
 4158WAT      O12715   2.199   5.201   3.778
 4158WAT     H112716   2.133   5.126   3.788
 4158WAT     H212717   2.155   5.287   3.802
 4159WAT      O12718   5.229   7.653   4.321
 4159WAT     H112719   5.202   7.605   4.404
 4159WAT     H212720   5.326   7.678   4.326
 4160WAT      O12721   1.635   5.609   4.534
 4160WAT     H112722   1.538   5.620   4.557
 4160WAT     H212723   1.687   5.684   4.576
 4161WAT      O12724   1.161   6.093   9.775
 4161WAT     H112725   1.255   6.064   9.794
 4161WAT     H212726   1.162   6.173   9.715
 4162WAT      O12727   3.082   8.149   4.936
 4162WAT     H112728   3.156   8.215   4.947
 4162WAT     H212729   3.058   8.109   5.024
 4163WAT      O12730   9.778   3.783   6.291
 4163WAT     H112731   9.714   3.721   6.337
 4163WAT     H212732   9.871   3.765   6.324
 4164WAT      O12733   2.504   2.695   5.900
 4164WAT     H112734   2.591   2.738   5.877
 4164WAT     H212735   2.516   2.634   5.978
 4165WAT      O12736   4.501   5.564   3.589
 4165WAT     H112737   4.562   5.525   3.520
 4165WAT     H212738   4.424   5.609   3.544
 4166WAT      O12739   9.649   4.426   4.891
 4166WAT     H112740   9.608   4.457   4.806
 4166WAT     H212741   9.730   4.482   4.911
 4167WAT      O12742   7.486   2.613   9.228
 4167WAT     H112743   7.406   2.668   9.251
 4167WAT     H212744   7.557   2.672   9.188
 4168WAT      O12745   5.981   7.280   3.422
 4168WAT     H112746   6.027   7.315   3.503
 4168WAT     H212747   5.926   7.353   3.380
 4169WAT      O12748   9.167   2.242   4.085
 4169WAT     H112749   9.228   2.168   4.116
 4169WAT     H212750   9.219   2.327   4.080
 4170WAT      O12751   7.087   5.332   3.808
 4170WAT     H112752   7.094   5.360   3.712
 4170WAT     H212753   7.176   5.346   3.853
 4171WAT      O12754   2.778   6.157   1.797
 4171WAT     H112755   2.748   6.064   1.818
 4171WAT     H212756   2.752   6.219   1.871
 4172WAT      O12757   5.008   7.371   1.095
 4172WAT     H112758   4.922   7.418   1.116
 4172WAT     H212759   5.002   7.332   1.003
 4173WAT      O12760   2.230   2.786   5.343
 4173WAT     H112761   2.176   2.870   5.336
 4173WAT     H212762   2.202   2.735   5.425
 4174WAT      O12763   4.581   1.665   4.705
 4174WAT     H112764   4.560   1.569   4.689
 4174WAT     H212765   4.496   1.718   4.701
 4175WAT      O12766   1.703   5.327   9.347
 4175WAT     H112767   1.772   5.257   9.333
 4175WAT     H212768   1.620   5.303   9.296
 4176WAT      O12769   8.633   5.427   0.081
 4176WAT     H112770   8.613   5.383  -0.006
 4176WAT     H212771   8.699   5.501   0.067
 4177WAT      O12772   7.616   9.665   8.033
 4177WAT     H112773   7.655   9.614   8.110
 4177WAT     H212774   7.684   9.730   7.998
 4178WAT      O12775   4.724   9.524   4.547
 4178WAT     H112776   4.719   9.581   4.465
 4178WAT     H212777   4.772   9.573   4.619
 4179WAT      O12778   1.516   8.328   3.378
 4179WAT     H112779   1.477   8.420   3.389
 4179WAT     H212780   1.587   8.331   3.308
 4180WAT      O12781   5.334   9.127   8.703
 4180WAT     H112782   5.383   9.067   8.640
 4180WAT     H212783   5.388   9.209   8.720
 4181WAT      O12784   5.720   6.055   6.678
 4181WAT     H112785   5.711   5.958   6.658
 4181WAT     H212786   5.711   6.070   6.777
 4182WAT      O12787   4.682   2.888   6.500
 4182WAT     H112788   4.732   2.819   6.448
 4182WAT     H212789   4.609   2.843   6.552
 4183WAT      O12790   5.670   5.504   9.274
 4183WAT     H112791   5.727   5.424   9.288
 4183WAT     H212792   5.714   5.584   9.314
 4184WAT      O12793   8.831   2.539   1.475
 4184WAT     H112794   8.818   2.518   1.572
 4184WAT     H212795   8.909   2.487   1.440
 4185WAT      O12796   4.342   8.960   8.383
 4185WAT     H112797   4.289   8.884   8.423
 4185WAT     H212798   4.425   8.924   8.341
 4186WAT      O12799   3.365   7.938   3.384
 4186WAT     H112800   3.365   7.838   3.386
 4186WAT     H212801   3.275   7.971   3.414
 4187WAT      O12802   3.100   7.539   6.962
 4187WAT     H112803   3.048   7.502   7.040
 4187WAT     H212804   3.170   7.474   6.935
 4188WAT      O12805   9.777   1.974   7.326
 4188WAT     H112806   9.703   2.033   7.292
 4188WAT     H212807   9.800   2.001   7.420
 4189WAT      O12808   5.108   8.122   7.467
 4189WAT     H112809   5.009   8.115   7.455
 4189WAT     H212810   5.143   8.040   7.511
 4190WAT      O12811   5.426   5.159   9.100
 4190WAT     H112812   5.472   5.100   9.166
 4190WAT     H212813   5.494   5.201   9.039
 4191WAT      O12814   6.824   5.618   6.454
 4191WAT     H112815   6.853   5.696   6.398
 4191WAT     H212816   6.861   5.533   6.414
 4192WAT      O12817   3.767   7.816   1.311
 4192WAT     H112818   3.828   7.789   1.237
 4192WAT     H212819   3.820   7.858   1.385
 4193WAT      O12820   8.900   0.118   4.867
 4193WAT     H112821   8.984   0.140   4.916
 4193WAT     H212822   8.909   0.147   4.772
 4194WAT      O12823   4.736   2.487   2.481
 4194WAT     H112824   4.730   2.388   2.469
 4194WAT     H212825   4.759   2.508   2.577
 4195WAT      O12826   3.883   7.764   7.476
 4195WAT     H112827   3.918   7.738   7.566
 4195WAT     H212828   3.883   7.864   7.468
 4196WAT      O12829   0.544   0.647   7.335
 4196WAT     H112830   0.604   0.576   7.371
 4196WAT     H212831   0.505   0.617   7.248
 4197WAT      O12832   8.407   9.577   3.726
 4197WAT     H112833   8.326   9.537   3.768
 4197WAT     H212834   8.387   9.601   3.631
 4198WAT      O12835   3.663   0.826   8.660
 4198WAT     H112836   3.727   0.894   8.695
 4198WAT     H212837   3.579   0.828   8.714
 4199WAT      O12838   5.583   2.962   8.210
 4199WAT     H112839   5.659   2.897   8.206
 4199WAT     H212840   5.580   3.014   8.125
 4200WAT      O12841   9.308   9.781   8.709
 4200WAT     H112842   9.368   9.822   8.778
 4200WAT     H212843   9.219   9.827   8.712
 4201WAT      O12844   9.274   9.766   2.589
 4201WAT     H112845   9.214   9.779   2.510
 4201WAT     H212846   9.231   9.702   2.653
 4202WAT      O12847   8.235   6.535   4.183
 4202WAT     H112848   8.266   6.611   4.125
 4202WAT     H212849   8.196   6.464   4.125
 4203WAT      O12850   6.146   9.474   1.062
 4203WAT     H112851   6.089   9.432   0.991
 4203WAT     H212852   6.241   9.476   1.031
 4204WAT      O12853   9.710   5.776   0.038
 4204WAT     H112854   9.697   5.787   0.136
 4204WAT     H212855   9.635   5.721  -0.000
 4205WAT      O12856   6.890   0.649   5.121
 4205WAT     H112857   6.987   0.626   5.117
 4205WAT     H212858   6.872   0.728   5.063
 4206WAT      O12859   7.743   0.589   0.656
 4206WAT     H112860   7.719   0.686   0.656
 4206WAT     H212861   7.780   0.564   0.745
 4207WAT      O12862   9.130   9.064   7.115
 4207WAT     H112863   9.059   9.103   7.174
 4207WAT     H212864   9.163   9.135   7.053
 4208WAT      O12865   9.873   5.803   8.437
 4208WAT     H112866   9.901   5.890   8.398
 4208WAT     H212867   9.866   5.734   8.365
 4209WAT      O12868   5.091   6.099   9.420
 4209WAT     H112869   5.145   6.028   9.467
 4209WAT     H212870   5.152   6.173   9.391
 4210WAT      O12871   6.559   1.942   8.178
 4210WAT     H112872   6.552   1.849   8.141
 4210WAT     H212873   6.620   1.996   8.121
 4211WAT      O12874   7.188   7.573   6.435
 4211WAT     H112875   7.262   7.628   6.396
 4211WAT     H212876   7.226   7.510   6.503
 4212WAT      O12877   9.826   0.678   6.920
 4212WAT     H112878   9.888   0.604   6.895
 4212WAT     H212879   9.856   0.720   7.005
 4213WAT      O12880   3.749   6.762   0.542
 4213WAT     H112881   3.831   6.818   0.532
 4213WAT     H212882   3.741   6.730   0.636
 4214WAT      O12883   6.125   3.005   9.739
 4214WAT     H112884   6.087   3.073   9.803
 4214WAT     H212885   6.141   3.048   9.651
 4215WAT      O12886   6.920   7.314   5.510
 4215WAT     H112887   6.913   7.258   5.428
 4215WAT     H212888   6.894   7.408   5.489
 4216WAT      O12889   1.525   5.522   7.184
 4216WAT     H112890   1.465   5.593   7.149
 4216WAT     H212891   1.609   5.519   7.129
 4217WAT      O12892   2.348   0.610   1.081
 4217WAT     H112893   2.307   0.680   1.023
 4217WAT     H212894   2.297   0.525   1.072
 4218WAT      O12895   4.387   1.735   5.278
 4218WAT     H112896   4.413   1.752   5.373
 4218WAT     H212897   4.469   1.727   5.221
 4219WAT      O12898   6.156   7.666   9.077
 4219WAT     H112899   6.171   7.638   9.172
 4219WAT     H212900   6.242   7.660   9.027
 4220WAT      O12901   7.727   4.777   0.141
 4220WAT     H112902   7.779   4.726   0.073
 4220WAT     H212903   7.663   4.716   0.187
 4221WAT      O12904   2.499   5.299   7.773
 4221WAT     H112905   2.513   5.210   7.729
 4221WAT     H212906   2.490   5.369   7.703
 4222WAT      O12907   7.661   9.375   7.697
 4222WAT     H112908   7.698   9.426   7.620
 4222WAT     H212909   7.725   9.377   7.774
 4223WAT      O12910   8.549   4.710   4.731
 4223WAT     H112911   8.641   4.723   4.693
 4223WAT     H212912   8.487   4.680   4.659
 4224WAT      O12913   0.731   8.414   3.477
 4224WAT     H112914   0.733   8.424   3.576
 4224WAT     H212915   0.702   8.500   3.435
 4225WAT      O12916   1.613   7.334   0.739
 4225WAT     H112917   1.568   7.418   0.769
 4225WAT     H212918   1.582   7.311   0.647
 4226WAT      O12919   8.984   2.621   1.907
 4226WAT     H112920   8.933   2.555   1.852
 4226WAT     H212921   9.046   2.672   1.848
 4227WAT      O12922   6.594   9.656   7.125
 4227WAT     H112923   6.639   9.683   7.210
 4227WAT     H212924   6.617   9.721   7.052
 4228WAT      O12925   3.604   5.780   9.481
 4228WAT     H112926   3.678   5.775   9.414
 4228WAT     H212927   3.531   5.716   9.454
 4229WAT      O12928   6.909   5.532   3.086
 4229WAT     H112929   6.963   5.609   3.119
 4229WAT     H212930   6.909   5.459   3.155
 4230WAT      O12931   0.632   7.865   9.856
 4230WAT     H112932   0.619   7.963   9.872
 4230WAT     H212933   0.577   7.813   9.921
 4231WAT      O12934   7.054   4.468   0.916
 4231WAT     H112935   7.121   4.415   0.969
 4231WAT     H212936   7.094   4.557   0.894
 4232WAT      O12937   1.268   8.214   7.580
 4232WAT     H112938   1.343   8.231   7.516
 4232WAT     H212939   1.276   8.275   7.658
 4233WAT      O12940   5.767   5.637   1.123
 4233WAT     H112941   5.773   5.565   1.192
 4233WAT     H212942   5.729   5.720   1.163
 4234WAT      O12943   8.760   0.895   1.507
 4234WAT     H112944   8.673   0.944   1.496
 4234WAT     H212945   8.835   0.954   1.478
 4235WAT      O12946   3.052   6.790   3.566
 4235WAT     H112947   2.998   6.872   3.545
 4235WAT     H212948   3.116   6.772   3.491
 4236WAT      O12949   2.598   2.247   9.576
 4236WAT     H112950   2.540   2.323   9.548
 4236WAT     H212951   2.694   2.273   9.564
 4237WAT      O12952   3.599   2.201   3.797
 4237WAT     H112953   3.557   2.241   3.716
 4237WAT     H212954   3.543   2.125   3.830
 4238WAT      O12955   2.766   2.268   3.897
 4238WAT     H112956   2.851   2.306   3.933
 4238WAT     H212957   2.787   2.194   3.833
 4239WAT      O12958   1.594   4.883   8.419
 4239WAT     H112959   1.498   4.854   8.420
 4239WAT     H212960   1.600   4.980   8.398
 4240WAT      O12961   9.629   3.479   0.694
 4240WAT     H112962   9.561   3.518   0.633
 4240WAT     H212963   9.597   3.391   0.729
 4241WAT      O12964   2.465   2.826   0.606
 4241WAT     H112965   2.440   2.849   0.700
 4241WAT     H212966   2.551   2.872   0.582
 4242WAT      O12967   3.066   6.725   4.710
 4242WAT     H112968   3.009   6.644   4.727
 4242WAT     H212969   3.050   6.756   4.616
 4243WAT      O12970   8.446   6.294   6.445
 4243WAT     H112971   8.448   6.199   6.474
 4243WAT     H212972   8.351   6.320   6.424
 4244WAT      O12973   8.745   4.955   0.917
 4244WAT     H112974   8.667   4.949   0.855
 4244WAT     H212975   8.766   4.863   0.952
 4245WAT      O12976   3.234   1.480   5.549
 4245WAT     H112977   3.203   1.397   5.502
 4245WAT     H212978   3.155   1.529   5.586
 4246WAT      O12979   5.311   2.226   4.745
 4246WAT     H112980   5.348   2.294   4.809
 4246WAT     H212981   5.378   2.209   4.673
 4247WAT      O12982   5.310   7.064   4.879
 4247WAT     H112983   5.279   6.975   4.912
 4247WAT     H212984   5.334   7.057   4.782
 4248WAT      O12985   4.674   5.750   1.552
 4248WAT     H112986   4.654   5.829   1.495
 4248WAT     H212987   4.702   5.780   1.643
 4249WAT      O12988   6.076   3.287   7.086
 4249WAT     H112989   5.994   3.233   7.067
 4249WAT     H212990   6.082   3.304   7.184
 4250WAT      O12991   6.246   6.241   5.637
 4250WAT     H112992   6.300   6.229   5.554
 4250WAT     H212993   6.297   6.298   5.702
 4251WAT      O12994   5.417   9.057   3.982
 4251WAT     H112995   5.486   8.997   4.023
 4251WAT     H212996   5.411   9.141   4.036
 4252WAT      O12997   4.924   4.095   8.564
 4252WAT     H112998   4.883   4.128   8.649
 4252WAT     H212999   4.947   3.999   8.574
 4253WAT      O13000   5.454   7.444   4.641
 4253WAT     H113001   5.386   7.508   4.677
 4253WAT     H213002   5.535   7.495   4.611
 4254WAT      O13003   4.378   5.568   0.991
 4254WAT     H113004   4.341   5.651   1.032
 4254WAT     H213005   4.328   5.488   1.025
 4255WAT      O13006   5.914   3.014   6.792
 4255WAT     H113007   5.858   3.034   6.712
 4255WAT     H213008   6.004   3.055   6.781
 4256WAT      O13009   4.885   9.129   3.333
 4256WAT     H113010   4.858   9.124   3.237
 4256WAT     H213011   4.878   9.224   3.365
 4257WAT      O13012   3.963   1.405   2.243
 4257WAT     H113013   4.059   1.381   2.232
 4257WAT     H213014   3.931   1.452   2.161
 4258WAT      O13015   5.520   4.339   8.391
 4258WAT     H113016   5.603   4.284   8.403
 4258WAT     H213017   5.443   4.293   8.435
 4259WAT      O13018   6.445   3.342   5.164
 4259WAT     H113019   6.363   3.294   5.196
 4259WAT     H213020   6.419   3.418   5.106
 4260WAT      O13021   0.085   5.921   7.798
 4260WAT     H113022   0.022   5.964   7.863
 4260WAT     H213023   0.167   5.891   7.847
 4261WAT      O13024   4.852   1.337   6.616
 4261WAT     H113025   4.923   1.278   6.656
 4261WAT     H213026   4.766   1.323   6.665
 4262WAT      O13027   3.027   4.559   0.891
 4262WAT     H113028   3.032   4.531   0.987
 4262WAT     H213029   3.026   4.477   0.833
 4263WAT      O13030   8.080   2.547   1.011
 4263WAT     H113031   8.050   2.503   0.926
 4263WAT     H213032   8.129   2.480   1.067
 4264WAT      O13033   4.652   3.196   7.721
 4264WAT     H113034   4.675   3.210   7.625
 4264WAT     H213035   4.555   3.169   7.729
 4265WAT      O13036   2.592   1.828   2.855
 4265WAT     H113037   2.507   1.811   2.806
 4265WAT     H213038   2.647   1.744   2.858
 4266WAT      O13039   7.855   6.641   6.639
 4266WAT     H113040   7.824   6.668   6.730
 4266WAT     H213041   7.781   6.594   6.591
 4267WAT      O13042   3.659   7.938   6.912
 4267WAT     H113043   3.574   7.982   6.936
 4267WAT     H213044   3.683   7.870   6.982
 4268WAT      O13045   7.890   8.531   7.382
 4268WAT     H113046   7.855   8.438   7.389
 4268WAT     H213047   7.985   8.529   7.349
 4269WAT      O13048   4.031   6.791   4.162
 4269WAT     H113049   3.964   6.719   4.147
 4269WAT     H213050   4.116   6.769   4.113
 4270WAT      O13051   5.204   3.884   8.982
 4270WAT     H113052   5.239   3.842   9.066
 4270WAT     H213053   5.246   3.975   8.972
 4271WAT      O13054   5.464   4.303   6.506
 4271WAT     H113055   5.512   4.260   6.429
 4271WAT     H213056   5.528   4.361   6.557
 4272WAT      O13057   5.638   6.495   7.788
 4272WAT     H113058   5.585   6.525   7.708
 4272WAT     H213059   5.575   6.462   7.859
 4273WAT      O13060   7.727   3.587   0.365
 4273WAT     H113061   7.672   3.533   0.428
 4273WAT     H213062   7.731   3.542   0.276
 4274WAT      O13063   0.711   4.056   6.030
 4274WAT     H113064   0.799   4.082   5.991
 4274WAT     H213065   0.722   4.041   6.128
 4275WAT      O13066   9.202   0.824   0.824
 4275WAT     H113067   9.183   0.875   0.740
 4275WAT     H213068   9.201   0.726   0.805
 4276WAT      O13069   5.482   1.756   5.640
 4276WAT     H113070   5.478   1.673   5.695
 4276WAT     H213071   5.565   1.807   5.661
 4277WAT      O13072   4.326   4.799   3.559
 4277WAT     H113073   4.397   4.854   3.603
 4277WAT     H213074   4.368   4.735   3.494
 4278WAT      O13075   2.882   7.137   0.945
 4278WAT     H113076   2.862   7.208   0.876
 4278WAT     H213077   2.975   7.102   0.929
 4279WAT      O13078   0.329   9.457   9.753
 4279WAT     H113079   0.273   9.507   9.820
 4279WAT     H213080   0.272   9.389   9.707
 4280WAT      O13081   7.260   9.644   1.229
 4280WAT     H113082   7.203   9.592   1.292
 4280WAT     H213083   7.206   9.718   1.188
 4281WAT      O13084   4.894   5.016   7.893
 4281WAT     H113085   4.952   5.094   7.871
 4281WAT     H213086   4.823   5.005   7.824
 4282WAT      O13087   2.873   9.482   2.232
 4282WAT     H113088   2.788   9.531   2.217
 4282WAT     H213089   2.854   9.389   2.263
 4283WAT      O13090   9.154   7.658   2.228
 4283WAT     H113091   9.160   7.754   2.256
 4283WAT     H213092   9.223   7.638   2.160
 4284WAT      O13093   3.091   3.439   0.355
 4284WAT     H113094   3.107   3.403   0.263
 4284WAT     H213095   3.021   3.510   0.351
 4285WAT      O13096   1.113   0.423   9.343
 4285WAT     H113097   1.177   0.360   9.299
 4285WAT     H213098   1.039   0.370   9.385
 4286WAT      O13099   8.681   8.379   3.705
 4286WAT     H113100   8.680   8.378   3.805
 4286WAT     H213101   8.635   8.461   3.672
 4287WAT      O13102   4.281   3.618   0.468
 4287WAT     H113103   4.343   3.555   0.422
 4287WAT     H213104   4.303   3.712   0.442
 4288WAT      O13105   3.676   1.641   7.877
 4288WAT     H113106   3.621   1.592   7.944
 4288WAT     H213107   3.767   1.659   7.916
 4289WAT      O13108   4.417   2.678   6.588
 4289WAT     H113109   4.344   2.617   6.619
 4289WAT     H213110   4.398   2.707   6.494
 4290WAT      O13111   6.311   4.197   9.492
 4290WAT     H113112   6.358   4.124   9.542
 4290WAT     H213113   6.212   4.178   9.491
 4291WAT      O13114   6.635   8.531   2.578
 4291WAT     H113115   6.672   8.541   2.486
 4291WAT     H213116   6.546   8.577   2.583
 4292WAT      O13117   4.858   6.492   3.093
 4292WAT     H113118   4.927   6.459   3.158
 4292WAT     H213119   4.772   6.442   3.108
 4293WAT      O13120   7.771   9.363   9.270
 4293WAT     H113121   7.852   9.414   9.240
 4293WAT     H213122   7.731   9.407   9.350
 4294WAT      O13123   7.838   9.778   9.093
 4294WAT     H113124   7.780   9.727   9.029
 4294WAT     H213125   7.891   9.846   9.042
 4295WAT      O13126   7.525   9.313   5.823
 4295WAT     H113127   7.566   9.402   5.846
 4295WAT     H213128   7.479   9.276   5.904
 4296WAT      O13129   8.042   7.177   6.041
 4296WAT     H113130   8.094   7.146   5.961
 4296WAT     H213131   8.080   7.264   6.073
 4297WAT      O13132   5.753   1.954   4.395
 4297WAT     H113133   5.762   2.020   4.320
 4297WAT     H213134   5.829   1.964   4.458
 4298WAT      O13135   2.981   1.915   8.203
 4298WAT     H113136   2.934   1.974   8.138
 4298WAT     H213137   2.976   1.820   8.171
 4299WAT      O13138   5.412   4.907   2.151
 4299WAT     H113139   5.491   4.968   2.151
 4299WAT     H213140   5.378   4.896   2.244
 4300WAT      O13141   1.431   2.030   9.223
 4300WAT     H113142   1.482   2.016   9.138
 4300WAT     H213143   1.452   1.957   9.288
 4301WAT      O13144   2.502   5.673   3.623
 4301WAT     H113145   2.415   5.685   3.671
 4301WAT     H213146   2.546   5.589   3.654
 4302WAT      O13147   3.523   0.939   7.487
 4302WAT     H113148   3.573   0.863   7.446
 4302WAT     H213149   3.443   0.904   7.535
 4303WAT      O13150   9.882   0.848   0.374
 4303WAT     H113151   9.833   0.791   0.441
 4303WAT     H213152   9.895   0.939   0.413
 4304WAT      O13153   1.861   7.986   0.294
 4304WAT     H113154   1.829   7.893   0.312
 4304WAT     H213155   1.861   8.002   0.195
 4305WAT      O13156   6.496   8.008   0.428
 4305WAT     H113157   6.556   7.957   0.366
 4305WAT     H213158   6.481   8.100   0.392
 4306WAT      O13159   0.092   4.725   0.012
 4306WAT     H113160   0.082   4.805  -0.047
 4306WAT     H213161   0.180   4.729   0.059
 4307WAT      O13162   3.492   5.284   0.600
 4307WAT     H113163   3.413   5.339   0.574
 4307WAT     H213164   3.575   5.338   0.590
 4308WAT      O13165   5.681   5.874   1.219
 4308WAT     H113166   5.651   5.953   1.165
 4308WAT     H213167   5.635   5.875   1.307
 4309WAT      O13168   1.093   7.120   5.881
 4309WAT     H113169   1.110   7.199   5.821
 4309WAT     H213170   1.179   7.088   5.919
 4310WAT      O13171   0.900   5.754   7.219
 4310WAT     H113172   0.965   5.694   7.266
 4310WAT     H213173   0.940   5.845   7.209
 4311WAT      O13174   9.429   3.664   4.501
 4311WAT     H113175   9.417   3.762   4.519
 4311WAT     H213176   9.504   3.651   4.436
 4312WAT      O13177   2.402   0.261   8.287
 4312WAT     H113178   2.386   0.331   8.356
 4312WAT     H213179   2.353   0.285   8.203
 4313WAT      O13180   7.399   6.352   2.738
 4313WAT     H113181   7.326   6.289   2.712
 4313WAT     H213182   7.486   6.303   2.738
 4314WAT      O13183   0.420   7.833   2.888
 4314WAT     H113184   0.326   7.850   2.919
 4314WAT     H213185   0.447   7.741   2.916
 4315WAT      O13186   2.409   4.688   0.768
 4315WAT     H113187   2.316   4.720   0.748
 4315WAT     H213188   2.436   4.621   0.699
 4316WAT      O13189   8.384   2.689   1.274
 4316WAT     H113190   8.363   2.642   1.360
 4316WAT     H213191   8.459   2.641   1.228
 4317WAT      O13192   5.667   3.527   4.792
 4317WAT     H113193   5.587   3.546   4.848
 4317WAT     H213194   5.649   3.447   4.734
 4318WAT      O13195   1.519   4.723   3.060
 4318WAT     H113196   1.509   4.640   3.003
 4318WAT     H213197   1.543   4.696   3.153
 4319WAT      O13198   0.032   2.415   9.136
 4319WAT     H113199   0.057   2.356   9.213
 4319WAT     H213200   0.032   2.510   9.166
 4320WAT      O13201   5.223   4.884   4.314
 4320WAT     H113202   5.170   4.896   4.398
 4320WAT     H213203   5.174   4.822   4.253
 4321WAT      O13204   4.913   6.265   5.472
 4321WAT     H113205   4.847   6.189   5.472
 4321WAT     H213206   4.945   6.280   5.566
 4322WAT      O13207   2.226   3.548   5.555
 4322WAT     H113208   2.316   3.550   5.598
 4322WAT     H213209   2.160   3.509   5.620
 4323WAT      O13210   2.700   5.118   2.019
 4323WAT     H113211   2.755   5.035   2.035
 4323WAT     H213212   2.741   5.170   1.944
 4324WAT      O13213   5.553   0.491   3.393
 4324WAT     H113214   5.582   0.441   3.475
 4324WAT     H213215   5.474   0.548   3.415
 4325WAT      O13216   0.680   7.268   9.006
 4325WAT     H113217   0.665   7.340   9.074
 4325WAT     H213218   0.770   7.280   8.964
 4326WAT      O13219   0.198   8.085   0.955
 4326WAT     H113220   0.156   8.082   1.045
 4326WAT     H213221   0.200   8.179   0.921
 4327WAT      O13222   5.867   3.160   2.973
 4327WAT     H113223   5.871   3.063   2.997
 4327WAT     H213224   5.774   3.194   2.985
 4328WAT      O13225   9.225   2.004   8.524
 4328WAT     H113226   9.283   1.924   8.509
 4328WAT     H213227   9.154   2.007   8.453
 4329WAT      O13228   8.584   8.378   5.343
 4329WAT     H113229   8.550   8.400   5.252
 4329WAT     H213230   8.555   8.285   5.368
 4330WAT      O13231   4.554   7.610   4.978
 4330WAT     H113232   4.527   7.551   5.054
 4330WAT     H213233   4.653   7.603   4.965
 4331WAT      O13234   2.417   0.376   1.825
 4331WAT     H113235   2.448   0.282   1.833
 4331WAT     H213236   2.334   0.389   1.881
 4332WAT      O13237   2.126   6.947   1.594
 4332WAT     H113238   2.147   6.864   1.647
 4332WAT     H213239   2.212   6.992   1.568
 4333WAT      O13240   6.597   2.804   2.830
 4333WAT     H113241   6.561   2.892   2.800
 4333WAT     H213242   6.523   2.736   2.832
 4334WAT      O13243   7.601   7.512   6.924
 4334WAT     H113244   7.604   7.574   7.002
 4334WAT     H213245   7.537   7.547   6.855
 4335WAT      O13246   7.212   4.266   6.398
 4335WAT     H113247   7.161   4.209   6.462
 4335WAT     H213248   7.181   4.361   6.405
 4336WAT      O13249   9.707   5.589   0.703
 4336WAT     H113250   9.715   5.556   0.797
 4336WAT     H213251   9.627   5.649   0.695
 4337WAT      O13252   1.049   0.595   1.980
 4337WAT     H113253   1.136   0.644   1.980
 4337WAT     H213254   1.057   0.513   2.037
 4338WAT      O13255   9.798   6.546   6.236
 4338WAT     H113256   9.738   6.481   6.188
 4338WAT     H213257   9.748   6.629   6.257
 4339WAT      O13258   9.826   4.787   4.818
 4339WAT     H113259   9.864   4.702   4.856
 4339WAT     H213260   9.884   4.864   4.844
 4340WAT      O13261   8.177   7.450   6.135
 4340WAT     H113262   8.234   7.530   6.118
 4340WAT     H213263   8.208   7.404   6.218
 4341WAT      O13264   8.162   9.748   3.129
 4341WAT     H113265   8.241   9.808   3.117
 4341WAT     H213266   8.158   9.717   3.224
 4342WAT      O13267   6.616   3.062   3.451
 4342WAT     H113268   6.645   3.146   3.497
 4342WAT     H213269   6.524   3.074   3.414
 4343WAT      O13270   4.734   4.355   9.371
 4343WAT     H113271   4.805   4.425   9.369
 4343WAT     H213272   4.772   4.270   9.407
 4344WAT      O13273   4.607   2.739   8.365
 4344WAT     H113274   4.526   2.713   8.418
 4344WAT     H213275   4.597   2.833   8.332
 4345WAT      O13276   9.509   1.796   8.729
 4345WAT     H113277   9.550   1.886   8.717
 4345WAT     H213278   9.581   1.727   8.738
 4346WAT      O13279   1.087   4.227   8.304
 4346WAT     H113280   1.018   4.262   8.240
 4346WAT     H213281   1.128   4.145   8.265
 4347WAT      O13282   2.933   3.726   3.810
 4347WAT     H113283   2.877   3.665   3.754
 4347WAT     H213284   2.877   3.801   3.845
 4348WAT      O13285   2.351   8.865   6.154
 4348WAT     H113286   2.438   8.827   6.185
 4348WAT     H213287   2.364   8.913   6.068
 4349WAT      O13288   0.214   7.678   8.289
 4349WAT     H113289   0.168   7.744   8.348
 4349WAT     H213290   0.203   7.705   8.193
 4350WAT      O13291   8.293   8.140   4.145
 4350WAT     H113292   8.343   8.120   4.061
 4350WAT     H213293   8.214   8.079   4.152
 4351WAT      O13294   6.532   1.778   0.120
 4351WAT     H113295   6.529   1.790   0.219
 4351WAT     H213296   6.587   1.851   0.079
 4352WAT      O13297   2.099   1.543   2.122
 4352WAT     H113298   2.183   1.543   2.176
 4352WAT     H213299   2.026   1.586   2.173
 4353WAT      O13300   9.844   7.254   3.396
 4353WAT     H113301   9.898   7.319   3.450
 4353WAT     H213302   9.861   7.269   3.299
 4354WAT      O13303   5.870   7.194   1.147
 4354WAT     H113304   5.862   7.140   1.063
 4354WAT     H213305   5.965   7.221   1.160
 4355WAT      O13306   4.986   8.360   6.714
 4355WAT     H113307   4.953   8.450   6.744
 4355WAT     H213308   5.036   8.371   6.628
 4356WAT      O13309   8.959   8.408   8.124
 4356WAT     H113310   9.000   8.345   8.059
 4356WAT     H213311   8.959   8.366   8.215
 4357WAT      O13312   8.738   3.013   3.476
 4357WAT     H113313   8.686   3.090   3.514
 4357WAT     H213314   8.682   2.931   3.475
 4358WAT      O13315   1.338   3.527   6.765
 4358WAT     H113316   1.360   3.430   6.748
 4358WAT     H213317   1.392   3.584   6.704
 4359WAT      O13318   2.541   0.447   0.349
 4359WAT     H113319   2.598   0.427   0.269
 4359WAT     H213320   2.557   0.541   0.379
 4360WAT      O13321   9.311   7.845   8.298
 4360WAT     H113322   9.318   7.876   8.393
 4360WAT     H213323   9.259   7.911   8.245
 4361WAT      O13324   4.519   3.267   9.038
 4361WAT     H113325   4.487   3.173   9.041
 4361WAT     H213326   4.529   3.296   8.943
 4362WAT      O13327   2.887   9.415   3.365
 4362WAT     H113328   2.964   9.389   3.423
 4362WAT     H213329   2.918   9.426   3.271
 4363WAT      O13330   9.415   2.977   4.247
 4363WAT     H113331   9.353   2.939   4.315
 4363WAT     H213332   9.422   3.076   4.260
 4364WAT      O13333   8.265   2.291   5.309
 4364WAT     H113334   8.243   2.203   5.267
 4364WAT     H213335   8.284   2.278   5.406
 4365WAT      O13336   7.853   6.178   3.545
 4365WAT     H113337   7.834   6.106   3.479
 4365WAT     H213338   7.780   6.181   3.614
 4366WAT      O13339   3.200   2.809   9.467
 4366WAT     H113340   3.191   2.817   9.368
 4366WAT     H213341   3.117   2.844   9.511
 4367WAT      O13342   4.378   3.680   1.363
 4367WAT     H113343   4.443   3.670   1.288
 4367WAT     H213344   4.332   3.592   1.380
 4368WAT      O13345   6.442   7.498   2.990
 4368WAT     H113346   6.467   7.445   2.909
 4368WAT     H213347   6.456   7.444   3.072
 4369WAT      O13348   8.492   0.978   1.153
 4369WAT     H113349   8.409   0.952   1.204
 4369WAT     H213350   8.466   1.016   1.065
 4370WAT      O13351   8.195   3.971   1.845
 4370WAT     H113352   8.230   4.064   1.829
 4370WAT     H213353   8.103   3.964   1.809
 4371WAT      O13354   8.902   2.432   6.830
 4371WAT     H113355   8.851   2.449   6.914
 4371WAT     H213356   8.843   2.450   6.751
 4372WAT      O13357   4.024   5.159   0.058
 4372WAT     H113358   3.989   5.242   0.102
 4372WAT     H213359   4.027   5.084   0.124
 4373WAT      O13360   2.285   4.043   2.312
 4373WAT     H113361   2.207   4.104   2.323
 4373WAT     H213362   2.364   4.079   2.361
 4374WAT      O13363   4.735   4.053   4.119
 4374WAT     H113364   4.768   3.959   4.117
 4374WAT     H213365   4.750   4.091   4.211
 4375WAT      O13366   6.093   7.550   2.406
 4375WAT     H113367   5.998   7.560   2.375
 4375WAT     H213368   6.134   7.641   2.415
 4376WAT      O13369   2.579   9.225   0.140
 4376WAT     H113370   2.527   9.163   0.199
 4376WAT     H213371   2.554   9.319   0.160
 4377WAT      O13372   0.395   9.062   0.878
 4377WAT     H113373   0.435   9.006   0.805
 4377WAT     H213374   0.296   9.046   0.882
 4378WAT      O13375   0.187   2.702   8.128
 4378WAT     H113376   0.171   2.773   8.196
 4378WAT     H213377   0.123   2.627   8.143
 4379WAT      O13378   0.612   2.615   7.010
 4379WAT     H113379   0.675   2.659   7.074
 4379WAT     H213380   0.576   2.684   6.947
 4380WAT      O13381   9.766   2.796   2.854
 4380WAT     H113382   9.855   2.837   2.872
 4380WAT     H213383   9.711   2.797   2.938
 4381WAT      O13384   9.440   7.777   1.052
 4381WAT     H113385   9.431   7.728   1.139
 4381WAT     H213386   9.374   7.852   1.048
 4382WAT      O13387   1.454   3.780   8.671
 4382WAT     H113388   1.485   3.823   8.586
 4382WAT     H213389   1.499   3.824   8.749
 4383WAT      O13390   6.802   3.896   7.060
 4383WAT     H113391   6.792   3.810   7.111
 4383WAT     H213392   6.733   3.961   7.092
 4384WAT      O13393   5.924   7.771   9.287
 4384WAT     H113394   5.894   7.712   9.213
 4384WAT     H213395   5.844   7.819   9.325
 4385WAT      O13396   3.355   0.387   4.435
 4385WAT     H113397   3.407   0.468   4.459
 4385WAT     H213398   3.418   0.314   4.406
 4386WAT      O13399   3.019   4.653   6.074
 4386WAT     H113400   2.956   4.589   6.119
 4386WAT     H213401   3.089   4.682   6.138
 4387WAT      O13402   7.941   9.843   1.726
 4387WAT     H113403   7.994   9.761   1.749
 4387WAT     H213404   7.915   9.890   1.810
 4388WAT      O13405   5.208   4.295   6.573
 4388WAT     H113406   5.287   4.265   6.521
 4388WAT     H213407   5.238   4.345   6.654
 4389WAT      O13408   8.741   8.011   0.628
 4389WAT     H113409   8.751   8.110   0.638
 4389WAT     H213410   8.645   7.987   0.617
 4390WAT      O13411   5.159   9.271   9.326
 4390WAT     H113412   5.200   9.350   9.371
 4390WAT     H213413   5.196   9.262   9.234
 4391WAT      O13414   2.001   5.002   9.553
 4391WAT     H113415   1.943   4.942   9.608
 4391WAT     H213416   1.949   5.037   9.475
 4392WAT      O13417   2.486   2.193   2.812
 4392WAT     H113418   2.482   2.262   2.885
 4392WAT     H213419   2.568   2.138   2.823
 4393WAT      O13420   3.565   2.967   9.677
 4393WAT     H113421   3.536   2.896   9.614
 4393WAT     H213422   3.662   2.986   9.664
 4394WAT      O13423   5.506   1.684   3.467
 4394WAT     H113424   5.425   1.638   3.432
 4394WAT     H213425   5.495   1.783   3.457
 4395WAT      O13426   2.555   6.418   6.727
 4395WAT     H113427   2.502   6.399   6.644
 4395WAT     H213428   2.497   6.466   6.794
 4396WAT      O13429   1.016   0.137   6.490
 4396WAT     H113430   1.082   0.133   6.415
 4396WAT     H213431   0.931   0.178   6.458
 4397WAT      O13432   8.068   2.236   5.933
 4397WAT     H113433   8.130   2.309   5.961
 4397WAT     H213434   7.982   2.275   5.899
 4398WAT      O13435   7.645   8.893   8.850
 4398WAT     H113436   7.585   8.967   8.879
 4398WAT     H213437   7.726   8.931   8.806
 4399WAT      O13438   0.686   4.273   1.635
 4399WAT     H113439   0.691   4.278   1.535
 4399WAT     H213440   0.612   4.332   1.668
 4400WAT      O13441   1.655   8.664   3.931
 4400WAT     H113442   1.637   8.726   3.855
 4400WAT     H213443   1.629   8.571   3.904
 4401WAT      O13444   1.940   9.464   7.882
 4401WAT     H113445   1.861   9.492   7.937
 4401WAT     H213446   1.915   9.465   7.785
 4402WAT      O13447   1.040   0.726   4.676
 4402WAT     H113448   0.983   0.747   4.597
 4402WAT     H213449   0.983   0.712   4.756
 4403WAT      O13450   1.816   2.753   3.560
 4403WAT     H113451   1.729   2.720   3.522
 4403WAT     H213452   1.810   2.852   3.574
 4404WAT      O13453   2.472   6.350   2.005
 4404WAT     H113454   2.480   6.254   2.031
 4404WAT     H213455   2.564   6.389   1.995
 4405WAT      O13456   8.294   6.696   9.183
 4405WAT     H113457   8.345   6.782   9.179
 4405WAT     H213458   8.325   6.636   9.109
 4406WAT      O13459   7.938   3.628   5.951
 4406WAT     H113460   7.981   3.690   5.886
 4406WAT     H213461   7.997   3.548   5.965
 4407WAT      O13462   8.238   0.789   0.215
 4407WAT     H113463   8.170   0.825   0.152
 4407WAT     H213464   8.300   0.728   0.166
 4408WAT      O13465   3.507   2.517   8.325
 4408WAT     H113466   3.492   2.614   8.340
 4408WAT     H213467   3.457   2.464   8.394
 4409WAT      O13468   6.061   3.831   0.531
 4409WAT     H113469   6.041   3.786   0.618
 4409WAT     H213470   6.116   3.913   0.548
 4410WAT      O13471   7.519   0.380   3.716
 4410WAT     H113472   7.572   0.433   3.650
 4410WAT     H213473   7.509   0.286   3.682
 4411WAT      O13474   8.455   7.595   6.306
 4411WAT     H113475   8.399   7.616   6.226
 4411WAT     H213476   8.550   7.623   6.289
 4412WAT      O13477   1.879   7.557   6.067
 4412WAT     H113478   1.924   7.479   6.110
 4412WAT     H213479   1.947   7.625   6.042
 4413WAT      O13480   6.173   9.751   3.704
 4413WAT     H113481   6.268   9.772   3.681
 4413WAT     H213482   6.144   9.669   3.654
 4414WAT      O13483   8.428   2.797   0.089
 4414WAT     H113484   8.415   2.874   0.153
 4414WAT     H213485   8.363   2.805   0.014
 4415WAT      O13486   6.418   4.206   7.771
 4415WAT     H113487   6.334   4.223   7.823
 4415WAT     H213488   6.442   4.109   7.777
 4416WAT      O13489   1.267   0.534   7.950
 4416WAT     H113490   1.226   0.560   7.863
 4416WAT     H213491   1.325   0.609   7.982
 4417WAT      O13492   0.134   5.627   1.846
 4417WAT     H113493   0.084   5.543   1.871
 4417WAT     H213494   0.160   5.623   1.750
 4418WAT      O13495   8.168   1.853   9.415
 4418WAT     H113496   8.261   1.876   9.446
 4418WAT     H213497   8.104   1.923   9.448
 4419WAT      O13498   1.766   0.490   7.412
 4419WAT     H113499   1.797   0.583   7.394
 4419WAT     H213500   1.808   0.457   7.497
 4420WAT      O13501   4.659   3.876   3.670
 4420WAT     H113502   4.569   3.858   3.711
 4420WAT     H213503   4.662   3.970   3.636
 4421WAT      O13504   8.621   2.077   8.966
 4421WAT     H113505   8.681   2.148   8.930
 4421WAT     H213506   8.630   1.995   8.910
 4422WAT      O13507   7.019   4.256   6.167
 4422WAT     H113508   7.011   4.267   6.068
 4422WAT     H213509   7.115   4.249   6.192
 4423WAT      O13510   5.236   8.306   9.409
 4423WAT     H113511   5.157   8.358   9.440
 4423WAT     H213512   5.307   8.368   9.375
 4424WAT      O13513   5.855   4.531   5.517
 4424WAT     H113514   5.905   4.618   5.524
 4424WAT     H213515   5.824   4.518   5.424
 4425WAT      O13516   3.718   7.975   2.390
 4425WAT     H113517   3.657   8.003   2.316
 4425WAT     H213518   3.779   7.903   2.358
 4426WAT      O13519   0.459   3.427   5.710
 4426WAT     H113520   0.418   3.505   5.757
 4426WAT     H213521   0.409   3.409   5.625
 4427WAT      O13522   8.549   1.457   8.658
 4427WAT     H113523   8.606   1.443   8.577
 4427WAT     H213524   8.455   1.478   8.630
 4428WAT      O13525   4.026   9.546   6.565
 4428WAT     H113526   4.084   9.567   6.644
 4428WAT     H213527   4.084   9.528   6.485
 4429WAT      O13528   7.666   7.599   6.556
 4429WAT     H113529   7.577   7.607   6.601
 4429WAT     H213530   7.680   7.678   6.496
 4430WAT      O13531   9.265   6.725   1.564
 4430WAT     H113532   9.226   6.635   1.586
 4430WAT     H213533   9.329   6.715   1.487
 4431WAT      O13534   8.336   0.809   8.999
 4431WAT     H113535   8.303   0.776   8.910
 4431WAT     H213536   8.408   0.877   8.985
 4432WAT      O13537   2.095   0.596   4.340
 4432WAT     H113538   2.038   0.518   4.312
 4432WAT     H213539   2.118   0.587   4.437
 4433WAT      O13540   7.244   6.690   2.068
 4433WAT     H113541   7.272   6.644   1.984
 4433WAT     H213542   7.323   6.736   2.108
 4434WAT      O13543   1.653   5.587   3.443
 4434WAT     H113544   1.649   5.686   3.456
 4434WAT     H213545   1.698   5.568   3.355
 4435WAT      O13546   5.599   9.747   1.981
 4435WAT     H113547   5.622   9.694   2.063
 4435WAT     H213548   5.610   9.844   2.001
 4436WAT      O13549   2.822   2.007   6.564
 4436WAT     H113550   2.871   2.003   6.477
 4436WAT     H213551   2.842   2.094   6.610
 4437WAT      O13552   4.525   0.880   9.151
 4437WAT     H113553   4.439   0.843   9.116
 4437WAT     H213554   4.506   0.964   9.203
 4438WAT      O13555   8.159   6.379   3.969
 4438WAT     H113556   8.082   6.361   3.907
 4438WAT     H213557   8.242   6.394   3.915
 4439WAT      O13558   7.251   0.620   0.498
 4439WAT     H113559   7.341   0.590   0.531
 4439WAT     H213560   7.249   0.616   0.398
 4440WAT      O13561   8.433   7.464   0.268
 4440WAT     H113562   8.464   7.449   0.175
 4440WAT     H213563   8.509   7.452   0.332
 4441WAT      O13564   5.233   0.055   3.454
 4441WAT     H113565   5.326   0.078   3.426
 4441WAT     H213566   5.227  -0.044   3.468
 4442WAT      O13567   5.562   1.353   9.056
 4442WAT     H113568   5.568   1.286   9.130
 4442WAT     H213569   5.569   1.306   8.968
 4443WAT      O13570   0.878   0.928   5.432
 4443WAT     H113571   0.835   0.913   5.521
 4443WAT     H213572   0.976   0.944   5.445
 4444WAT      O13573   1.652   8.396   7.117
 4444WAT     H113574   1.728   8.391   7.051
 4444WAT     H213575   1.625   8.491   7.130
 4445WAT      O13576   4.681   7.265   0.577
 4445WAT     H113577   4.587   7.235   0.561
 4445WAT     H213578   4.696   7.352   0.531
 4446WAT      O13579   3.041   2.556   8.110
 4446WAT     H113580   3.120   2.508   8.148
 4446WAT     H213581   3.027   2.528   8.015
 4447WAT      O13582   7.865   0.663   6.454
 4447WAT     H113583   7.780   0.692   6.497
 4447WAT     H213584   7.846   0.628   6.362
 4448WAT      O13585   0.781   1.720   5.934
 4448WAT     H113586   0.765   1.805   5.885
 4448WAT     H213587   0.879   1.703   5.940
 4449WAT      O13588   6.166   9.823   5.788
 4449WAT     H113589   6.182   9.881   5.709
 4449WAT     H213590   6.247   9.822   5.846
 4450WAT      O13591   1.794   0.736   2.523
 4450WAT     H113592   1.862   0.786   2.468
 4450WAT     H213593   1.726   0.800   2.558
 4451WAT      O13594   9.123   6.210   2.694
 4451WAT     H113595   9.070   6.127   2.712
 4451WAT     H213596   9.062   6.289   2.695
 4452WAT      O13597   9.149   2.811   4.997
 4452WAT     H113598   9.057   2.773   4.991
 4452WAT     H213599   9.147   2.909   4.977
 4453WAT      O13600   6.313   7.497   3.660
 4453WAT     H113601   6.411   7.486   3.677
 4453WAT     H213602   6.297   7.501   3.561
 4454WAT      O13603   1.675   2.183   6.861
 4454WAT     H113604   1.620   2.230   6.930
 4454WAT     H213605   1.754   2.140   6.906
 4455WAT      O13606   1.266   3.841   4.510
 4455WAT     H113607   1.201   3.773   4.479
 4455WAT     H213608   1.252   3.927   4.460
 4456WAT      O13609   4.944   6.822   3.270
 4456WAT     H113610   5.012   6.886   3.306
 4456WAT     H213611   4.928   6.750   3.337
 4457WAT      O13612   9.523   4.994   4.659
 4457WAT     H113613   9.452   5.060   4.635
 4457WAT     H213614   9.606   5.042   4.686
 4458WAT      O13615   8.947   8.124   1.768
 4458WAT     H113616   9.016   8.172   1.714
 4458WAT     H213617   8.974   8.123   1.864
 4459WAT      O13618   8.544   4.424   4.577
 4459WAT     H113619   8.491   4.368   4.640
 4459WAT     H213620   8.640   4.425   4.605
 4460WAT      O13621   0.501   5.543   0.116
 4460WAT     H113622   0.588   5.508   0.079
 4460WAT     H213623   0.431   5.538   0.045
 4461WAT      O13624   7.564   6.028   6.868
 4461WAT     H113625   7.510   5.991   6.792
 4461WAT     H213626   7.510   6.027   6.952
 4462WAT      O13627   1.178   0.162   6.707
 4462WAT     H113628   1.122   0.190   6.785
 4462WAT     H213629   1.118   0.149   6.627
 4463WAT      O13630   1.372   9.682   8.058
 4463WAT     H113631   1.400   9.624   7.981
 4463WAT     H213632   1.367   9.626   8.141
 4464WAT      O13633   7.569   8.105   3.668
 4464WAT     H113634   7.663   8.071   3.666
 4464WAT     H213635   7.530   8.101   3.576
 4465WAT      O13636   4.148   2.979   7.601
 4465WAT     H113637   4.218   3.050   7.603
 4465WAT     H213638   4.065   3.013   7.645
 4466WAT      O13639   5.470   3.680   5.302
 4466WAT     H113640   5.566   3.656   5.284
 4466WAT     H213641   5.443   3.646   5.392
 4467WAT      O13642   4.313   7.925   5.841
 4467WAT     H113643   4.227   7.974   5.823
 4467WAT     H213644   4.299   7.827   5.832
 4468WAT      O13645   1.046   4.051   5.346
 4468WAT     H113646   1.090   4.034   5.435
 4468WAT     H213647   1.003   3.967   5.313
 4469WAT      O13648   4.324   9.561   7.523
 4469WAT     H113649   4.368   9.531   7.438
 4469WAT     H213650   4.289   9.654   7.511
 4470WAT      O13651   4.795   3.077   6.809
 4470WAT     H113652   4.793   3.068   6.908
 4470WAT     H213653   4.887   3.106   6.780
 4471WAT      O13654   8.480   3.791   2.667
 4471WAT     H113655   8.459   3.741   2.583
 4471WAT     H213656   8.524   3.730   2.733
 4472WAT      O13657   1.052   2.771   3.016
 4472WAT     H113658   1.099   2.707   3.077
 4472WAT     H213659   0.993   2.831   3.071
 4473WAT      O13660   6.883   2.495   6.043
 4473WAT     H113661   6.880   2.523   6.139
 4473WAT     H213662   6.906   2.574   5.986
 4474WAT      O13663   0.192   1.655   0.481
 4474WAT     H113664   0.178   1.574   0.538
 4474WAT     H213665   0.155   1.639   0.389
 4475WAT      O13666   3.366   1.361   9.787
 4475WAT     H113667   3.394   1.272   9.824
 4475WAT     H213668   3.276   1.385   9.823
 4476WAT      O13669   4.584   4.801   9.412
 4476WAT     H113670   4.562   4.893   9.444
 4476WAT     H213671   4.501   4.756   9.380
 4477WAT      O13672   2.266   0.070   7.914
 4477WAT     H113673   2.282   0.037   7.821
 4477WAT     H213674   2.221  -0.002   7.968
 4478WAT      O13675   8.889   7.749   7.295
 4478WAT     H113676   8.898   7.846   7.315
 4478WAT     H213677   8.803   7.715   7.333
 4479WAT      O13678   5.974   8.584   7.944
 4479WAT     H113679   6.040   8.643   7.992
 4479WAT     H213680   5.890   8.636   7.926
 4480WAT      O13681   6.909   6.652   7.633
 4480WAT     H113682   7.002   6.674   7.604
 4480WAT     H213683   6.907   6.641   7.733
 4481WAT      O13684   8.796   9.177   6.208
 4481WAT     H113685   8.894   9.196   6.217
 4481WAT     H213686   8.774   9.094   6.261
 4482WAT      O13687   8.616   7.418   2.879
 4482WAT     H113688   8.594   7.479   2.804
 4482WAT     H213689   8.533   7.374   2.913
 4483WAT      O13690   2.235   4.508   3.679
 4483WAT     H113691   2.245   4.606   3.660
 4483WAT     H213692   2.222   4.494   3.777
 4484WAT      O13693   6.795   4.795   4.144
 4484WAT     H113694   6.703   4.811   4.180
 4484WAT     H213695   6.835   4.882   4.115
 4485WAT      O13696   3.578   7.893   6.224
 4485WAT     H113697   3.574   7.988   6.255
 4485WAT     H213698   3.656   7.846   6.266
 4486WAT      O13699   1.173   9.329   5.467
 4486WAT     H113700   1.130   9.254   5.516
 4486WAT     H213701   1.105   9.376   5.411
 4487WAT      O13702   0.761   0.896   3.972
 4487WAT     H113703   0.856   0.896   3.939
 4487WAT     H213704   0.720   0.985   3.952
 4488WAT      O13705   6.476   4.133   0.549
 4488WAT     H113706   6.560   4.078   0.545
 4488WAT     H213707   6.463   4.168   0.641
 4489WAT      O13708   1.310   0.585   8.278
 4489WAT     H113709   1.297   0.650   8.353
 4489WAT     H213710   1.233   0.521   8.276
 4490WAT      O13711   2.993   7.841   4.288
 4490WAT     H113712   2.943   7.815   4.370
 4490WAT     H213713   3.085   7.802   4.291
 4491WAT      O13714   8.633   2.726   4.702
 4491WAT     H113715   8.683   2.812   4.691
 4491WAT     H213716   8.629   2.702   4.800
 4492WAT      O13717   3.297   6.110   6.490
 4492WAT     H113718   3.217   6.142   6.438
 4492WAT     H213719   3.379   6.118   6.433
 4493WAT      O13720   5.330   1.139   0.804
 4493WAT     H113721   5.280   1.089   0.733
 4493WAT     H213722   5.266   1.193   0.859
 4494WAT      O13723   6.785   5.857   0.056
 4494WAT     H113724   6.864   5.800   0.034
 4494WAT     H213725   6.737   5.819   0.135
 4495WAT      O13726   5.751   1.341   9.507
 4495WAT     H113727   5.808   1.421   9.522
 4495WAT     H213728   5.669   1.368   9.456
 4496WAT      O13729   9.649   5.093   7.762
 4496WAT     H113730   9.606   5.097   7.672
 4496WAT     H213731   9.585   5.125   7.831
 4497WAT      O13732   9.061   2.485   5.741
 4497WAT     H113733   9.083   2.483   5.839
 4497WAT     H213734   9.056   2.391   5.706
 4498WAT      O13735   5.648   6.966   7.185
 4498WAT     H113736   5.648   7.014   7.097
 4498WAT     H213737   5.734   6.916   7.195
 4499WAT      O13738   8.678   1.863   6.280
 4499WAT     H113739   8.631   1.879   6.193
 4499WAT     H213740   8.612   1.866   6.355
 4500WAT      O13741   6.335   9.655   4.481
 4500WAT     H113742   6.354   9.717   4.557
 4500WAT     H213743   6.308   9.708   4.400
 4501WAT      O13744   8.688   4.610   8.620
 4501WAT     H113745   8.723   4.542   8.555
 4501WAT     H213746   8.730   4.596   8.709
 4502WAT      O13747   1.118   2.279   3.027
 4502WAT     H113748   1.060   2.357   3.047
 4502WAT     H213749   1.096   2.204   3.090
 4503WAT      O13750   8.625   0.428   7.749
 4503WAT     H113751   8.599   0.470   7.836
 4503WAT     H213752   8.549   0.374   7.714
 4504WAT      O13753   1.852   6.880   7.385
 4504WAT     H113754   1.888   6.904   7.475
 4504WAT     H213755   1.752   6.885   7.386
 4505WAT      O13756   1.712   1.112   4.505
 4505WAT     H113757   1.661   1.130   4.421
 4505WAT     H213758   1.788   1.049   4.485
 4506WAT      O13759   7.527   5.043   9.748
 4506WAT     H113760   7.434   5.075   9.734
 4506WAT     H213761   7.591   5.120   9.741
 4507WAT      O13762   5.229   4.690   0.770
 4507WAT     H113763   5.130   4.701   0.759
 4507WAT     H213764   5.247   4.616   0.835
 4508WAT      O13765   9.233   5.938   5.537
 4508WAT     H113766   9.190   6.028   5.540
 4508WAT     H213767   9.315   5.943   5.479
 4509WAT      O13768   3.301   2.154   1.558
 4509WAT     H113769   3.243   2.108   1.491
 4509WAT     H213770   3.355   2.086   1.608
 4510WAT      O13771   1.940   9.271   0.341
 4510WAT     H113772   1.966   9.324   0.422
 4510WAT     H213773   1.850   9.302   0.310
 4511WAT      O13774   4.785   9.251   2.779
 4511WAT     H113775   4.704   9.256   2.837
 4511WAT     H213776   4.863   9.289   2.828
 4512WAT      O13777   1.205   1.947   5.677
 4512WAT     H113778   1.260   1.866   5.697
 4512WAT     H213779   1.264   2.027   5.670
 4513WAT      O13780   8.078   1.028   5.796
 4513WAT     H113781   8.110   1.090   5.724
 4513WAT     H213782   7.998   0.978   5.764
 4514WAT      O13783   7.545   9.158   1.965
 4514WAT     H113784   7.546   9.058   1.972
 4514WAT     H213785   7.638   9.192   1.977
 4515WAT      O13786   4.702   4.944   0.833
 4515WAT     H113787   4.672   5.026   0.881
 4515WAT     H213788   4.715   4.964   0.736
 4516WAT      O13789   8.615   8.537   2.361
 4516WAT     H113790   8.648   8.495   2.276
 4516WAT     H213791   8.605   8.466   2.431
 4517WAT      O13792   3.809   8.746   8.485
 4517WAT     H113793   3.726   8.759   8.432
 4517WAT     H213794   3.855   8.662   8.455
 4518WAT      O13795   2.807   6.945   2.426
 4518WAT     H113796   2.730   6.987   2.379
 4518WAT     H213797   2.892   6.969   2.380
 4519WAT      O13798   9.405   7.837   8.863
 4519WAT     H113799   9.479   7.826   8.929
 4519WAT     H213800   9.372   7.747   8.833
 4520WAT      O13801   8.388   9.131   6.322
 4520WAT     H113802   8.469   9.182   6.351
 4520WAT     H213803   8.316   9.195   6.296
 4521WAT      O13804   5.982   9.324   2.272
 4521WAT     H113805   6.070   9.359   2.303
 4521WAT     H213806   5.972   9.341   2.173
 4522WAT      O13807   6.846   9.568   9.328
 4522WAT     H113808   6.864   9.545   9.424
 4522WAT     H213809   6.793   9.653   9.323
 4523WAT      O13810   1.114   1.468   0.837
 4523WAT     H113811   1.168   1.428   0.911
 4523WAT     H213812   1.107   1.404   0.761
 4524WAT      O13813   3.624   4.019   9.232
 4524WAT     H113814   3.611   3.938   9.174
 4524WAT     H213815   3.601   4.101   9.181
 4525WAT      O13816   9.438   3.515   0.497
 4525WAT     H113817   9.365   3.583   0.500
 4525WAT     H213818   9.477   3.511   0.405
 4526WAT      O13819   2.514   1.977   8.936
 4526WAT     H113820   2.468   2.005   8.851
 4526WAT     H213821   2.525   1.878   8.936
 4527WAT      O13822   2.534   0.766   6.906
 4527WAT     H113823   2.480   0.746   6.824
 4527WAT     H213824   2.601   0.837   6.885
 4528WAT      O13825   2.867   9.229   0.110
 4528WAT     H113826   2.902   9.230   0.203
 4528WAT     H213827   2.767   9.234   0.111
 4529WAT      O13828   6.632   9.342   1.919
 4529WAT     H113829   6.627   9.250   1.880
 4529WAT     H213830   6.728   9.367   1.933
 4530WAT      O13831   0.903   3.368   5.883
 4530WAT     H113832   0.901   3.397   5.978
 4530WAT     H213833   0.837   3.422   5.830
 4531WAT      O13834   4.378   7.580   0.035
 4531WAT     H113835   4.414   7.625  -0.047
 4531WAT     H213836   4.404   7.484   0.033
 4532WAT      O13837   5.241   7.972   6.493
 4532WAT     H113838   5.145   7.943   6.494
 4532WAT     H213839   5.248   8.063   6.534
 4533WAT      O13840   6.581   0.272   1.366
 4533WAT     H113841   6.572   0.179   1.403
 4533WAT     H213842   6.598   0.336   1.441
 4534WAT      O13843   5.371   0.622   4.514
 4534WAT     H113844   5.336   0.649   4.603
 4534WAT     H213845   5.454   0.673   4.493
 4535WAT      O13846   7.059   5.204   5.022
 4535WAT     H113847   6.964   5.172   5.032
 4535WAT     H213848   7.107   5.190   5.109
 4536WAT      O13849   2.457   9.340   2.227
 4536WAT     H113850   2.475   9.370   2.133
 4536WAT     H213851   2.490   9.247   2.239
 4537WAT      O13852   3.938   7.936   0.760
 4537WAT     H113853   3.924   7.974   0.669
 4537WAT     H213854   3.852   7.900   0.796
 4538WAT      O13855   0.862   3.958   5.704
 4538WAT     H113856   0.776   4.002   5.677
 4538WAT     H213857   0.927   4.028   5.733
 4539WAT      O13858   1.521   9.189   6.725
 4539WAT     H113859   1.598   9.130   6.750
 4539WAT     H213860   1.545   9.244   6.645
 4540WAT      O13861   5.946   0.261   3.258
 4540WAT     H113862   5.936   0.211   3.344
 4540WAT     H213863   5.915   0.355   3.271
 4541WAT      O13864   6.508   2.400   9.834
 4541WAT     H113865   6.598   2.442   9.838
 4541WAT     H213866   6.445   2.459   9.783
 4542WAT      O13867   2.381   7.731   3.891
 4542WAT     H113868   2.447   7.771   3.827
 4542WAT     H213869   2.424   7.655   3.940
 4543WAT      O13870   7.460   1.330   8.161
 4543WAT     H113871   7.431   1.382   8.242
 4543WAT     H213872   7.512   1.389   8.100
 4544WAT      O13873   4.956   4.059   0.090
 4544WAT     H113874   4.988   4.016   0.005
 4544WAT     H213875   4.978   4.000   0.167
 4545WAT      O13876   5.773   7.451   9.788
 4545WAT     H113877   5.868   7.460   9.816
 4545WAT     H213878   5.768   7.397   9.704
 4546WAT      O13879   3.267   4.933   9.230
 4546WAT     H113880   3.180   4.983   9.238
 4546WAT     H213881   3.256   4.855   9.169
 4547WAT      O13882   7.982   5.372   4.073
 4547WAT     H113883   7.936   5.420   4.147
 4547WAT     H213884   8.069   5.416   4.053
 4548WAT      O13885   7.204   1.601   3.244
 4548WAT     H113886   7.223   1.604   3.146
 4548WAT     H213887   7.290   1.591   3.294
 4549WAT      O13888   9.426   4.959   5.393
 4549WAT     H113889   9.387   4.999   5.475
 4549WAT     H213890   9.404   5.016   5.314
 4550WAT      O13891   6.950   6.177   9.006
 4550WAT     H113892   6.862   6.193   8.963
 4550WAT     H213893   6.961   6.079   9.025
 4551WAT      O13894   0.240   7.523   6.164
 4551WAT     H113895   0.206   7.607   6.207
 4551WAT     H213896   0.193   7.508   6.077
 4552WAT      O13897   1.336   9.183   2.019
 4552WAT     H113898   1.388   9.231   1.948
 4552WAT     H213899   1.387   9.184   2.105
 4553WAT      O13900   9.479   2.420   3.971
 4553WAT     H113901   9.436   2.341   3.927
 4553WAT     H213902   9.409   2.478   4.013
 4554WAT      O13903   5.204   4.110   1.855
 4554WAT     H113904   5.113   4.073   1.839
 4554WAT     H213905   5.267   4.076   1.786
 4555WAT      O13906   4.588   0.489   2.989
 4555WAT     H113907   4.649   0.521   3.062
 4555WAT     H213908   4.496   0.522   3.006
 4556WAT      O13909   7.220   8.458   7.655
 4556WAT     H113910   7.305   8.409   7.677
 4556WAT     H213911   7.145   8.420   7.709
 4557WAT      O13912   3.937   4.504   7.306
 4557WAT     H113913   4.007   4.572   7.329
 4557WAT     H213914   3.856   4.520   7.363
 4558WAT      O13915   1.780   9.649   9.145
 4558WAT     H113916   1.863   9.705   9.134
 4558WAT     H213917   1.801   9.571   9.204
 4559WAT      O13918   5.572   5.543   9.036
 4559WAT     H113919   5.595   5.541   9.134
 4559WAT     H213920   5.561   5.449   9.003
 4560WAT      O13921   2.702   2.419   3.387
 4560WAT     H113922   2.732   2.503   3.343
 4560WAT     H213923   2.751   2.341   3.346
 4561WAT      O13924   0.917   5.004   4.155
 4561WAT     H113925   0.960   5.037   4.072
 4561WAT     H213926   0.930   4.905   4.163
 4562WAT      O13927   0.224   7.286   0.376
 4562WAT     H113928   0.243   7.347   0.453
 4562WAT     H213929   0.139   7.313   0.331
 4563WAT      O13930   0.325   4.670   0.175
 4563WAT     H113931   0.409   4.620   0.199
 4563WAT     H213932   0.287   4.713   0.257
 4564WAT      O13933   6.355   8.008   4.807
 4564WAT     H113934   6.440   8.055   4.834
 4564WAT     H213935   6.362   7.979   4.711
 4565WAT      O13936   8.271   8.589   9.569
 4565WAT     H113937   8.298   8.493   9.570
 4565WAT     H213938   8.350   8.646   9.591
 4566WAT      O13939   9.245   0.498   0.741
 4566WAT     H113940   9.336   0.497   0.698
 4566WAT     H213941   9.207   0.406   0.739
 4567WAT      O13942   6.550   1.751   4.871
 4567WAT     H113943   6.605   1.708   4.799
 4567WAT     H213944   6.580   1.845   4.883
 4568WAT      O13945   7.420   3.276   2.191
 4568WAT     H113946   7.451   3.190   2.230
 4568WAT     H213947   7.383   3.260   2.099
 4569WAT      O13948   2.221   0.359   1.117
 4569WAT     H113949   2.222   0.383   1.215
 4569WAT     H213950   2.169   0.275   1.104
 4570WAT      O13951   8.390   2.989   7.227
 4570WAT     H113952   8.307   2.959   7.274
 4570WAT     H213953   8.440   2.909   7.194
 4571WAT      O13954   9.136   5.671   5.980
 4571WAT     H113955   9.063   5.662   5.913
 4571WAT     H213956   9.224   5.678   5.933
 4572WAT      O13957   8.246   1.330   3.634
 4572WAT     H113958   8.149   1.306   3.635
 4572WAT     H213959   8.282   1.329   3.727
 4573WAT      O13960   2.469   4.269   7.868
 4573WAT     H113961   2.561   4.268   7.907
 4573WAT     H213962   2.475   4.290   7.770
 4574WAT      O13963   7.830   1.770   0.711
 4574WAT     H113964   7.831   1.671   0.725
 4574WAT     H213965   7.791   1.814   0.792
 4575WAT      O13966   6.846   7.060   5.751
 4575WAT     H113967   6.772   6.996   5.730
 4575WAT     H213968   6.814   7.128   5.817
 4576WAT      O13969   4.251   0.006   0.347
 4576WAT     H113970   4.259  -0.085   0.387
 4576WAT     H213971   4.210   0.069   0.413
 4577WAT      O13972   4.450   7.148   7.273
 4577WAT     H113973   4.515   7.182   7.342
 4577WAT     H213974   4.446   7.212   7.197
 4578WAT      O13975   7.061   2.553   5.032
 4578WAT     H113976   7.127   2.549   5.107
 4578WAT     H213977   7.082   2.481   4.966
 4579WAT      O13978   9.094   2.079   8.754
 4579WAT     H113979   9.122   2.168   8.790
 4579WAT     H213980   9.166   2.044   8.693
 4580WAT      O13981   1.452   2.680   2.805
 4580WAT     H113982   1.551   2.664   2.799
 4580WAT     H213983   1.409   2.602   2.852
 4581WAT      O13984   8.475   5.896   0.339
 4581WAT     H113985   8.450   5.962   0.410
 4581WAT     H213986   8.403   5.828   0.329
 4582WAT      O13987   3.215   2.402   8.914
 4582WAT     H113988   3.311   2.403   8.945
 4582WAT     H213989   3.178   2.495   8.919
 4583WAT      O13990   4.944   6.163   2.461
 4583WAT     H113991   4.953   6.108   2.378
 4583WAT     H213992   4.916   6.104   2.537
 4584WAT      O13993   4.198   4.618   2.428
 4584WAT     H113994   4.258   4.683   2.381
 4584WAT     H213995   4.139   4.667   2.493
 4585WAT      O13996   9.150   5.128   2.737
 4585WAT     H113997   9.231   5.076   2.710
 4585WAT     H213998   9.112   5.175   2.658
 4586WAT      O13999   8.909   4.065   8.649
 4586WAT     H114000   8.809   4.055   8.642
 4586WAT     H214001   8.930   4.159   8.678
 4587WAT      O14002   1.758   4.189   9.725
 4587WAT     H114003   1.748   4.102   9.677
 4587WAT     H214004   1.678   4.246   9.709
 4588WAT      O14005   7.715   8.753   7.467
 4588WAT     H114006   7.768   8.670   7.447
 4588WAT     H214007   7.638   8.731   7.527
 4589WAT      O14008   8.630   9.322   0.163
 4589WAT     H114009   8.625   9.260   0.084
 4589WAT     H214010   8.691   9.398   0.142
 4590WAT      O14011   0.396   3.590   9.141
 4590WAT     H114012   0.478   3.586   9.198
 4590WAT     H214013   0.395   3.676   9.090
 4591WAT      O14014   6.422   9.242   6.940
 4591WAT     H114015   6.433   9.143   6.942
 4591WAT     H214016   6.434   9.279   7.032
 4592WAT      O14017   3.523   8.172   8.436
 4592WAT     H114018   3.497   8.076   8.436
 4592WAT     H214019   3.449   8.227   8.476
 4593WAT      O14020   6.994   9.458   7.519
 4593WAT     H114021   7.051   9.482   7.598
 4593WAT     H214022   6.980   9.539   7.462
 4594WAT      O14023   8.237   6.087   1.514
 4594WAT     H114024   8.148   6.041   1.520
 4594WAT     H214025   8.307   6.028   1.554
 4595WAT      O14026   5.436   2.914   6.529
 4595WAT     H114027   5.384   2.937   6.447
 4595WAT     H214028   5.503   2.986   6.547
 4596WAT      O14029   4.171   3.058   1.996
 4596WAT     H114030   4.217   3.056   1.908
 4596WAT     H214031   4.080   3.099   1.986
 4597WAT      O14032   4.123   0.987   4.128
 4597WAT     H114033   4.047   1.004   4.191
 4597WAT     H214034   4.179   0.912   4.163
 4598WAT      O14035   4.787   0.310   9.307
 4598WAT     H114036   4.798   0.382   9.376
 4598WAT     H214037   4.753   0.351   9.222
 4599WAT      O14038   3.803   7.653   9.637
 4599WAT     H114039   3.716   7.636   9.684
 4599WAT     H214040   3.817   7.583   9.567
 4600WAT      O14041   6.988   4.227   4.814
 4600WAT     H114042   7.074   4.264   4.848
 4600WAT     H214043   6.982   4.241   4.715
 4601WAT      O14044   4.823   2.017   0.271
 4601WAT     H114045   4.889   1.942   0.267
 4601WAT     H214046   4.772   2.012   0.357
 4602WAT      O14047   8.872   7.785   6.747
 4602WAT     H114048   8.801   7.776   6.817
 4602WAT     H214049   8.865   7.875   6.703
 4603WAT      O14050   4.106   6.154   9.353
 4603WAT     H114051   4.021   6.106   9.374
 4603WAT     H214052   4.086   6.239   9.305
 4604WAT      O14053   9.410   9.087   4.322
 4604WAT     H114054   9.507   9.096   4.344
 4604WAT     H214055   9.365   9.030   4.391
 4605WAT      O14056   1.467   0.751   6.998
 4605WAT     H114057   1.506   0.820   6.937
 4605WAT     H214058   1.396   0.792   7.054
 4606WAT      O14059   7.360   8.743   8.611
 4606WAT     H114060   7.431   8.683   8.648
 4606WAT     H214061   7.388   8.838   8.624
 4607WAT      O14062   3.573   4.133   4.617
 4607WAT     H114063   3.500   4.066   4.630
 4607WAT     H214064   3.543   4.222   4.653
 4608WAT      O14065   7.973   6.478   1.776
 4608WAT     H114066   8.011   6.422   1.703
 4608WAT     H214067   8.012   6.450   1.864
 4609WAT      O14068   5.120   9.824   2.758
 4609WAT     H114069   5.026   9.806   2.726
 4609WAT     H214070   5.184   9.807   2.683
 4610WAT      O14071   1.163   4.444   7.904
 4610WAT     H114072   1.074   4.415   7.940
 4610WAT     H214073   1.231   4.372   7.921
 4611WAT      O14074   0.899   0.757   9.840
 4611WAT     H114075   0.904   0.835   9.778
 4611WAT     H214076   0.926   0.674   9.791
 4612WAT      O14077   6.485   1.434   1.952
 4612WAT     H114078   6.452   1.435   1.858
 4612WAT     H214079   6.408   1.416   2.014
 4613WAT      O14080   3.118   6.257   7.694
 4613WAT     H114081   3.083   6.350   7.684
 4613WAT     H214082   3.200   6.246   7.637
 4614WAT      O14083   4.370   5.407   6.397
 4614WAT     H114084   4.421   5.419   6.482
 4614WAT     H214085   4.325   5.317   6.397
 4615WAT      O14086   4.404   1.437   8.921
 4615WAT     H114087   4.469   1.424   8.846
 4615WAT     H214088   4.447   1.490   8.994
 4616WAT      O14089   7.785   3.922   8.056
 4616WAT     H114090   7.755   3.875   7.974
 4616WAT     H214091   7.708   3.972   8.096
 4617WAT      O14092   7.348   6.807   4.576
 4617WAT     H114093   7.249   6.796   4.563
 4617WAT     H214094   7.365   6.867   4.654
 4618WAT      O14095   3.233   3.463   2.490
 4618WAT     H114096   3.279   3.403   2.424
 4618WAT     H214097   3.260   3.557   2.473
 4619WAT      O14098   2.794   7.414   0.858
 4619WAT     H114099   2.709   7.362   0.859
 4619WAT     H214100   2.798   7.472   0.939
 4620WAT      O14101   9.183   1.336   9.776
 4620WAT     H114102   9.283   1.338   9.766
 4620WAT     H214103   9.158   1.274   9.850
 4621WAT      O14104   6.789   2.582   9.568
 4621WAT     H114105   6.691   2.575   9.548
 4621WAT     H214106   6.829   2.653   9.510
 4622WAT      O14107   3.467   0.833   8.865
 4622WAT     H114108   3.427   0.924   8.855
 4622WAT     H214109   3.467   0.806   8.961
 4623WAT      O14110   7.276   4.672   2.035
 4623WAT     H114111   7.363   4.629   2.056
 4623WAT     H214112   7.223   4.613   1.974
 4624WAT      O14113   1.141   5.256   7.486
 4624WAT     H114114   1.206   5.294   7.553
 4624WAT     H214115   1.150   5.306   7.400
 4625WAT      O14116   7.944   3.984   1.099
 4625WAT     H114117   7.990   4.067   1.129
 4625WAT     H214118   7.962   3.910   1.163
 4626WAT      O14119   6.493   9.314   6.196
 4626WAT     H114120   6.406   9.300   6.244
 4626WAT     H214121   6.475   9.334   6.100
 4627WAT      O14122   4.221   0.589   5.955
 4627WAT     H114123   4.143   0.528   5.940
 4627WAT     H214124   4.298   0.536   5.988
 4628WAT      O14125   7.031   6.292   0.018
 4628WAT     H114126   7.053   6.380  -0.025
 4628WAT     H214127   7.114   6.252   0.056
 4629WAT      O14128   5.476   3.482   1.109
 4629WAT     H114129   5.529   3.526   1.036
 4629WAT     H214130   5.529   3.485   1.194
 4630WAT      O14131   9.172   2.280   9.328
 4630WAT     H114132   9.140   2.235   9.412
 4630WAT     H214133   9.154   2.378   9.334
 4631WAT      O14134   0.611   6.054   4.940
 4631WAT     H114135   0.576   5.960   4.949
 4631WAT     H214136   0.611   6.098   5.030
 4632WAT      O14137   8.826   6.230   4.919
 4632WAT     H114138   8.788   6.270   4.836
 4632WAT     H214139   8.917   6.193   4.900
 4633WAT      O14140   6.874   0.856   4.931
 4633WAT     H114141   6.917   0.938   4.968
 4633WAT     H214142   6.889   0.851   4.832
 4634WAT      O14143   5.018   9.533   6.156
 4634WAT     H114144   5.100   9.589   6.147
 4634WAT     H214145   4.945   9.587   6.197
 4635WAT      O14146   3.013   6.394   8.402
 4635WAT     H114147   2.959   6.471   8.435
 4635WAT     H214148   2.978   6.309   8.443
 4636WAT      O14149   6.629   2.949   5.519
 4636WAT     H114150   6.586   2.954   5.429
 4636WAT     H214151   6.721   2.987   5.514
 4637WAT      O14152   0.158   6.465   6.202
 4637WAT     H114153   0.063   6.475   6.232
 4637WAT     H214154   0.172   6.514   6.116
 4638WAT      O14155   5.357   2.868   8.305
 4638WAT     H114156   5.288   2.908   8.245
 4638WAT     H214157   5.448   2.899   8.277
 4639WAT      O14158   5.936   6.946   7.550
 4639WAT     H114159   5.897   7.030   7.514
 4639WAT     H214160   5.871   6.871   7.539
 4640WAT      O14161   9.368   9.768   9.387
 4640WAT     H114162   9.452   9.823   9.385
 4640WAT     H214163   9.347   9.744   9.482
 4641WAT      O14164   7.362   3.942   1.413
 4641WAT     H114165   7.357   4.027   1.465
 4641WAT     H214166   7.418   3.875   1.461
 4642WAT      O14167   6.347   8.389   0.615
 4642WAT     H114168   6.372   8.330   0.538
 4642WAT     H214169   6.316   8.333   0.692
 4643WAT      O14170   9.649   3.693   3.004
 4643WAT     H114171   9.638   3.635   3.085
 4643WAT     H214172   9.618   3.785   3.024
 4644WAT      O14173   5.116   5.208   9.633
 4644WAT     H114174   5.186   5.279   9.629
 4644WAT     H214175   5.093   5.180   9.540
 4645WAT      O14176   8.656   8.952   8.481
 4645WAT     H114177   8.600   8.977   8.560
 4645WAT     H214178   8.741   9.005   8.482
 4646WAT      O14179   4.557   6.690   9.896
 4646WAT     H114180   4.555   6.714   9.799
 4646WAT     H214181   4.625   6.618   9.911
 4647WAT      O14182   4.670   7.740   2.815
 4647WAT     H114183   4.607   7.799   2.764
 4647WAT     H214184   4.754   7.728   2.761
 4648WAT      O14185   1.272   1.417   0.047
 4648WAT     H114186   1.205   1.347   0.070
 4648WAT     H214187   1.308   1.457   0.132
 4649WAT      O14188   6.416   7.038   4.589
 4649WAT     H114189   6.335   7.054   4.533
 4649WAT     H214190   6.419   7.105   4.663
 4650WAT      O14191   3.092   2.518   3.343
 4650WAT     H114192   2.996   2.519   3.315
 4650WAT     H214193   3.113   2.600   3.396
 4651WAT      O14194   3.074   8.819   0.578
 4651WAT     H114195   2.995   8.767   0.544
 4651WAT     H214196   3.041   8.895   0.634
 4652WAT      O14197   8.176   9.077   7.910
 4652WAT     H114198   8.238   9.067   7.989
 4652WAT     H214199   8.132   9.167   7.914
 4653WAT      O14200   3.711   9.382   6.015
 4653WAT     H114201   3.685   9.389   6.112
 4653WAT     H214202   3.792   9.324   6.007
 4654WAT      O14203   7.109   4.027   9.573
 4654WAT     H114204   7.070   4.060   9.658
 4654WAT     H214205   7.195   4.075   9.554
 4655WAT      O14206   8.890   9.574   7.078
 4655WAT     H114207   8.837   9.498   7.041
 4655WAT     H214208   8.870   9.658   7.026
 4656WAT      O14209   1.184   7.162   2.860
 4656WAT     H114210   1.185   7.200   2.768
 4656WAT     H214211   1.232   7.224   2.922
 4657WAT      O14212   7.462   5.214   8.745
 4657WAT     H114213   7.477   5.119   8.773
 4657WAT     H214214   7.365   5.228   8.725
 4658WAT      O14215   8.724   1.301   5.431
 4658WAT     H114216   8.793   1.274   5.365
 4658WAT     H214217   8.752   1.272   5.523
 4659WAT      O14218   9.181   5.442   3.637
 4659WAT     H114219   9.261   5.498   3.617
 4659WAT     H214220   9.193   5.395   3.724
 4660WAT      O14221   8.677   3.591   3.731
 4660WAT     H114222   8.636   3.618   3.818
 4660WAT     H214223   8.753   3.651   3.709
 4661WAT      O14224   1.711   0.725   6.766
 4661WAT     H114225   1.697   0.700   6.862
 4661WAT     H214226   1.656   0.665   6.707
 4662WAT      O14227   0.802   0.759   4.841
 4662WAT     H114228   0.734   0.719   4.780
 4662WAT     H214229   0.824   0.852   4.809
 4663WAT      O14230   3.788   6.578   4.177
 4663WAT     H114231   3.834   6.489   4.178
 4663WAT     H214232   3.754   6.597   4.085
 4664WAT      O14233   3.015   2.163   0.879
 4664WAT     H114234   3.024   2.246   0.824
 4664WAT     H214235   3.105   2.135   0.912
 4665WAT      O14236   3.098   5.793   6.779
 4665WAT     H114237   3.154   5.809   6.697
 4665WAT     H214238   3.065   5.881   6.814
 4666WAT      O14239   4.897   0.278   5.782
 4666WAT     H114240   4.836   0.253   5.707
 4666WAT     H214241   4.919   0.196   5.836
 4667WAT      O14242   7.909   8.884   5.104
 4667WAT     H114243   7.988   8.823   5.114
 4667WAT     H214244   7.940   8.971   5.067
 4668WAT      O14245   1.759   4.412   3.721
 4668WAT     H114246   1.827   4.449   3.784
 4668WAT     H214247   1.672   4.399   3.770
 4669WAT      O14248   2.077   7.931   2.963
 4669WAT     H114249   2.163   7.974   2.938
 4669WAT     H214250   2.010   8.002   2.985
 4670WAT      O14251   9.322   5.350   7.770
 4670WAT     H114252   9.234   5.381   7.808
 4670WAT     H214253   9.320   5.251   7.760
 4671WAT      O14254   9.079   1.527   0.494
 4671WAT     H114255   8.999   1.541   0.552
 4671WAT     H214256   9.156   1.579   0.530
 4672WAT      O14257   2.075   6.284   8.328
 4672WAT     H114258   2.065   6.367   8.274
 4672WAT     H214259   2.140   6.222   8.283
 4673WAT      O14260   0.245   3.725   1.730
 4673WAT     H114261   0.298   3.799   1.689
 4673WAT     H214262   0.210   3.665   1.658
 4674WAT      O14263   5.370   9.124   9.478
 4674WAT     H114264   5.354   9.125   9.576
 4674WAT     H214265   5.288   9.155   9.430
 4675WAT      O14266   0.696   2.856   6.791
 4675WAT     H114267   0.723   2.931   6.730
 4675WAT     H214268   0.775   2.827   6.844
 4676WAT      O14269   6.778   5.719   0.966
 4676WAT     H114270   6.877   5.723   0.980
 4676WAT     H214271   6.750   5.795   0.907
 4677WAT      O14272   7.553   2.990   3.625
 4677WAT     H114273   7.540   3.005   3.722
 4677WAT     H214274   7.559   3.077   3.577
 4678WAT      O14275   3.033   1.525   6.571
 4678WAT     H114276   2.984   1.438   6.563
 4678WAT     H214277   3.077   1.531   6.661
 4679WAT      O14278   0.775   1.629   5.413
 4679WAT     H114279   0.707   1.577   5.363
 4679WAT     H214280   0.781   1.595   5.507
 4680WAT      O14281   0.372   6.434   1.990
 4680WAT     H114282   0.391   6.476   2.079
 4680WAT     H214283   0.320   6.498   1.934
 4681WAT      O14284   5.594   0.626   6.637
 4681WAT     H114285   5.496   0.648   6.641
 4681WAT     H214286   5.647   0.710   6.639
 4682WAT      O14287   5.889   2.427   0.833
 4682WAT     H114288   5.989   2.426   0.827
 4682WAT     H214289   5.850   2.427   0.740
 4683WAT      O14290   7.781   0.737   5.131
 4683WAT     H114291   7.782   0.687   5.217
 4683WAT     H214292   7.705   0.802   5.132
 4684WAT      O14293   5.188   0.925   9.802
 4684WAT     H114294   5.206   0.914   9.899
 4684WAT     H214295   5.233   1.007   9.768
 4685WAT      O14296   3.052   1.484   2.793
 4685WAT     H114297   3.071   1.553   2.863
 4685WAT     H214298   2.984   1.520   2.728
 4686WAT      O14299   4.724   5.586   9.580
 4686WAT     H114300   4.649   5.635   9.535
 4686WAT     H214301   4.699   5.567   9.675
 4687WAT      O14302   7.689   7.101   6.549
 4687WAT     H114303   7.788   7.090   6.544
 4687WAT     H214304   7.667   7.168   6.620
 4688WAT      O14305   4.144   9.708   0.925
 4688WAT     H114306   4.072   9.656   0.971
 4688WAT     H214307   4.138   9.694   0.827
 4689WAT      O14308   6.066   1.458   6.294
 4689WAT     H114309   6.146   1.469   6.236
 4689WAT     H214310   6.032   1.364   6.287
 4690WAT      O14311   9.726   7.286   6.526
 4690WAT     H114312   9.713   7.196   6.486
 4690WAT     H214313   9.720   7.356   6.454
 4691WAT      O14314   7.191   2.639   6.326
 4691WAT     H114315   7.222   2.679   6.412
 4691WAT     H214316   7.239   2.680   6.250
 4692WAT      O14317   2.420   4.981   5.751
 4692WAT     H114318   2.509   4.985   5.796
 4692WAT     H214319   2.424   4.918   5.674
 4693WAT      O14320   4.251   7.145   7.640
 4693WAT     H114321   4.346   7.164   7.618
 4693WAT     H214322   4.201   7.121   7.557
 4694WAT      O14323   1.370   9.444   9.451
 4694WAT     H114324   1.377   9.532   9.405
 4694WAT     H214325   1.428   9.443   9.533
 4695WAT      O14326   6.337   1.810   3.114
 4695WAT     H114327   6.252   1.820   3.165
 4695WAT     H214328   6.410   1.860   3.160
 4696WAT      O14329   7.078   1.591   8.780
 4696WAT     H114330   7.038   1.545   8.700
 4696WAT     H214331   7.022   1.671   8.803
 4697WAT      O14332   9.674   3.790   9.128
 4697WAT     H114333   9.605   3.851   9.089
 4697WAT     H214334   9.664   3.699   9.087
 4698WAT      O14335   5.971   1.749   3.098
 4698WAT     H114336   5.986   1.749   2.999
 4698WAT     H214337   5.920   1.667   3.124
 4699WAT      O14338   2.814   1.191   1.415
 4699WAT     H114339   2.787   1.125   1.345
 4699WAT     H214340   2.894   1.242   1.383
 4700WAT      O14341   2.914   3.195   5.363
 4700WAT     H114342   2.834   3.136   5.359
 4700WAT     H214343   2.981   3.156   5.426
 4701WAT      O14344   4.067   9.820   4.498
 4701WAT     H114345   4.072   9.724   4.525
 4701WAT     H214346   4.153   9.847   4.454
 4702WAT      O14347   3.786   6.958   9.858
 4702WAT     H114348   3.696   6.939   9.816
 4702WAT     H214349   3.838   6.873   9.864
 4703WAT      O14350   3.601   9.179   8.648
 4703WAT     H114351   3.505   9.155   8.658
 4703WAT     H214352   3.659   9.100   8.670
 4704WAT      O14353   3.830   9.427   3.263
 4704WAT     H114354   3.923   9.436   3.297
 4704WAT     H214355   3.769   9.403   3.339
 4705WAT      O14356   0.028   6.929   3.344
 4705WAT     H114357   0.073   7.009   3.384
 4705WAT     H214358   0.034   6.852   3.409
 4706WAT      O14359   2.916   9.712   1.225
 4706WAT     H114360   2.874   9.681   1.311
 4706WAT     H214361   3.013   9.688   1.226
 4707WAT      O14362   6.354   5.577   0.947
 4707WAT     H114363   6.320   5.568   0.853
 4707WAT     H214364   6.289   5.536   1.010
 4708WAT      O14365   8.923   3.737   7.331
 4708WAT     H114366   8.876   3.738   7.420
 4708WAT     H214367   9.002   3.676   7.337
 4709WAT      O14368   1.359   7.395   6.493
 4709WAT     H114369   1.288   7.352   6.437
 4709WAT     H214370   1.446   7.395   6.444
 4710WAT      O14371   0.787   3.825   9.113
 4710WAT     H114372   0.820   3.910   9.153
 4710WAT     H214373   0.733   3.845   9.031
 4711WAT      O14374   8.542   7.071   0.171
 4711WAT     H114375   8.461   7.124   0.196
 4711WAT     H214376   8.583   7.031   0.253
 4712WAT      O14377   0.775   9.784   8.939
 4712WAT     H114378   0.737   9.872   8.914
 4712WAT     H214379   0.849   9.759   8.877
 4713WAT      O14380   2.190   8.559   2.078
 4713WAT     H114381   2.215   8.568   1.982
 4713WAT     H214382   2.251   8.615   2.134
 4714WAT      O14383   1.980   3.734   4.580
 4714WAT     H114384   2.052   3.742   4.512
 4714WAT     H214385   1.903   3.683   4.541
 4715WAT      O14386   7.839   5.046   6.122
 4715WAT     H114387   7.868   5.052   6.027
 4715WAT     H214388   7.870   4.959   6.161
 4716WAT      O14389   8.570   2.890   0.716
 4716WAT     H114390   8.578   2.799   0.676
 4716WAT     H214391   8.570   2.884   0.815
 4717WAT      O14392   8.662   8.305   2.541
 4717WAT     H114393   8.661   8.256   2.628
 4717WAT     H214394   8.756   8.334   2.520
 4718WAT      O14395   4.297   3.201   0.837
 4718WAT     H114396   4.245   3.277   0.875
 4718WAT     H214397   4.275   3.190   0.740
 4719WAT      O14398   0.049   1.653   4.823
 4719WAT     H114399  -0.012   1.686   4.751
 4719WAT     H214400   0.121   1.596   4.782
 4720WAT      O14401   3.610   4.802   2.879
 4720WAT     H114402   3.615   4.889   2.927
 4720WAT     H214403   3.580   4.730   2.942
 4721WAT      O14404   8.596   3.767   3.928
 4721WAT     H114405   8.513   3.822   3.930
 4721WAT     H214406   8.595   3.702   4.004
 4722WAT      O14407   1.119   7.947   2.295
 4722WAT     H114408   1.091   8.042   2.283
 4722WAT     H214409   1.189   7.925   2.227
 4723WAT      O14410   9.453   8.085   1.980
 4723WAT     H114411   9.508   8.169   1.990
 4723WAT     H214412   9.484   8.017   2.046
 4724WAT      O14413   5.941   9.119   0.926
 4724WAT     H114414   5.982   9.047   0.870
 4724WAT     H214415   5.940   9.090   1.022
 4725WAT      O14416   1.523   4.591   3.876
 4725WAT     H114417   1.492   4.500   3.902
 4725WAT     H214418   1.549   4.592   3.780
 4726WAT      O14419   0.908   9.524   8.337
 4726WAT     H114420   0.856   9.558   8.259
 4726WAT     H214421   1.002   9.555   8.330
 4727WAT      O14422   0.306   2.325   2.977
 4727WAT     H114423   0.228   2.387   2.983
 4727WAT     H214424   0.390   2.377   2.960
 4728WAT      O14425   2.014   7.382   6.231
 4728WAT     H114426   1.991   7.292   6.268
 4728WAT     H214427   2.026   7.447   6.306
 4729WAT      O14428   9.806   4.057   3.763
 4729WAT     H114429   9.816   4.022   3.670
 4729WAT     H214430   9.808   4.157   3.761
 4730WAT      O14431   3.615   6.533   8.765
 4730WAT     H114432   3.619   6.441   8.726
 4730WAT     H214433   3.643   6.530   8.861
 4731WAT      O14434   3.038   0.777   4.349
 4731WAT     H114435   3.079   0.686   4.353
 4731WAT     H214436   2.943   0.770   4.320
 4732WAT      O14437   8.382   5.292   8.245
 4732WAT     H114438   8.436   5.209   8.233
 4732WAT     H214439   8.320   5.303   8.168
 4733WAT      O14440   4.331   7.737   9.074
 4733WAT     H114441   4.358   7.770   9.164
 4733WAT     H214442   4.359   7.804   9.005
 4734WAT      O14443   0.281   2.366   7.694
 4734WAT     H114444   0.219   2.301   7.649
 4734WAT     H214445   0.365   2.375   7.639
 4735WAT      O14446   7.055   3.137   6.922
 4735WAT     H114447   7.092   3.213   6.975
 4735WAT     H214448   7.025   3.065   6.985
 4736WAT      O14449   0.829   4.326   3.069
 4736WAT     H114450   0.832   4.377   2.983
 4736WAT     H214451   0.737   4.290   3.083
 4737WAT      O14452   2.328   6.334   7.884
 4737WAT     H114453   2.246   6.320   7.829
 4737WAT     H214454   2.399   6.377   7.829
 4738WAT      O14455   6.049   0.333   9.532
 4738WAT     H114456   6.078   0.417   9.579
 4738WAT     H214457   6.114   0.260   9.553
 4739WAT      O14458   0.869   0.857   1.935
 4739WAT     H114459   0.788   0.857   1.875
 4739WAT     H214460   0.882   0.765   1.972
 4740WAT      O14461   9.067   6.620   1.893
 4740WAT     H114462   9.021   6.565   1.962
 4740WAT     H214463   9.123   6.690   1.937
 4741WAT      O14464   1.485   0.011   4.808
 4741WAT     H114465   1.488  -0.013   4.905
 4741WAT     H214466   1.400   0.061   4.789
 4742WAT      O14467   2.441   1.564   6.623
 4742WAT     H114468   2.350   1.603   6.641
 4742WAT     H214469   2.482   1.533   6.709
 4743WAT      O14470   5.581   8.338   2.889
 4743WAT     H114471   5.590   8.381   2.978
 4743WAT     H214472   5.514   8.264   2.894
 4744WAT      O14473   3.751   2.515   2.778
 4744WAT     H114474   3.713   2.607   2.774
 4744WAT     H214475   3.677   2.448   2.770
 4745WAT      O14476   4.671   0.089   6.424
 4745WAT     H114477   4.705   0.179   6.395
 4745WAT     H214478   4.684   0.023   6.350
 4746WAT      O14479   1.354   3.856   6.276
 4746WAT     H114480   1.442   3.870   6.323
 4746WAT     H214481   1.331   3.939   6.224
 4747WAT      O14482   5.247   2.570   0.080
 4747WAT     H114483   5.285   2.519   0.003
 4747WAT     H214484   5.293   2.542   0.164
 4748WAT      O14485   7.623   0.773   9.137
 4748WAT     H114486   7.695   0.843   9.134
 4748WAT     H214487   7.576   0.777   9.225
 4749WAT      O14488   2.684   8.265   1.712
 4749WAT     H114489   2.672   8.327   1.789
 4749WAT     H214490   2.596   8.251   1.667
 4750WAT      O14491   7.838   1.667   5.877
 4750WAT     H114492   7.817   1.752   5.925
 4750WAT     H214493   7.823   1.590   5.938
 4751WAT      O14494   6.895   8.699   9.059
 4751WAT     H114495   6.977   8.746   9.026
 4751WAT     H214496   6.921   8.612   9.100
 4752WAT      O14497   1.467   1.183   1.123
 4752WAT     H114498   1.452   1.120   1.047
 4752WAT     H214499   1.561   1.174   1.156
 4753WAT      O14500   2.643   8.365   4.167
 4753WAT     H114501   2.603   8.318   4.088
 4753WAT     H214502   2.720   8.311   4.202
 4754WAT      O14503   5.825   8.239   3.429
 4754WAT     H114504   5.872   8.246   3.341
 4754WAT     H214505   5.795   8.145   3.444
 4755WAT      O14506   5.652   9.609   6.027
 4755WAT     H114507   5.718   9.579   5.958
 4755WAT     H214508   5.676   9.569   6.116
 4756WAT      O14509   5.211   4.770   2.798
 4756WAT     H114510   5.268   4.690   2.815
 4756WAT     H214511   5.173   4.765   2.706
 4757WAT      O14512   2.979   7.300   4.001
 4757WAT     H114513   2.992   7.393   4.035
 4757WAT     H214514   3.030   7.289   3.915
 4758WAT      O14515   7.087   3.706   1.259
 4758WAT     H114516   7.172   3.738   1.216
 4758WAT     H214517   7.011   3.719   1.195
 4759WAT      O14518   3.297   9.820   9.103
 4759WAT     H114519   3.302   9.806   9.004
 4759WAT     H214520   3.384   9.857   9.136
 4760WAT      O14521   2.963   7.469   7.206
 4760WAT     H114522   2.945   7.568   7.202
 4760WAT     H214523   3.060   7.454   7.221
 4761WAT      O14524   3.157   5.194   5.363
 4761WAT     H114525   3.242   5.146   5.339
 4761WAT     H214526   3.136   5.178   5.459
 4762WAT      O14527   6.797   2.466   1.008
 4762WAT     H114528   6.861   2.427   0.942
 4762WAT     H214529   6.708   2.421   0.999
 4763WAT      O14530   2.506   4.294   0.894
 4763WAT     H114531   2.414   4.329   0.910
 4763WAT     H214532   2.572   4.350   0.945
 4764WAT      O14533   6.687   4.533   2.593
 4764WAT     H114534   6.680   4.589   2.675
 4764WAT     H214535   6.687   4.436   2.619
 4765WAT      O14536   6.104   4.285   3.998
 4765WAT     H114537   6.071   4.371   4.037
 4765WAT     H214538   6.204   4.284   3.997
 4766WAT      O14539   7.100   1.347   6.196
 4766WAT     H114540   7.045   1.379   6.273
 4766WAT     H214541   7.141   1.426   6.150
 4767WAT      O14542   9.118   6.501   8.221
 4767WAT     H114543   9.214   6.493   8.194
 4767WAT     H214544   9.113   6.539   8.313
 4768WAT      O14545   5.825   3.931   7.744
 4768WAT     H114546   5.901   3.951   7.682
 4768WAT     H214547   5.860   3.901   7.832
 4769WAT      O14548   8.413   7.728   0.334
 4769WAT     H114549   8.428   7.641   0.287
 4769WAT     H214550   8.315   7.746   0.341
 4770WAT      O14551   0.236   3.882   9.355
 4770WAT     H114552   0.183   3.872   9.439
 4770WAT     H214553   0.329   3.846   9.370
 4771WAT      O14554   7.813   2.817   8.252
 4771WAT     H114555   7.772   2.759   8.323
 4771WAT     H214556   7.833   2.907   8.290
 4772WAT      O14557   4.490   7.145   4.443
 4772WAT     H114558   4.392   7.134   4.463
 4772WAT     H214559   4.538   7.174   4.525
 4773WAT      O14560   0.080   0.961   6.519
 4773WAT     H114561   0.080   0.893   6.446
 4773WAT     H214562  -0.011   0.966   6.560
 4774WAT      O14563   1.566   8.101   6.658
 4774WAT     H114564   1.650   8.055   6.628
 4774WAT     H214565   1.493   8.034   6.667
 4775WAT      O14566   6.835   5.398   0.073
 4775WAT     H114567   6.800   5.328   0.011
 4775WAT     H214568   6.761   5.432   0.131
 4776WAT      O14569   6.059   1.505   7.682
 4776WAT     H114570   6.113   1.570   7.735
 4776WAT     H214571   5.962   1.517   7.703
 4777WAT      O14572   8.843   6.534   2.456
 4777WAT     H114573   8.865   6.529   2.554
 4777WAT     H214574   8.751   6.499   2.441
 4778WAT      O14575   0.066   3.972   8.859
 4778WAT     H114576   0.093   3.943   8.767
 4778WAT     H214577  -0.026   3.939   8.879
 4779WAT      O14578   1.415   7.200   7.936
 4779WAT     H114579   1.371   7.144   8.006
 4779WAT     H214580   1.507   7.226   7.967
 4780WAT      O14581   7.187   3.588   6.254
 4780WAT     H114582   7.273   3.577   6.204
 4780WAT     H214583   7.157   3.498   6.288
 4781WAT      O14584   9.881   2.553   1.232
 4781WAT     H114585   9.905   2.483   1.299
 4781WAT     H214586   9.861   2.509   1.144
 4782WAT      O14587   1.828   5.821   2.647
 4782WAT     H114588   1.797   5.767   2.725
 4782WAT     H214589   1.791   5.914   2.654
 4783WAT      O14590   4.912   9.736   5.794
 4783WAT     H114591   4.970   9.655   5.807
 4783WAT     H214592   4.939   9.783   5.710
 4784WAT      O14593   9.357   0.519   1.364
 4784WAT     H114594   9.450   0.494   1.335
 4784WAT     H214595   9.295   0.516   1.286
 4785WAT      O14596   6.605   5.807   9.080
 4785WAT     H114597   6.659   5.800   8.996
 4785WAT     H214598   6.601   5.903   9.109
 4786WAT      O14599   9.279   2.444   5.204
 4786WAT     H114600   9.330   2.406   5.281
 4786WAT     H214601   9.216   2.375   5.168
 4787WAT      O14602   3.682   1.667   4.143
 4787WAT     H114603   3.686   1.690   4.241
 4787WAT     H214604   3.586   1.663   4.114
 4788WAT      O14605   4.752   6.756   8.867
 4788WAT     H114606   4.684   6.825   8.890
 4788WAT     H214607   4.710   6.684   8.812
 4789WAT      O14608   2.512   3.933   3.881
 4789WAT     H114609   2.445   3.942   3.955
 4789WAT     H214610   2.493   3.850   3.829
 4790WAT      O14611   8.435   4.365   3.840
 4790WAT     H114612   8.364   4.297   3.823
 4790WAT     H214613   8.510   4.353   3.775
 4791WAT      O14614   7.194   0.796   8.603
 4791WAT     H114615   7.213   0.698   8.598
 4791WAT     H214616   7.128   0.814   8.675
 4792WAT      O14617   3.881   9.140   3.969
 4792WAT     H114618   3.943   9.216   3.990
 4792WAT     H214619   3.934   9.055   3.962
 4793WAT      O14620   3.113   2.887   2.164
 4793WAT     H114621   3.188   2.950   2.179
 4793WAT     H214622   3.027   2.931   2.189
 4794WAT      O14623   7.297   9.724   3.131
 4794WAT     H114624   7.259   9.669   3.056
 4794WAT     H214625   7.350   9.666   3.192
 4795WAT      O14626   5.851   9.221   2.669
 4795WAT     H114627   5.823   9.230   2.764
 4795WAT     H214628   5.797   9.148   2.625
 4796WAT      O14629   1.506   5.995   1.905
 4796WAT     H114630   1.477   6.002   2.001
 4796WAT     H214631   1.442   6.046   1.848
 4797WAT      O14632   3.186   4.939   2.122
 4797WAT     H114633   3.188   4.888   2.208
 4797WAT     H214634   3.249   4.897   2.057
 4798WAT      O14635   8.455   5.276   1.606
 4798WAT     H114636   8.425   5.282   1.511
 4798WAT     H214637   8.442   5.183   1.640
 4799WAT      O14638   4.859   1.336   1.587
 4799WAT     H114639   4.950   1.309   1.557
 4799WAT     H214640   4.816   1.261   1.637
 4800WAT      O14641   6.909   3.014   9.205
 4800WAT     H114642   6.840   3.075   9.244
 4800WAT     H214643   6.998   3.060   9.206
 4801WAT      O14644   1.404   8.485   3.766
 4801WAT     H114645   1.316   8.457   3.727
 4801WAT     H214646   1.420   8.582   3.747
 4802WAT      O14647   3.777   3.374   7.406
 4802WAT     H114648   3.721   3.456   7.406
 4802WAT     H214649   3.782   3.336   7.314
 4803WAT      O14650   8.990   9.078   2.189
 4803WAT     H114651   8.993   9.102   2.286
 4803WAT     H214652   9.045   9.144   2.137
 4804WAT      O14653   8.626   4.352   2.184
 4804WAT     H114654   8.678   4.434   2.159
 4804WAT     H214655   8.685   4.291   2.237
 4805WAT      O14656   7.231   8.525   1.514
 4805WAT     H114657   7.216   8.432   1.547
 4805WAT     H214658   7.329   8.540   1.500
 4806WAT      O14659   1.752   1.711   7.916
 4806WAT     H114660   1.656   1.726   7.891
 4806WAT     H214661   1.761   1.706   8.015
 4807WAT      O14662   3.739   4.513   3.888
 4807WAT     H114663   3.821   4.562   3.860
 4807WAT     H214664   3.741   4.420   3.851
 4808WAT      O14665   7.657   8.811   1.178
 4808WAT     H114666   7.667   8.782   1.274
 4808WAT     H214667   7.721   8.759   1.122
 4809WAT      O14668   7.567   5.597   1.924
 4809WAT     H114669   7.499   5.579   1.853
 4809WAT     H214670   7.528   5.657   1.994
 4810WAT      O14671   1.966   4.867   2.659
 4810WAT     H114672   2.054   4.880   2.704
 4810WAT     H214673   1.893   4.866   2.727
 4811WAT      O14674   0.369   4.989   8.474
 4811WAT     H114675   0.327   4.963   8.387
 4811WAT     H214676   0.442   4.925   8.496
 4812WAT      O14677   3.427   5.393   8.603
 4812WAT     H114678   3.328   5.378   8.607
 4812WAT     H214679   3.445   5.488   8.575
 4813WAT      O14680   3.961   1.915   2.547
 4813WAT     H114681   3.905   1.894   2.467
 4813WAT     H214682   3.918   1.878   2.629
 4814WAT      O14683   1.442   2.447   0.367
 4814WAT     H114684   1.446   2.444   0.467
 4814WAT     H214685   1.423   2.355   0.332
 4815WAT      O14686   7.009   4.407   9.743
 4815WAT     H114687   7.057   4.495   9.746
 4815WAT     H214688   6.926   4.413   9.798
 4816WAT      O14689   7.697   5.884   5.046
 4816WAT     H114690   7.789   5.854   5.020
 4816WAT     H214691   7.632   5.854   4.976
 4817WAT      O14692   4.319   7.014   5.789
 4817WAT     H114693   4.359   6.946   5.851
 4817WAT     H214694   4.254   6.970   5.728
 4818WAT      O14695   6.895   1.604   5.264
 4818WAT     H114696   6.802   1.636   5.250
 4818WAT     H214697   6.895   1.532   5.334
 4819WAT      O14698   5.819   0.400   0.527
 4819WAT     H114699   5.730   0.437   0.500
 4819WAT     H214700   5.828   0.404   0.627
 4820WAT      O14701   6.192   9.626   6.778
 4820WAT     H114702   6.266   9.615   6.844
 4820WAT     H214703   6.126   9.694   6.812
 4821WAT      O14704   3.868   2.213   9.078
 4821WAT     H114705   3.915   2.219   8.990
 4821WAT     H214706   3.795   2.281   9.081
 4822WAT      O14707   1.032   2.497   0.490
 4822WAT     H114708   1.073   2.513   0.401
 4822WAT     H214709   0.994   2.405   0.494
 4823WAT      O14710   0.447   1.005   9.741
 4823WAT     H114711   0.508   1.060   9.797
 4823WAT     H214712   0.363   0.985   9.792
 4824WAT      O14713   9.328   4.041   0.748
 4824WAT     H114714   9.381   4.114   0.706
 4824WAT     H214715   9.384   3.958   0.754
 4825WAT      O14716   2.960   0.569   5.566
 4825WAT     H114717   2.953   0.475   5.533
 4825WAT     H214718   3.019   0.621   5.504
 4826WAT      O14719   2.837   9.561   4.434
 4826WAT     H114720   2.759   9.574   4.496
 4826WAT     H214721   2.914   9.521   4.485
 4827WAT      O14722   4.331   0.812   2.355
 4827WAT     H114723   4.339   0.771   2.446
 4827WAT     H214724   4.243   0.858   2.346
 4828WAT      O14725   8.175   4.560   3.652
 4828WAT     H114726   8.173   4.620   3.572
 4828WAT     H214727   8.234   4.599   3.722
 4829WAT      O14728   9.263   3.842   8.891
 4829WAT     H114729   9.287   3.782   8.815
 4829WAT     H214730   9.212   3.921   8.857
 4830WAT      O14731   1.467   1.589   8.433
 4830WAT     H114732   1.418   1.569   8.518
 4830WAT     H214733   1.419   1.662   8.385
 4831WAT      O14734   5.177   7.944   7.946
 4831WAT     H114735   5.180   7.844   7.942
 4831WAT     H214736   5.244   7.977   8.011
 4832WAT      O14737   0.401   7.582   0.052
 4832WAT     H114738   0.376   7.597  -0.043
 4832WAT     H214739   0.406   7.483   0.070
 4833WAT      O14740   0.972   0.152   7.157
 4833WAT     H114741   0.946   0.061   7.125
 4833WAT     H214742   1.072   0.160   7.159
 4834WAT      O14743   2.283   7.026   3.298
 4834WAT     H114744   2.300   7.052   3.203
 4834WAT     H214745   2.191   6.985   3.305
 4835WAT      O14746   4.672   9.254   0.724
 4835WAT     H114747   4.657   9.276   0.821
 4835WAT     H214748   4.675   9.339   0.671
 4836WAT      O14749   0.818   3.215   7.644
 4836WAT     H114750   0.834   3.260   7.556
 4836WAT     H214751   0.773   3.127   7.630
 4837WAT      O14752   3.613   3.535   1.255
 4837WAT     H114753   3.709   3.513   1.272
 4837WAT     H214754   3.556   3.455   1.276
 4838WAT      O14755   5.409   6.218   8.776
 4838WAT     H114756   5.372   6.230   8.868
 4838WAT     H214757   5.338   6.239   8.708
 4839WAT      O14758   0.427   8.283   5.258
 4839WAT     H114759   0.464   8.226   5.331
 4839WAT     H214760   0.375   8.359   5.298
 4840WAT      O14761   5.192   6.656   5.842
 4840WAT     H114762   5.205   6.725   5.771
 4840WAT     H214763   5.261   6.668   5.913
 4841WAT      O14764   9.073   1.912   5.000
 4841WAT     H114765   9.091   2.005   4.970
 4841WAT     H214766   9.094   1.848   4.926
 4842WAT      O14767   9.588   4.040   1.606
 4842WAT     H114768   9.533   4.029   1.689
 4842WAT     H214769   9.638   3.956   1.587
 4843WAT      O14770   9.209   1.554   3.636
 4843WAT     H114771   9.138   1.569   3.705
 4843WAT     H214772   9.224   1.638   3.585
 4844WAT      O14773   8.461   2.749   1.952
 4844WAT     H114774   8.531   2.815   1.980
 4844WAT     H214775   8.493   2.698   1.872
 4845WAT      O14776   1.374   2.976   5.981
 4845WAT     H114777   1.450   2.978   5.916
 4845WAT     H214778   1.409   2.993   6.073
 4846WAT      O14779   0.412   0.981   1.729
 4846WAT     H114780   0.335   1.020   1.779
 4846WAT     H214781   0.397   0.992   1.631
 4847WAT      O14782   0.589   7.731   8.739
 4847WAT     H114783   0.530   7.811   8.752
 4847WAT     H214784   0.577   7.696   8.646
 4848WAT      O14785   9.635   0.418   6.095
 4848WAT     H114786   9.727   0.424   6.057
 4848WAT     H214787   9.615   0.323   6.121
 4849WAT      O14788   3.872   1.475   6.770
 4849WAT     H114789   3.923   1.402   6.815
 4849WAT     H214790   3.794   1.437   6.722
 4850WAT      O14791   2.486   6.259   5.336
 4850WAT     H114792   2.586   6.261   5.335
 4850WAT     H214793   2.455   6.166   5.353
 4851WAT      O14794   7.987   8.313   9.193
 4851WAT     H114795   7.916   8.265   9.142
 4851WAT     H214796   7.960   8.319   9.289
 4852WAT      O14797   0.746   4.712   8.541
 4852WAT     H114798   0.801   4.789   8.572
 4852WAT     H214799   0.651   4.725   8.568
 4853WAT      O14800   8.311   2.014   3.498
 4853WAT     H114801   8.345   2.108   3.499
 4853WAT     H214802   8.259   1.997   3.415
 4854WAT      O14803   9.860   6.756   2.438
 4854WAT     H114804   9.881   6.676   2.494
 4854WAT     H214805   9.941   6.813   2.428
 4855WAT      O14806   4.830   7.706   3.245
 4855WAT     H114807   4.859   7.621   3.201
 4855WAT     H214808   4.813   7.775   3.176
 4856WAT      O14809   9.810   2.381   7.946
 4856WAT     H114810   9.803   2.376   8.045
 4856WAT     H214811   9.718   2.379   7.906
 4857WAT      O14812   5.652   5.077   1.825
 4857WAT     H114813   5.632   5.069   1.923
 4857WAT     H214814   5.695   4.994   1.793
 4858WAT      O14815   4.075   1.608   8.528
 4858WAT     H114816   4.027   1.682   8.574
 4858WAT     H214817   4.158   1.585   8.578
 4859WAT      O14818   3.405   0.048   5.515
 4859WAT     H114819   3.429  -0.035   5.565
 4859WAT     H214820   3.485   0.081   5.466
 4860WAT      O14821   5.510   9.430   2.422
 4860WAT     H114822   5.487   9.442   2.518
 4860WAT     H214823   5.602   9.392   2.413
 4861WAT      O14824   0.503   8.545   5.546
 4861WAT     H114825   0.425   8.582   5.597
 4861WAT     H214826   0.585   8.548   5.603
 4862WAT      O14827   9.661   3.525   9.038
 4862WAT     H114828   9.666   3.496   8.943
 4862WAT     H214829   9.701   3.455   9.097
 4863WAT      O14830   1.847   7.612   6.383
 4863WAT     H114831   1.806   7.566   6.305
 4863WAT     H214832   1.832   7.558   6.466
 4864WAT      O14833   8.763   8.829   4.459
 4864WAT     H114834   8.750   8.918   4.415
 4864WAT     H214835   8.767   8.758   4.389
 4865WAT      O14836   4.168   4.994   9.530
 4865WAT     H114837   4.220   4.965   9.450
 4865WAT     H214838   4.135   5.088   9.517
 4866WAT      O14839   2.705   2.513   4.847
 4866WAT     H114840   2.708   2.495   4.749
 4866WAT     H214841   2.793   2.552   4.877
 4867WAT      O14842   3.260   0.790   6.145
 4867WAT     H114843   3.311   0.867   6.106
 4867WAT     H214844   3.229   0.730   6.072
 4868WAT      O14845   4.108   2.509   0.759
 4868WAT     H114846   4.033   2.537   0.819
 4868WAT     H214847   4.083   2.426   0.710
 4869WAT      O14848   0.394   6.936   5.514
 4869WAT     H114849   0.398   7.029   5.475
 4869WAT     H214850   0.481   6.890   5.498
 4870WAT      O14851   0.746   3.275   8.073
 4870WAT     H114852   0.801   3.233   8.146
 4870WAT     H214853   0.806   3.316   8.005
 4871WAT      O14854   9.143   8.315   5.247
 4871WAT     H114855   9.196   8.318   5.163
 4871WAT     H214856   9.193   8.362   5.320
 4872WAT      O14857   3.639   4.530   9.178
 4872WAT     H114858   3.733   4.525   9.212
 4872WAT     H214859   3.608   4.625   9.178
 4873WAT      O14860   3.753   9.504   0.906
 4873WAT     H114861   3.812   9.553   0.969
 4873WAT     H214862   3.754   9.406   0.927
 4874WAT      O14863   6.398   9.109   6.589
 4874WAT     H114864   6.457   9.176   6.634
 4874WAT     H214865   6.321   9.156   6.546
 4875WAT      O14866   6.821   5.104   7.820
 4875WAT     H114867   6.806   5.111   7.918
 4875WAT     H214868   6.862   5.015   7.799
 4876WAT      O14869   3.010   7.548   0.307
 4876WAT     H114870   3.062   7.501   0.379
 4876WAT     H214871   2.914   7.522   0.314
 4877WAT      O14872   9.554   1.220   1.412
 4877WAT     H114873   9.611   1.207   1.331
 4877WAT     H214874   9.508   1.134   1.434
 4878WAT      O14875   8.825   4.507   3.962
 4878WAT     H114876   8.749   4.568   3.985
 4878WAT     H214877   8.898   4.560   3.918
 4879WAT      O14878   5.629   5.263   2.733
 4879WAT     H114879   5.615   5.174   2.778
 4879WAT     H214880   5.646   5.333   2.802
 4880WAT      O14881   8.957   1.366   8.434
 4880WAT     H114882   8.986   1.273   8.457
 4880WAT     H214883   8.981   1.386   8.339
 4881WAT      O14884   2.801   7.471   4.576
 4881WAT     H114885   2.796   7.378   4.613
 4881WAT     H214886   2.713   7.497   4.537
 4882WAT      O14887   5.919   6.742   9.221
 4882WAT     H114888   5.848   6.736   9.291
 4882WAT     H214889   5.926   6.654   9.174
 4883WAT      O14890   7.826   0.166   8.173
 4883WAT     H114891   7.785   0.248   8.215
 4883WAT     H214892   7.867   0.110   8.245
 4884WAT      O14893   6.864   1.508   4.990
 4884WAT     H114894   6.796   1.435   4.982
 4884WAT     H214895   6.852   1.554   5.078
 4885WAT      O14896   4.139   9.509   0.353
 4885WAT     H114897   4.230   9.544   0.376
 4885WAT     H214898   4.070   9.567   0.396
 4886WAT      O14899   1.938   5.070   4.381
 4886WAT     H114900   1.938   4.997   4.449
 4886WAT     H214901   2.011   5.054   4.315
 4887WAT      O14902   3.653   5.085   4.515
 4887WAT     H114903   3.573   5.026   4.530
 4887WAT     H214904   3.629   5.180   4.537
 4888WAT      O14905   8.929   6.788   2.365
 4888WAT     H114906   8.888   6.706   2.404
 4888WAT     H214907   9.029   6.778   2.364
 4889WAT      O14908   3.348   6.741   1.806
 4889WAT     H114909   3.360   6.839   1.790
 4889WAT     H214910   3.277   6.728   1.875
 4890WAT      O14911   8.497   6.223   4.778
 4890WAT     H114912   8.588   6.255   4.749
 4890WAT     H214913   8.459   6.286   4.845
 4891WAT      O14914   2.218   1.840   7.886
 4891WAT     H114915   2.209   1.939   7.895
 4891WAT     H214916   2.142   1.804   7.831
 4892WAT      O14917   6.880   5.176   5.765
 4892WAT     H114918   6.943   5.253   5.749
 4892WAT     H214919   6.786   5.210   5.764
 4893WAT      O14920   9.414   1.798   2.371
 4893WAT     H114921   9.355   1.792   2.452
 4893WAT     H214922   9.405   1.714   2.317
 4894WAT      O14923   1.400   5.508   3.470
 4894WAT     H114924   1.362   5.463   3.389
 4894WAT     H214925   1.492   5.542   3.450
 4895WAT      O14926   6.045   3.648   5.419
 4895WAT     H114927   6.070   3.568   5.475
 4895WAT     H214928   5.990   3.711   5.474
 4896WAT      O14929   0.354   2.645   3.983
 4896WAT     H114930   0.259   2.619   3.962
 4896WAT     H214931   0.386   2.712   3.916
 4897WAT      O14932   9.655   5.376   8.277
 4897WAT     H114933   9.613   5.288   8.254
 4897WAT     H214934   9.641   5.395   8.374
 4898WAT      O14935   6.590   4.894   6.751
 4898WAT     H114936   6.650   4.927   6.677
 4898WAT     H214937   6.567   4.799   6.734
 4899WAT      O14938   8.559   6.879   7.460
 4899WAT     H114939   8.619   6.913   7.532
 4899WAT     H214940   8.484   6.826   7.502
 4900WAT      O14941   3.207   9.772   9.650
 4900WAT     H114942   3.216   9.742   9.555
 4900WAT     H214943   3.298   9.783   9.690
 4901WAT      O14944   4.491   9.731   9.431
 4901WAT     H114945   4.566   9.788   9.397
 4901WAT     H214946   4.411   9.789   9.450
 4902WAT      O14947   7.394   9.014   9.684
 4902WAT     H114948   7.345   8.953   9.746
 4902WAT     H214949   7.428   8.961   9.606
 4903WAT      O14950   6.525   6.549   9.786
 4903WAT     H114951   6.545   6.647   9.793
 4903WAT     H214952   6.471   6.521   9.865
 4904WAT      O14953   1.777   5.847   4.599
 4904WAT     H114954   1.839   5.860   4.522
 4904WAT     H214955   1.712   5.922   4.603
 4905WAT      O14956   3.550   3.462   8.303
 4905WAT     H114957   3.530   3.556   8.273
 4905WAT     H214958   3.470   3.404   8.287
 4906WAT      O14959   1.248   2.030   1.475
 4906WAT     H114960   1.271   1.950   1.530
 4906WAT     H214961   1.284   2.112   1.520
 4907WAT      O14962   1.701   3.255   3.129
 4907WAT     H114963   1.700   3.277   3.032
 4907WAT     H214964   1.771   3.184   3.146
 4908WAT      O14965   0.965   6.826   3.143
 4908WAT     H114966   1.044   6.776   3.179
 4908WAT     H214967   0.990   6.873   3.059
 4909WAT      O14968   3.435   7.111   2.793
 4909WAT     H114969   3.465   7.112   2.697
 4909WAT     H214970   3.390   7.024   2.812
 4910WAT      O14971   3.504   3.230   6.574
 4910WAT     H114972   3.438   3.229   6.649
 4910WAT     H214973   3.568   3.154   6.585
 4911WAT      O14974   3.375   4.126   8.392
 4911WAT     H114975   3.318   4.109   8.311
 4911WAT     H214976   3.392   4.040   8.440
 4912WAT      O14977   9.102   8.498   1.662
 4912WAT     H114978   9.051   8.584   1.656
 4912WAT     H214979   9.160   8.499   1.743
 4913WAT      O14980   8.474   6.272   6.711
 4913WAT     H114981   8.487   6.177   6.684
 4913WAT     H214982   8.434   6.323   6.635
 4914WAT      O14983   8.601   6.499   8.122
 4914WAT     H114984   8.628   6.551   8.203
 4914WAT     H214985   8.640   6.407   8.127
 4915WAT      O14986   3.729   7.161   6.202
 4915WAT     H114987   3.812   7.216   6.202
 4915WAT     H214988   3.660   7.204   6.260
 4916WAT      O14989   5.482   1.035   7.002
 4916WAT     H114990   5.454   0.975   7.077
 4916WAT     H214991   5.573   1.007   6.969
 4917WAT      O14992   5.466   5.391   8.324
 4917WAT     H114993   5.448   5.337   8.406
 4917WAT     H214994   5.483   5.329   8.247
 4918WAT      O14995   3.692   7.269   6.626
 4918WAT     H114996   3.765   7.278   6.559
 4918WAT     H214997   3.730   7.272   6.718
 4919WAT      O14998   3.191   3.124   5.006
 4919WAT     H114999   3.184   3.141   5.104
 4919WAT     H215000   3.221   3.208   4.960
 4920WAT      O15001   3.520   4.626   1.884
 4920WAT     H115002   3.586   4.611   1.810
 4920WAT     H215003   3.554   4.698   1.944
 4921WAT      O15004   7.086   6.822   0.497
 4921WAT     H115005   7.045   6.808   0.407
 4921WAT     H215006   7.034   6.891   0.547
 4922WAT      O15007   4.527   8.274   1.239
 4922WAT     H115008   4.509   8.235   1.330
 4922WAT     H215009   4.624   8.263   1.217
 4923WAT      O15010   5.134   1.369   1.457
 4923WAT     H115011   5.137   1.463   1.493
 4923WAT     H215012   5.151   1.304   1.531
 4924WAT      O15013   9.556   2.469   0.008
 4924WAT     H115014   9.495   2.415   0.067
 4924WAT     H215015   9.621   2.520   0.064
 4925WAT      O15016   2.112   4.929   9.107
 4925WAT     H115017   2.145   4.941   9.014
 4925WAT     H215018   2.034   4.989   9.123
 4926WAT      O15019   2.176   3.914   5.201
 4926WAT     H115020   2.199   4.004   5.164
 4926WAT     H215021   2.096   3.922   5.260
 4927WAT      O15022   0.168   8.681   5.053
 4927WAT     H115023   0.160   8.711   5.148
 4927WAT     H215024   0.254   8.715   5.014
 4928WAT      O15025   0.711   0.330   7.837
 4928WAT     H115026   0.728   0.324   7.935
 4928WAT     H215027   0.647   0.405   7.818
 4929WAT      O15028   9.751   2.074   0.039
 4929WAT     H115029   9.738   1.999   0.103
 4929WAT     H215030   9.748   2.161   0.088
 4930WAT      O15031   0.638   0.872   1.116
 4930WAT     H115032   0.689   0.943   1.165
 4930WAT     H215033   0.637   0.892   1.018
 4931WAT      O15034   8.726   2.536   4.523
 4931WAT     H115035   8.724   2.441   4.553
 4931WAT     H215036   8.698   2.595   4.598
 4932WAT      O15037   4.463   5.012   0.106
 4932WAT     H115038   4.440   4.927   0.153
 4932WAT     H215039   4.383   5.046   0.058
 4933WAT      O15040   2.063   8.832   9.269
 4933WAT     H115041   2.045   8.750   9.324
 4933WAT     H215042   2.032   8.815   9.175
 4934WAT      O15043   7.648   2.283   3.103
 4934WAT     H115044   7.737   2.237   3.103
 4934WAT     H215045   7.653   2.365   3.045
 4935WAT      O15046   6.116   8.300   2.902
 4935WAT     H115047   6.110   8.282   3.000
 4935WAT     H215048   6.210   8.290   2.872
 4936WAT      O15049   6.456   0.721   4.295
 4936WAT     H115050   6.417   0.659   4.363
 4936WAT     H215051   6.548   0.748   4.324
 4937WAT      O15052   3.137   8.707   8.597
 4937WAT     H115053   3.058   8.764   8.575
 4937WAT     H215054   3.114   8.611   8.580
 4938WAT      O15055   6.137   6.641   4.427
 4938WAT     H115056   6.114   6.737   4.445
 4938WAT     H215057   6.236   6.630   4.425
 4939WAT      O15058   7.242   2.553   7.099
 4939WAT     H115059   7.318   2.615   7.081
 4939WAT     H215060   7.204   2.572   7.190
 4940WAT      O15061   0.715   5.265   1.072
 4940WAT     H115062   0.659   5.292   1.149
 4940WAT     H215063   0.810   5.292   1.088
 4941WAT      O15064   4.937   3.634   6.597
 4941WAT     H115065   4.994   3.715   6.593
 4941WAT     H215066   4.886   3.624   6.511
 4942WAT      O15067   2.557   4.442   5.034
 4942WAT     H115068   2.605   4.412   4.951
 4942WAT     H215069   2.465   4.474   5.009
 4943WAT      O15070   6.267   0.783   7.863
 4943WAT     H115071   6.332   0.707   7.860
 4943WAT     H215072   6.255   0.812   7.958
 4944WAT      O15073   3.892   6.278   8.130
 4944WAT     H115074   3.908   6.375   8.153
 4944WAT     H215075   3.976   6.227   8.141
 4945WAT      O15076   9.440   3.975   9.528
 4945WAT     H115077   9.351   4.004   9.562
 4945WAT     H215078   9.437   3.878   9.505
 4946WAT      O15079   5.967   7.757   4.429
 4946WAT     H115080   5.888   7.802   4.386
 4946WAT     H215081   5.941   7.727   4.521
 4947WAT      O15082   7.429   7.581   6.711
 4947WAT     H115083   7.377   7.507   6.668
 4947WAT     H215084   7.369   7.659   6.727
 4948WAT      O15085   2.756   0.516   1.407
 4948WAT     H115086   2.689   0.543   1.477
 4948WAT     H215087   2.847   0.549   1.433
 4949WAT      O15088   9.016   7.659   0.112
 4949WAT     H115089   9.041   7.588   0.046
 4949WAT     H215090   9.092   7.723   0.124
 4950WAT      O15091   6.603   6.933   5.773
 4950WAT     H115092   6.606   6.941   5.873
 4950WAT     H215093   6.513   6.963   5.740
 4951WAT      O15094   2.939   7.568   7.881
 4951WAT     H115095   2.984   7.525   7.959
 4951WAT     H215096   2.983   7.655   7.860
 4952WAT      O15097   0.066   6.473   3.184
 4952WAT     H115098   0.162   6.452   3.163
 4952WAT     H215099   0.047   6.452   3.280
 4953WAT      O15100   4.346   0.168   2.307
 4953WAT     H115101   4.255   0.158   2.347
 4953WAT     H215102   4.361   0.264   2.282
 4954WAT      O15103   0.339   1.224   9.141
 4954WAT     H115104   0.402   1.173   9.082
 4954WAT     H215105   0.285   1.286   9.085
 4955WAT      O15106   8.343   4.595   0.627
 4955WAT     H115107   8.275   4.627   0.694
 4955WAT     H215108   8.432   4.635   0.648
 4956WAT      O15109   5.917   8.779   1.864
 4956WAT     H115110   5.868   8.832   1.795
 4956WAT     H215111   5.950   8.694   1.824
 4957WAT      O15112   7.737   3.975   1.589
 4957WAT     H115113   7.651   4.009   1.628
 4957WAT     H215114   7.719   3.934   1.500
 4958WAT      O15115   9.502   1.346   5.810
 4958WAT     H115116   9.481   1.392   5.724
 4958WAT     H215117   9.457   1.257   5.811
 4959WAT      O15118   9.325   2.036   7.014
 4959WAT     H115119   9.390   1.967   6.980
 4959WAT     H215120   9.279   2.079   6.937
 4960WAT      O15121   6.447   3.708   3.722
 4960WAT     H115122   6.390   3.637   3.764
 4960WAT     H215123   6.424   3.796   3.763
 4961WAT      O15124   0.470   0.980   3.760
 4961WAT     H115125   0.399   1.003   3.827
 4961WAT     H215126   0.519   1.064   3.735
 4962WAT      O15127   9.658   3.763   7.720
 4962WAT     H115128   9.624   3.809   7.801
 4962WAT     H215129   9.755   3.742   7.731
 4963WAT      O15130   4.408   9.580   2.658
 4963WAT     H115131   4.367   9.625   2.579
 4963WAT     H215132   4.396   9.481   2.650
 4964WAT      O15133   7.347   5.938   8.500
 4964WAT     H115134   7.384   5.897   8.416
 4964WAT     H215135   7.422   5.979   8.552
 4965WAT      O15136   6.441   5.164  -0.001
 4965WAT     H115137   6.382   5.212   0.065
 4965WAT     H215138   6.457   5.071   0.030
 4966WAT      O15139   6.961   3.645   0.250
 4966WAT     H115140   6.916   3.679   0.167
 4966WAT     H215141   6.916   3.560   0.279
 4967WAT      O15142   5.362   3.787   2.372
 4967WAT     H115143   5.388   3.790   2.275
 4967WAT     H215144   5.295   3.715   2.386
 4968WAT      O15145   8.978   3.874   1.133
 4968WAT     H115146   8.924   3.958   1.147
 4968WAT     H215147   9.060   3.896   1.080
 4969WAT      O15148   7.335   8.028   5.080
 4969WAT     H115149   7.389   8.112   5.085
 4969WAT     H215150   7.238   8.050   5.092
 4970WAT      O15151   7.259   8.742   4.256
 4970WAT     H115152   7.318   8.693   4.191
 4970WAT     H215153   7.266   8.699   4.346
 4971WAT      O15154   2.421   0.742   4.138
 4971WAT     H115155   2.389   0.831   4.172
 4971WAT     H215156   2.455   0.753   4.045
 4972WAT      O15157   7.908   9.315   1.839
 4972WAT     H115158   7.897   9.315   1.740
 4972WAT     H215159   7.852   9.388   1.879
 4973WAT      O15160   2.325   9.371   6.593
 4973WAT     H115161   2.246   9.335   6.642
 4973WAT     H215162   2.409   9.336   6.635
 4974WAT      O15163   0.809   9.176   5.405
 4974WAT     H115164   0.785   9.191   5.309
 4974WAT     H215165   0.779   9.255   5.459
 4975WAT      O15166   9.350   1.805   4.753
 4975WAT     H115167   9.329   1.892   4.709
 4975WAT     H215168   9.416   1.820   4.826
 4976WAT      O15169   3.283   9.642   1.676
 4976WAT     H115170   3.263   9.555   1.721
 4976WAT     H215171   3.295   9.714   1.745
 4977WAT      O15172   0.809   0.203   2.983
 4977WAT     H115173   0.823   0.293   3.024
 4977WAT     H215174   0.825   0.132   3.053
 4978WAT      O15175   0.894   8.076   4.000
 4978WAT     H115176   0.978   8.047   3.954
 4978WAT     H215177   0.890   8.036   4.091
 4979WAT      O15178   1.777   2.611   7.765
 4979WAT     H115179   1.752   2.635   7.859
 4979WAT     H215180   1.869   2.644   7.744
 4980WAT      O15181   4.089   5.007   2.654
 4980WAT     H115182   4.161   5.040   2.592
 4980WAT     H215183   4.051   5.085   2.705
 4981WAT      O15184   2.109   7.817   8.393
 4981WAT     H115185   2.048   7.895   8.393
 4981WAT     H215186   2.157   7.811   8.481
 4982WAT      O15187   5.986   8.089   2.772
 4982WAT     H115188   5.985   8.015   2.839
 4982WAT     H215189   6.061   8.153   2.793
 4983WAT      O15190   6.325   4.552   1.353
 4983WAT     H115191   6.333   4.458   1.322
 4983WAT     H215192   6.391   4.609   1.303
 4984WAT      O15193   9.712   3.834   8.394
 4984WAT     H115194   9.716   3.933   8.398
 4984WAT     H215195   9.621   3.805   8.364
 4985WAT      O15196   5.189   0.281   5.633
 4985WAT     H115197   5.162   0.217   5.705
 4985WAT     H215198   5.156   0.247   5.544
 4986WAT      O15199   9.041   1.556   2.210
 4986WAT     H115200   9.085   1.528   2.295
 4986WAT     H215201   8.949   1.519   2.205
 4987WAT      O15202   6.399   0.747   8.406
 4987WAT     H115203   6.339   0.822   8.433
 4987WAT     H215204   6.466   0.781   8.339
 4988WAT      O15205   9.159   1.680   4.284
 4988WAT     H115206   9.240   1.673   4.342
 4988WAT     H215207   9.127   1.774   4.283
 4989WAT      O15208   6.411   0.084   5.938
 4989WAT     H115209   6.438   0.009   5.998
 4989WAT     H215210   6.492   0.121   5.893
 4990WAT      O15211   2.779   2.000   0.828
 4990WAT     H115212   2.799   1.912   0.785
 4990WAT     H215213   2.864   2.050   0.842
 4991WAT      O15214   5.659   5.741   1.702
 4991WAT     H115215   5.674   5.644   1.723
 4991WAT     H215216   5.638   5.751   1.605
 4992WAT      O15217   7.828   5.860   1.766
 4992WAT     H115218   7.871   5.881   1.854
 4992WAT     H215219   7.848   5.765   1.741
 4993WAT      O15220   7.373   9.513   7.525
 4993WAT     H115221   7.427   9.450   7.581
 4993WAT     H215222   7.413   9.518   7.433
 4994WAT      O15223   9.652   0.999   6.033
 4994WAT     H115224   9.710   1.080   6.019
 4994WAT     H215225   9.710   0.921   6.057
 4995WAT      O15226   0.265   4.054   0.372
 4995WAT     H115227   0.180   4.092   0.409
 4995WAT     H215228   0.340   4.072   0.436
 4996WAT      O15229   0.328   2.032   4.675
 4996WAT     H115230   0.376   2.021   4.762
 4996WAT     H215231   0.327   2.129   4.650
 4997WAT      O15232   0.156   8.417   4.200
 4997WAT     H115233   0.228   8.483   4.220
 4997WAT     H215234   0.071   8.465   4.180
 4998WAT      O15235   6.062   4.074   1.811
 4998WAT     H115236   6.125   4.009   1.770
 4998WAT     H215237   6.097   4.167   1.799
 4999WAT      O15238   2.076   2.988   9.220
 4999WAT     H115239   2.042   3.014   9.310
 4999WAT     H215240   2.150   3.050   9.193
 5000WAT      O15241   2.446   2.226   4.978
 5000WAT     H115242   2.450   2.236   4.878
 5000WAT     H215243   2.482   2.309   5.021
 5001WAT      O15244   8.845   1.461   7.275
 5001WAT     H115245   8.901   1.544   7.274
 5001WAT     H215246   8.800   1.452   7.363
 5002WAT      O15247   9.788   0.907   8.634
 5002WAT     H115248   9.807   0.994   8.680
 5002WAT     H215249   9.858   0.840   8.659
 5003WAT      O15250   6.877   1.125   1.065
 5003WAT     H115251   6.790   1.128   1.115
 5003WAT     H215252   6.930   1.207   1.084
 5004WAT      O15253   1.496   6.686   8.470
 5004WAT     H115254   1.549   6.602   8.465
 5004WAT     H215255   1.548   6.761   8.430
 5005WAT      O15256   8.181   4.842   2.715
 5005WAT     H115257   8.082   4.839   2.703
 5005WAT     H215258   8.207   4.788   2.795
 5006WAT      O15259   9.616   8.241   8.532
 5006WAT     H115260   9.527   8.280   8.505
 5006WAT     H215261   9.642   8.169   8.468
 5007WAT      O15262   0.603   4.345   4.063
 5007WAT     H115263   0.674   4.302   4.007
 5007WAT     H215264   0.532   4.381   4.004
 5008WAT      O15265   3.139   6.595   7.686
 5008WAT     H115266   3.158   6.563   7.779
 5008WAT     H215267   3.050   6.641   7.685
 5009WAT      O15268   2.683   5.689   5.748
 5009WAT     H115269   2.745   5.746   5.801
 5009WAT     H215270   2.736   5.622   5.695
 5010WAT      O15271   3.590   4.020   5.282
 5010WAT     H115272   3.540   4.041   5.198
 5010WAT     H215273   3.526   4.009   5.358
 5011WAT      O15274   2.593   9.065   4.252
 5011WAT     H115275   2.550   9.013   4.325
 5011WAT     H215276   2.690   9.079   4.273
 5012WAT      O15277   9.276   5.616   2.223
 5012WAT     H115278   9.306   5.669   2.302
 5012WAT     H215279   9.179   5.593   2.233
 5013WAT      O15280   0.569   0.193   1.200
 5013WAT     H115281   0.593   0.162   1.292
 5013WAT     H215282   0.471   0.211   1.195
 5014WAT      O15283   0.840   6.229   5.577
 5014WAT     H115284   0.749   6.193   5.598
 5014WAT     H215285   0.863   6.301   5.643
 5015WAT      O15286   0.001   8.650   3.539
 5015WAT     H115287   0.100   8.640   3.537
 5015WAT     H215288  -0.041   8.563   3.510
 5016WAT      O15289   0.014   5.236   4.665
 5016WAT     H115290   0.065   5.266   4.585
 5016WAT     H215291  -0.036   5.152   4.643
 5017WAT      O15292   3.733   2.525   0.646
 5017WAT     H115293   3.798   2.500   0.574
 5017WAT     H215294   3.665   2.452   0.657
 5018WAT      O15295   5.996   6.948   0.644
 5018WAT     H115296   6.067   7.017   0.651
 5018WAT     H215297   5.910   6.985   0.680
 5019WAT      O15298   2.414   0.990   5.558
 5019WAT     H115299   2.409   1.071   5.500
 5019WAT     H215300   2.510   0.966   5.575
 5020WAT      O15301   2.163   6.209   7.276
 5020WAT     H115302   2.168   6.148   7.197
 5020WAT     H215303   2.078   6.261   7.273
 5021WAT      O15304   5.316   3.159   7.783
 5021WAT     H115305   5.332   3.157   7.684
 5021WAT     H215306   5.263   3.078   7.809
 5022WAT      O15307   1.563   5.227   2.258
 5022WAT     H115308   1.469   5.255   2.235
 5022WAT     H215309   1.603   5.292   2.322
 5023WAT      O15310   8.170   0.256   5.502
 5023WAT     H115311   8.230   0.177   5.510
 5023WAT     H215312   8.202   0.329   5.562
 5024WAT      O15313   4.132   0.056   9.748
 5024WAT     H115314   4.220   0.089   9.782
 5024WAT     H215315   4.116  -0.037   9.781
 5025WAT      O15316   3.914   3.213   0.076
 5025WAT     H115317   3.888   3.117   0.063
 5025WAT     H215318   3.909   3.261  -0.012
 5026WAT      O15319   7.980   4.038   0.521
 5026WAT     H115320   7.993   4.004   0.428
 5026WAT     H215321   7.914   3.980   0.569
 5027WAT      O15322   7.122   6.654   8.373
 5027WAT     H115323   7.141   6.605   8.458
 5027WAT     H215324   7.196   6.636   8.308
 5028WAT      O15325   9.349   8.280   9.553
 5028WAT     H115326   9.432   8.327   9.524
 5028WAT     H215327   9.320   8.216   9.483
 5029WAT      O15328   2.708   9.750   9.110
 5029WAT     H115329   2.707   9.664   9.161
 5029WAT     H215330   2.698   9.827   9.173
 5030WAT      O15331   4.235   8.917   2.269
 5030WAT     H115332   4.315   8.922   2.209
 5030WAT     H215333   4.259   8.867   2.352
 5031WAT      O15334   5.330   4.135   1.475
 5031WAT     H115335   5.370   4.111   1.387
 5031WAT     H215336   5.231   4.121   1.472
 5032WAT      O15337   4.013   5.605   2.473
 5032WAT     H115338   4.082   5.577   2.406
 5032WAT     H215339   4.029   5.559   2.560
 5033WAT      O15340   2.412   5.513   9.326
 5033WAT     H115341   2.431   5.576   9.251
 5033WAT     H215342   2.434   5.557   9.413
 5034WAT      O15343   8.132   6.827   7.643
 5034WAT     H115344   8.039   6.811   7.611
 5034WAT     H215345   8.134   6.817   7.743
 5035WAT      O15346   6.432   6.401   5.822
 5035WAT     H115347   6.522   6.370   5.789
 5035WAT     H215348   6.435   6.499   5.838
 5036WAT      O15349   2.940   8.051   4.588
 5036WAT     H115350   2.951   7.976   4.522
 5036WAT     H215351   2.859   8.034   4.644
 5037WAT      O15352   5.612   2.321   6.207
 5037WAT     H115353   5.647   2.228   6.196
 5037WAT     H215354   5.594   2.361   6.117
 5038WAT      O15355   8.435   2.539   0.151
 5038WAT     H115356   8.385   2.490   0.079
 5038WAT     H215357   8.455   2.632   0.120
 5039WAT      O15358   8.781   8.679   1.979
 5039WAT     H115359   8.743   8.586   1.979
 5039WAT     H215360   8.858   8.683   2.043
 5040WAT      O15361   6.087   4.378   5.278
 5040WAT     H115362   6.119   4.422   5.362
 5040WAT     H215363   6.147   4.302   5.256
 5041WAT      O15364   7.449   0.900   7.904
 5041WAT     H115365   7.357   0.868   7.927
 5041WAT     H215366   7.463   0.990   7.947
 5042WAT      O15367   6.965   6.779   0.268
 5042WAT     H115368   6.935   6.709   0.203
 5042WAT     H215369   6.987   6.863   0.218
 5043WAT      O15370   1.217   8.705   3.121
 5043WAT     H115371   1.225   8.800   3.152
 5043WAT     H215372   1.161   8.653   3.185
 5044WAT      O15373   5.583   5.288   1.236
 5044WAT     H115374   5.514   5.304   1.165
 5044WAT     H215375   5.617   5.194   1.228
 5045WAT      O15376   5.583   1.828   0.362
 5045WAT     H115377   5.554   1.736   0.387
 5045WAT     H215378   5.557   1.847   0.267
 5046WAT      O15379   3.128   1.976   1.354
 5046WAT     H115380   3.074   2.044   1.304
 5046WAT     H215381   3.072   1.895   1.372
 5047WAT      O15382   3.749   3.056   0.542
 5047WAT     H115383   3.784   3.111   0.466
 5047WAT     H215384   3.724   2.965   0.509
 5048WAT      O15385   0.682   2.674   8.173
 5048WAT     H115386   0.722   2.737   8.239
 5048WAT     H215387   0.695   2.709   8.080
 5049WAT      O15388   2.196   6.101   2.572
 5049WAT     H115389   2.155   6.191   2.587
 5049WAT     H215390   2.239   6.099   2.482
 5050WAT      O15391   2.166   7.306   8.900
 5050WAT     H115392   2.166   7.283   8.803
 5050WAT     H215393   2.143   7.224   8.954
 5051WAT      O15394   4.197   8.448   8.823
 5051WAT     H115395   4.199   8.375   8.892
 5051WAT     H215396   4.237   8.413   8.738
 5052WAT      O15397   3.330   8.569   4.581
 5052WAT     H115398   3.262   8.540   4.515
 5052WAT     H215399   3.361   8.490   4.634
 5053WAT      O15400   9.358   1.148   3.539
 5053WAT     H115401   9.387   1.232   3.585
 5053WAT     H215402   9.437   1.105   3.495
 5054WAT      O15403   0.884   4.587   4.674
 5054WAT     H115404   0.879   4.677   4.718
 5054WAT     H215405   0.913   4.519   4.741
 5055WAT      O15406   8.683   1.439   8.406
 5055WAT     H115407   8.677   1.522   8.350
 5055WAT     H215408   8.779   1.417   8.422
 5056WAT      O15409   3.792   4.495   5.676
 5056WAT     H115410   3.768   4.589   5.655
 5056WAT     H215411   3.820   4.448   5.593
 5057WAT      O15412   5.722   2.871   9.488
 5057WAT     H115413   5.664   2.889   9.567
 5057WAT     H215414   5.815   2.851   9.519
 5058WAT      O15415   0.812   5.407   4.138
 5058WAT     H115416   0.804   5.472   4.214
 5058WAT     H215417   0.902   5.414   4.096
 5059WAT      O15418   3.431   0.882   2.130
 5059WAT     H115419   3.486   0.799   2.124
 5059WAT     H215420   3.342   0.860   2.170
 5060WAT      O15421   3.260   4.746   8.240
 5060WAT     H115422   3.169   4.782   8.261
 5060WAT     H215423   3.323   4.821   8.220
 5061WAT      O15424   2.201   5.243   7.778
 5061WAT     H115425   2.298   5.266   7.788
 5061WAT     H215426   2.189   5.145   7.788
 5062WAT      O15427   3.748   4.667   0.369
 5062WAT     H115428   3.671   4.729   0.382
 5062WAT     H215429   3.794   4.653   0.457
 5063WAT      O15430   0.021   7.807   6.804
 5063WAT     H115431  -0.024   7.786   6.718
 5063WAT     H215432  -0.022   7.756   6.878
 5064WAT      O15433   2.344   0.386   6.546
 5064WAT     H115434   2.284   0.312   6.578
 5064WAT     H215435   2.359   0.376   6.447
 5065WAT      O15436   4.313   1.274   4.566
 5065WAT     H115437   4.324   1.195   4.507
 5065WAT     H215438   4.215   1.295   4.578
 5066WAT      O15439   0.970   4.282   4.622
 5066WAT     H115440   0.927   4.307   4.709
 5066WAT     H215441   0.899   4.258   4.556
 5067WAT      O15442   6.985   3.465   3.251
 5067WAT     H115443   7.048   3.491   3.177
 5067WAT     H215444   6.913   3.406   3.215
 5068WAT      O15445   7.231   4.642   2.876
 5068WAT     H115446   7.281   4.679   2.954
 5068WAT     H215447   7.192   4.717   2.822
 5069WAT      O15448   3.838   9.065   9.392
 5069WAT     H115449   3.897   9.073   9.472
 5069WAT     H215450   3.772   8.991   9.406
 5070WAT      O15451   4.336   9.175   6.898
 5070WAT     H115452   4.297   9.086   6.875
 5070WAT     H215453   4.305   9.203   6.988
 5071WAT      O15454   9.264   9.758   6.784
 5071WAT     H115455   9.310   9.812   6.713
 5071WAT     H215456   9.313   9.768   6.870
 5072WAT      O15457   2.229   4.775   3.603
 5072WAT     H115458   2.300   4.832   3.645
 5072WAT     H215459   2.215   4.804   3.508
 5073WAT      O15460   0.115   7.296   4.630
 5073WAT     H115461   0.031   7.269   4.677
 5073WAT     H215462   0.189   7.234   4.656
 5074WAT      O15463   0.585   6.231   9.014
 5074WAT     H115464   0.557   6.182   8.932
 5074WAT     H215465   0.654   6.177   9.063
 5075WAT      O15466   6.708   0.303   4.397
 5075WAT     H115467   6.806   0.285   4.396
 5075WAT     H215468   6.680   0.334   4.488
 5076WAT      O15469   6.374   5.468   7.588
 5076WAT     H115470   6.418   5.448   7.676
 5076WAT     H215471   6.440   5.454   7.514
 5077WAT      O15472   1.467   5.396   6.232
 5077WAT     H115473   1.386   5.339   6.219
 5077WAT     H215474   1.485   5.449   6.149
 5078WAT      O15475   8.587   0.870   2.680
 5078WAT     H115476   8.537   0.791   2.646
 5078WAT     H215477   8.681   0.867   2.645
 5079WAT      O15478   0.509   6.411   5.348
 5079WAT     H115479   0.459   6.496   5.363
 5079WAT     H215480   0.571   6.422   5.270
 5080WAT      O15481   1.405   9.073   8.399
 5080WAT     H115482   1.413   9.121   8.312
 5080WAT     H215483   1.367   9.135   8.468
 5081WAT      O15484   8.107   2.659   0.159
 5081WAT     H115485   8.036   2.592   0.139
 5081WAT     H215486   8.193   2.631   0.117
 5082WAT      O15487   2.603   2.081   0.479
 5082WAT     H115488   2.518   2.110   0.522
 5082WAT     H215489   2.583   2.021   0.402
 5083WAT      O15490   9.075   4.577   8.883
 5083WAT     H115491   9.022   4.494   8.903
 5083WAT     H215492   9.121   4.565   8.795
 5084WAT      O15493   1.882   7.852   8.103
 5084WAT     H115494   1.957   7.917   8.113
 5084WAT     H215495   1.910   7.778   8.042
 5085WAT      O15496   3.400   6.257   1.701
 5085WAT     H115497   3.462   6.194   1.654
 5085WAT     H215498   3.453   6.333   1.738
 5086WAT      O15499   3.242   7.895   8.606
 5086WAT     H115500   3.179   7.967   8.576
 5086WAT     H215501   3.216   7.808   8.563
 5087WAT      O15502   6.000   0.668   7.892
 5087WAT     H115503   6.079   0.720   7.859
 5087WAT     H215504   6.006   0.574   7.857
 5088WAT      O15505   3.298   1.820   7.592
 5088WAT     H115506   3.301   1.778   7.683
 5088WAT     H215507   3.343   1.760   7.526
 5089WAT      O15508   6.661   5.186   6.067
 5089WAT     H115509   6.690   5.280   6.053
 5089WAT     H215510   6.589   5.163   6.002
 5090WAT      O15511   2.734   1.469   2.060
 5090WAT     H115512   2.673   1.425   2.126
 5090WAT     H215513   2.826   1.431   2.070
 5091WAT      O15514   6.248   1.520   2.861
 5091WAT     H115515   6.225   1.614   2.885
 5091WAT     H215516   6.342   1.501   2.889
 5092WAT      O15517   4.018   0.415   1.931
 5092WAT     H115518   3.918   0.419   1.927
 5092WAT     H215519   4.055   0.433   1.839
 5093WAT      O15520   8.125   7.734   8.900
 5093WAT     H115521   8.186   7.677   8.846
 5093WAT     H215522   8.031   7.702   8.890
 5094WAT      O15523   0.029   6.416   3.823
 5094WAT     H115524   0.127   6.395   3.828
 5094WAT     H215525  -0.024   6.332   3.839
 5095WAT      O15526   0.763   9.210   3.842
 5095WAT     H115527   0.797   9.226   3.749
 5095WAT     H215528   0.693   9.139   3.840
 5096WAT      O15529   2.890   3.872   0.613
 5096WAT     H115530   2.890   3.912   0.705
 5096WAT     H215531   2.805   3.897   0.566
 5097WAT      O15532   5.721   2.574   5.282
 5097WAT     H115533   5.815   2.539   5.281
 5097WAT     H215534   5.712   2.644   5.211
 5098WAT      O15535   8.658   4.374   4.311
 5098WAT     H115536   8.604   4.386   4.394
 5098WAT     H215537   8.619   4.430   4.238
 5099WAT      O15538   8.777   5.814   4.946
 5099WAT     H115539   8.721   5.823   4.864
 5099WAT     H215540   8.873   5.825   4.923
 5100WAT      O15541   7.845   0.662   8.930
 5100WAT     H115542   7.748   0.639   8.922
 5100WAT     H215543   7.882   0.621   9.013
 5101WAT      O15544   0.109   3.479   3.767
 5101WAT     H115545   0.175   3.429   3.823
 5101WAT     H215546   0.134   3.575   3.763
 5102WAT      O15547   3.647   4.329   8.844
 5102WAT     H115548   3.586   4.282   8.781
 5102WAT     H215549   3.704   4.394   8.793
 5103WAT      O15550   1.664   7.013   4.805
 5103WAT     H115551   1.580   7.056   4.773
 5103WAT     H215552   1.698   7.062   4.885
 5104WAT      O15553   9.691   7.733   3.605
 5104WAT     H115554   9.723   7.742   3.511
 5104WAT     H215555   9.720   7.644   3.642
 5105WAT      O15556   5.109   3.006   8.901
 5105WAT     H115557   5.038   3.073   8.920
 5105WAT     H215558   5.188   3.023   8.960
 5106WAT      O15559   2.951   4.813   4.671
 5106WAT     H115560   2.987   4.774   4.586
 5106WAT     H215561   2.900   4.742   4.720
 5107WAT      O15562   9.608   0.589   7.044
 5107WAT     H115563   9.524   0.634   7.015
 5107WAT     H215564   9.680   0.605   6.977
 5108WAT      O15565   0.869   5.977   6.320
 5108WAT     H115566   0.857   5.997   6.417
 5108WAT     H215567   0.954   6.018   6.288
 5109WAT      O15568   1.181   6.079   8.745
 5109WAT     H115569   1.106   6.088   8.681
 5109WAT     H215570   1.238   6.161   8.742
 5110WAT      O15571   1.564   4.792   7.265
 5110WAT     H115572   1.521   4.726   7.327
 5110WAT     H215573   1.499   4.815   7.192
 5111WAT      O15574   9.226   0.308   4.686
 5111WAT     H115575   9.267   0.226   4.645
 5111WAT     H215576   9.296   0.357   4.739
 5112WAT      O15577   6.387   4.765   9.120
 5112WAT     H115578   6.296   4.725   9.132
 5112WAT     H215579   6.448   4.696   9.080
 5113WAT      O15580   2.092   3.721   3.881
 5113WAT     H115581   2.114   3.639   3.935
 5113WAT     H215582   2.149   3.722   3.799
 5114WAT      O15583   1.855   0.865   7.075
 5114WAT     H115584   1.828   0.769   7.075
 5114WAT     H215585   1.910   0.884   7.156
 5115WAT      O15586   5.703   0.926   2.600
 5115WAT     H115587   5.654   0.991   2.543
 5115WAT     H215588   5.644   0.898   2.676
 5116WAT      O15589   8.993   9.534   8.394
 5116WAT     H115590   9.028   9.490   8.476
 5116WAT     H215591   8.911   9.486   8.362
 5117WAT      O15592   2.619   3.745   2.235
 5117WAT     H115593   2.615   3.711   2.142
 5117WAT     H215594   2.710   3.784   2.253
 5118WAT      O15595   5.442   5.587   4.162
 5118WAT     H115596   5.421   5.520   4.232
 5118WAT     H215597   5.358   5.617   4.117
 5119WAT      O15598   5.066   2.094   7.924
 5119WAT     H115599   5.002   2.062   7.854
 5119WAT     H215600   5.020   2.094   8.013
 5120WAT      O15601   4.277   8.597   9.043
 5120WAT     H115602   4.227   8.541   8.977
 5120WAT     H215603   4.327   8.537   9.106
 5121WAT      O15604   3.924   2.216   7.647
 5121WAT     H115605   4.013   2.261   7.651
 5121WAT     H215606   3.879   2.223   7.736
 5122WAT      O15607   6.197   9.621   3.033
 5122WAT     H115608   6.241   9.589   2.949
 5122WAT     H215609   6.132   9.694   3.011
 5123WAT      O15610   5.553   4.661   8.156
 5123WAT     H115611   5.546   4.691   8.251
 5123WAT     H215612   5.648   4.669   8.126
 5124WAT      O15613   1.044   3.354   2.753
 5124WAT     H115614   1.137   3.373   2.722
 5124WAT     H215615   1.009   3.433   2.803
 5125WAT      O15616   1.978   0.373   1.497
 5125WAT     H115617   2.070   0.398   1.464
 5125WAT     H215618   1.967   0.274   1.492
 5126WAT      O15619   8.510   0.403   7.431
 5126WAT     H115620   8.501   0.436   7.337
 5126WAT     H215621   8.445   0.329   7.446
 5127WAT      O15622   9.771   4.370   8.632
 5127WAT     H115623   9.712   4.398   8.557
 5127WAT     H215624   9.772   4.441   8.703
 5128WAT      O15625   5.395   4.413   4.191
 5128WAT     H115626   5.435   4.326   4.165
 5128WAT     H215627   5.298   4.414   4.165
 5129WAT      O15628   2.066   5.677   2.964
 5129WAT     H115629   2.035   5.735   3.039
 5129WAT     H215630   2.077   5.583   2.997
 5130WAT      O15631   4.897   4.019   7.179
 5130WAT     H115632   4.841   3.954   7.128
 5130WAT     H215633   4.974   3.970   7.221
 5131WAT      O15634   3.184   1.682   6.741
 5131WAT     H115635   3.091   1.718   6.754
 5131WAT     H215636   3.217   1.643   6.827
 5132WAT      O15637   5.714   1.889   8.439
 5132WAT     H115638   5.761   1.826   8.376
 5132WAT     H215639   5.780   1.954   8.477
 5133WAT      O15640   5.520   0.883   3.994
 5133WAT     H115641   5.508   0.894   4.093
 5133WAT     H215642   5.550   0.970   3.954
 5134WAT      O15643   0.817   5.812   9.388
 5134WAT     H115644   0.885   5.882   9.409
 5134WAT     H215645   0.858   5.722   9.399
 5135WAT      O15646   0.187   7.111   3.485
 5135WAT     H115647   0.213   7.082   3.577
 5135WAT     H215648   0.091   7.138   3.484
 5136WAT      O15649   3.936   2.820   3.804
 5136WAT     H115650   3.852   2.863   3.835
 5136WAT     H215651   3.967   2.752   3.871
 5137WAT      O15652   5.143   0.483   3.432
 5137WAT     H115653   5.210   0.523   3.370
 5137WAT     H215654   5.188   0.421   3.495
 5138WAT      O15655   2.862   2.986   2.162
 5138WAT     H115656   2.794   3.054   2.190
 5138WAT     H215657   2.825   2.894   2.177
 5139WAT      O15658   7.010   1.895   9.644
 5139WAT     H115659   7.058   1.870   9.560
 5139WAT     H215660   7.012   1.995   9.655
 5140WAT      O15661   0.924   4.765   6.912
 5140WAT     H115662   0.860   4.703   6.869
 5140WAT     H215663   0.984   4.714   6.974
 5141WAT      O15664   3.642   2.303   4.981
 5141WAT     H115665   3.642   2.321   5.080
 5141WAT     H215666   3.569   2.238   4.959
 5142WAT      O15667   2.377   2.677   9.703
 5142WAT     H115668   2.285   2.700   9.673
 5142WAT     H215669   2.372   2.619   9.785
 5143WAT      O15670   8.418   1.811   9.525
 5143WAT     H115671   8.507   1.830   9.484
 5143WAT     H215672   8.404   1.870   9.604
 5144WAT      O15673   8.728   5.555   0.981
 5144WAT     H115674   8.672   5.638   0.967
 5144WAT     H215675   8.756   5.549   1.076
 5145WAT      O15676   3.240   2.415   4.681
 5145WAT     H115677   3.262   2.358   4.602
 5145WAT     H215678   3.180   2.490   4.652
 5146WAT      O15679   8.826   2.760   7.533
 5146WAT     H115680   8.829   2.678   7.475
 5146WAT     H215681   8.785   2.835   7.481
 5147WAT      O15682   2.103   7.986   8.673
 5147WAT     H115683   2.038   8.043   8.622
 5147WAT     H215684   2.062   7.960   8.760
 5148WAT      O15685   2.090   0.468   5.893
 5148WAT     H115686   2.086   0.373   5.864
 5148WAT     H215687   2.000   0.510   5.882
 5149WAT      O15688   0.895   8.449   8.357
 5149WAT     H115689   0.822   8.418   8.418
 5149WAT     H215690   0.926   8.540   8.386
 5150WAT      O15691   1.928   8.643   2.414
 5150WAT     H115692   1.855   8.582   2.384
 5150WAT     H215693   1.916   8.733   2.372
 5151WAT      O15694   9.305   1.769   8.903
 5151WAT     H115695   9.339   1.711   8.977
 5151WAT     H215696   9.380   1.791   8.840
 5152WAT      O15697   5.247   4.580   8.755
 5152WAT     H115698   5.320   4.570   8.688
 5152WAT     H215699   5.272   4.535   8.840
 5153WAT      O15700   2.169   4.756   7.166
 5153WAT     H115701   2.195   4.668   7.207
 5153WAT     H215702   2.243   4.787   7.106
 5154WAT      O15703   5.465   4.651   0.559
 5154WAT     H115704   5.493   4.700   0.642
 5154WAT     H215705   5.431   4.716   0.492
 5155WAT      O15706   8.368   0.659   1.705
 5155WAT     H115707   8.340   0.612   1.789
 5155WAT     H215708   8.357   0.758   1.717
 5156WAT      O15709   2.712   7.097   7.109
 5156WAT     H115710   2.703   7.193   7.083
 5156WAT     H215711   2.720   7.040   7.027
 5157WAT      O15712   2.613   2.583   1.885
 5157WAT     H115713   2.643   2.521   1.812
 5157WAT     H215714   2.676   2.660   1.892
 5158WAT      O15715   6.011   4.381   7.799
 5158WAT     H115716   5.952   4.458   7.774
 5158WAT     H215717   6.057   4.346   7.717
 5159WAT      O15718   2.178   8.032   5.533
 5159WAT     H115719   2.102   7.975   5.502
 5159WAT     H215720   2.256   8.020   5.471
 5160WAT      O15721   2.757   0.450   1.057
 5160WAT     H115722   2.687   0.412   1.116
 5160WAT     H215723   2.738   0.547   1.040
 5161WAT      O15724   1.972   1.819   6.557
 5161WAT     H115725   1.995   1.838   6.461
 5161WAT     H215726   2.043   1.858   6.616
 5162WAT      O15727  -0.000   9.061   8.388
 5162WAT     H115728   0.077   9.020   8.437
 5162WAT     H215729  -0.014   9.155   8.420
 5163WAT      O15730   8.301   6.038   1.074
 5163WAT     H115731   8.310   6.137   1.087
 5163WAT     H215732   8.388   5.994   1.097
 5164WAT      O15733   5.997   3.682   3.407
 5164WAT     H115734   5.931   3.739   3.357
 5164WAT     H215735   6.046   3.624   3.343
 5165WAT      O15736   3.203   4.102   1.846
 5165WAT     H115737   3.228   4.110   1.942
 5165WAT     H215738   3.274   4.051   1.797
 5166WAT      O15739   4.963   1.121   9.430
 5166WAT     H115740   4.932   1.028   9.410
 5166WAT     H215741   4.903   1.162   9.499
 5167WAT      O15742   0.038   9.589   2.180
 5167WAT     H115743   0.066   9.677   2.217
 5167WAT     H215744   0.118   9.537   2.150
 5168WAT      O15745   8.683   9.502   8.761
 5168WAT     H115746   8.677   9.438   8.838
 5168WAT     H215747   8.778   9.530   8.748
 5169WAT      O15748   9.481   6.919   4.694
 5169WAT     H115749   9.496   6.850   4.765
 5169WAT     H215750   9.443   7.001   4.736
 5170WAT      O15751   3.229   0.934   4.222
 5170WAT     H115752   3.155   0.874   4.252
 5170WAT     H215753   3.192   1.024   4.198
 5171WAT      O15754   0.086   5.052   6.984
 5171WAT     H115755   0.069   5.116   6.909
 5171WAT     H215756   0.013   5.059   7.052
 5172WAT      O15757   2.782   2.781   2.706
 5172WAT     H115758   2.872   2.744   2.728
 5172WAT     H215759   2.729   2.713   2.655
 5173WAT      O15760   6.500   6.674   1.867
 5173WAT     H115761   6.511   6.606   1.794
 5173WAT     H215762   6.589   6.714   1.889
 5174WAT      O15763   8.493   3.213   7.350
 5174WAT     H115764   8.437   3.141   7.311
 5174WAT     H215765   8.493   3.206   7.450
 5175WAT      O15766   9.170   6.964   2.226
 5175WAT     H115767   9.181   6.901   2.302
 5175WAT     H215768   9.112   7.041   2.253
 5176WAT      O15769   3.181   5.755   3.139
 5176WAT     H115770   3.231   5.806   3.209
 5176WAT     H215771   3.219   5.776   3.049
 5177WAT      O15772   3.159   5.393   1.122
 5177WAT     H115773   3.197   5.406   1.030
 5177WAT     H215774   3.232   5.397   1.190
 5178WAT      O15775   3.058   1.413   3.571
 5178WAT     H115776   3.016   1.322   3.565
 5178WAT     H215777   3.067   1.452   3.479
 5179WAT      O15778   1.604   0.147   2.776
 5179WAT     H115779   1.529   0.097   2.733
 5179WAT     H215780   1.616   0.114   2.870
 5180WAT      O15781   8.223   1.569   0.891
 5180WAT     H115782   8.149   1.544   0.829
 5180WAT     H215783   8.242   1.492   0.952
 5181WAT      O15784   3.454   5.277   1.033
 5181WAT     H115785   3.387   5.324   0.976
 5181WAT     H215786   3.409   5.202   1.082
 5182WAT      O15787   8.742   7.432   1.873
 5182WAT     H115788   8.798   7.444   1.954
 5182WAT     H215789   8.653   7.475   1.887
 5183WAT      O15790   6.777   9.056   7.896
 5183WAT     H115791   6.758   9.031   7.801
 5183WAT     H215792   6.876   9.055   7.911
 5184WAT      O15793   4.692   2.046   5.172
 5184WAT     H115794   4.730   2.133   5.140
 5184WAT     H215795   4.703   1.977   5.101
 5185WAT      O15796   9.399   0.429   8.486
 5185WAT     H115797   9.320   0.369   8.473
 5185WAT     H215798   9.424   0.470   8.398
 5186WAT      O15799   0.407   8.580   5.945
 5186WAT     H115800   0.502   8.587   5.977
 5186WAT     H215801   0.345   8.611   6.018
 5187WAT      O15802   3.775   5.524   6.870
 5187WAT     H115803   3.752   5.607   6.819
 5187WAT     H215804   3.853   5.542   6.929
 5188WAT      O15805   4.996   3.250   3.378
 5188WAT     H115806   4.965   3.176   3.317
 5188WAT     H215807   5.042   3.210   3.458
 5189WAT      O15808   7.177   6.151   1.253
 5189WAT     H115809   7.238   6.225   1.226
 5189WAT     H215810   7.226   6.064   1.249
 5190WAT      O15811   3.492   6.814   3.661
 5190WAT     H115812   3.583   6.846   3.637
 5190WAT     H215813   3.481   6.719   3.634
 5191WAT      O15814   0.389   7.982   0.251
 5191WAT     H115815   0.311   8.014   0.198
 5191WAT     H215816   0.467   8.043   0.235
 5192WAT      O15817   1.138   4.067   2.488
 5192WAT     H115818   1.203   3.992   2.503
 5192WAT     H215819   1.045   4.031   2.488
 5193WAT      O15820   5.004   3.453   1.976
 5193WAT     H115821   4.996   3.497   1.887
 5193WAT     H215822   5.009   3.523   2.047
 5194WAT      O15823   8.912   4.209   7.215
 5194WAT     H115824   8.995   4.237   7.167
 5194WAT     H215825   8.933   4.191   7.311
 5195WAT      O15826   6.541   9.157   8.790
 5195WAT     H115827   6.574   9.135   8.699
 5195WAT     H215828   6.472   9.230   8.784
 5196WAT      O15829   0.410   7.039   3.323
 5196WAT     H115830   0.334   7.056   3.386
 5196WAT     H215831   0.461   7.124   3.309
 5197WAT      O15832   5.043   5.546   0.928
 5197WAT     H115833   5.035   5.602   1.010
 5197WAT     H215834   4.973   5.475   0.928
 5198WAT      O15835   5.464   7.756   3.415
 5198WAT     H115836   5.551   7.727   3.455
 5198WAT     H215837   5.416   7.814   3.480
 5199WAT      O15838   9.159   8.687   5.301
 5199WAT     H115839   9.186   8.763   5.360
 5199WAT     H215840   9.215   8.607   5.324
 5200WAT      O15841   2.035   6.167   8.887
 5200WAT     H115842   2.014   6.240   8.951
 5200WAT     H215843   2.124   6.128   8.909
 5201WAT      O15844   5.236   1.793   3.189
 5201WAT     H115845   5.194   1.818   3.276
 5201WAT     H215846   5.191   1.842   3.114
 5202WAT      O15847   7.996   2.893   0.738
 5202WAT     H115848   7.925   2.823   0.740
 5202WAT     H215849   8.083   2.851   0.714
 5203WAT      O15850   7.675   1.787   9.426
 5203WAT     H115851   7.764   1.743   9.416
 5203WAT     H215852   7.647   1.826   9.338
 5204WAT      O15853   6.780   8.068   2.180
 5204WAT     H115854   6.777   8.046   2.278
 5204WAT     H215855   6.864   8.120   2.160
 5205WAT      O15856   9.112   7.381   0.562
 5205WAT     H115857   9.112   7.283   0.581
 5205WAT     H215858   9.070   7.430   0.638
 5206WAT      O15859   3.903   0.531   3.820
 5206WAT     H115860   3.955   0.448   3.844
 5206WAT     H215861   3.956   0.612   3.847
 5207WAT      O15862   2.313   7.838   1.302
 5207WAT     H115863   2.219   7.834   1.269
 5207WAT     H215864   2.319   7.902   1.379
 5208WAT      O15865   7.220   9.468   1.856
 5208WAT     H115866   7.247   9.385   1.904
 5208WAT     H215867   7.298   9.503   1.805
 5209WAT      O15868   6.248   9.394   9.809
 5209WAT     H115869   6.334   9.410   9.759
 5209WAT     H215870   6.186   9.341   9.751
 5210WAT      O15871   1.818   1.511   6.805
 5210WAT     H115872   1.727   1.551   6.810
 5210WAT     H215873   1.817   1.436   6.739
 5211WAT      O15874   4.673   9.133   9.295
 5211WAT     H115875   4.723   9.106   9.212
 5211WAT     H215876   4.620   9.056   9.328
 5212WAT      O15877   0.431   7.087   9.443
 5212WAT     H115878   0.336   7.099   9.414
 5212WAT     H215879   0.478   7.026   9.380
 5213WAT      O15880   6.575   4.045   0.841
 5213WAT     H115881   6.602   4.020   0.748
 5213WAT     H215882   6.636   4.002   0.907
 5214WAT      O15883   8.833   6.811   8.327
 5214WAT     H115884   8.834   6.765   8.238
 5214WAT     H215885   8.739   6.816   8.360
 5215WAT      O15886   1.140   9.494   3.511
 5215WAT     H115887   1.147   9.395   3.523
 5215WAT     H215888   1.202   9.540   3.575
 5216WAT      O15889   4.296   4.464   2.842
 5216WAT     H115890   4.283   4.456   2.744
 5216WAT     H215891   4.366   4.398   2.872
 5217WAT      O15892   2.931   4.770   8.065
 5217WAT     H115893   2.992   4.697   8.033
 5217WAT     H215894   2.979   4.828   8.130
 5218WAT      O15895   8.849   1.339   1.138
 5218WAT     H115896   8.896   1.302   1.058
 5218WAT     H215897   8.781   1.406   1.109
 5219WAT      O15898   6.566   1.460   9.400
 5219WAT     H115899   6.575   1.370   9.443
 5219WAT     H215900   6.480   1.503   9.429
 5220WAT      O15901   2.483   9.396   7.697
 5220WAT     H115902   2.401   9.352   7.661
 5220WAT     H215903   2.482   9.493   7.673
 5221WAT      O15904   8.315   2.978   0.272
 5221WAT     H115905   8.228   2.972   0.321
 5221WAT     H215906   8.300   3.023   0.183
 5222WAT      O15907   2.154   2.836   1.502
 5222WAT     H115908   2.070   2.835   1.447
 5222WAT     H215909   2.150   2.762   1.569
 5223WAT      O15910   0.213   9.065   8.678
 5223WAT     H115911   0.221   9.030   8.585
 5223WAT     H215912   0.180   9.159   8.675
 5224WAT      O15913   8.339   7.454   5.629
 5224WAT     H115914   8.335   7.427   5.726
 5224WAT     H215915   8.377   7.379   5.575
 5225WAT      O15916   8.108   9.392   0.410
 5225WAT     H115917   8.050   9.358   0.336
 5225WAT     H215918   8.052   9.408   0.491
 5226WAT      O15919   2.016   3.232   1.377
 5226WAT     H115920   1.955   3.276   1.311
 5226WAT     H215921   2.010   3.279   1.465
 5227WAT      O15922   3.290   3.708   3.289
 5227WAT     H115923   3.378   3.717   3.242
 5227WAT     H215924   3.272   3.611   3.308
 5228WAT      O15925   6.329   1.269   6.468
 5228WAT     H115926   6.389   1.292   6.391
 5228WAT     H215927   6.320   1.348   6.528
 5229WAT      O15928   5.717   5.498   2.335
 5229WAT     H115929   5.740   5.528   2.428
 5229WAT     H215930   5.727   5.574   2.272
 5230WAT      O15931   4.788   2.792   7.185
 5230WAT     H115932   4.780   2.757   7.279
 5230WAT     H215933   4.717   2.750   7.128
 5231WAT      O15934   7.407   1.657   8.680
 5231WAT     H115935   7.419   1.708   8.595
 5231WAT     H215936   7.310   1.645   8.698
 5232WAT      O15937   2.191   8.535   7.879
 5232WAT     H115938   2.222   8.565   7.789
 5232WAT     H215939   2.270   8.521   7.939
 5233WAT      O15940   8.749   9.701   8.368
 5233WAT     H115941   8.754   9.799   8.389
 5233WAT     H215942   8.841   9.663   8.369
 5234WAT      O15943   7.378   5.945   2.784
 5234WAT     H115944   7.473   5.976   2.792
 5234WAT     H215945   7.373   5.867   2.723
 5235WAT      O15946   3.113   1.767   4.168
 5235WAT     H115947   3.044   1.833   4.138
 5235WAT     H215948   3.110   1.758   4.267
 5236WAT      O15949   9.099   9.644   2.741
 5236WAT     H115950   9.130   9.712   2.807
 5236WAT     H215951   9.006   9.665   2.712
 5237WAT      O15952   5.220   7.669   7.926
 5237WAT     H115953   5.314   7.681   7.893
 5237WAT     H215954   5.210   7.576   7.963
 5238WAT      O15955   4.446   3.049   8.011
 5238WAT     H115956   4.522   3.021   8.070
 5238WAT     H215957   4.420   2.973   7.951
 5239WAT      O15958   7.976   7.347   8.121
 5239WAT     H115959   8.046   7.276   8.113
 5239WAT     H215960   8.010   7.433   8.083
 5240WAT      O15961   0.329   2.804   6.121
 5240WAT     H115962   0.338   2.720   6.067
 5240WAT     H215963   0.289   2.875   6.064
 5241WAT      O15964   3.457   1.892   5.868
 5241WAT     H115965   3.391   1.892   5.944
 5241WAT     H215966   3.469   1.798   5.835
 5242WAT      O15967   5.152   0.228   4.177
 5242WAT     H115968   5.089   0.275   4.240
 5242WAT     H215969   5.130   0.253   4.083
 5243WAT      O15970   6.890   6.090   7.819
 5243WAT     H115971   6.857   6.184   7.817
 5243WAT     H215972   6.812   6.027   7.812
 5244WAT      O15973   7.492   9.189   2.272
 5244WAT     H115974   7.510   9.222   2.180
 5244WAT     H215975   7.553   9.112   2.292
 5245WAT      O15976   7.354   6.991   4.784
 5245WAT     H115977   7.367   7.090   4.785
 5245WAT     H215978   7.265   6.969   4.824
 5246WAT      O15979   3.757   6.749   8.045
 5246WAT     H115980   3.791   6.685   7.976
 5246WAT     H215981   3.697   6.816   8.002
 5247WAT      O15982   7.068   8.050   5.097
 5247WAT     H115983   7.056   8.094   5.008
 5247WAT     H215984   6.978   8.022   5.131
 5248WAT      O15985   2.117   6.437   9.750
 5248WAT     H115986   2.171   6.388   9.681
 5248WAT     H215987   2.161   6.429   9.839
 5249WAT      O15988   8.363   0.082   3.138
 5249WAT     H115989   8.439   0.079   3.204
 5249WAT     H215990   8.298   0.153   3.165
 5250WAT      O15991   9.671   3.968   9.653
 5250WAT     H115992   9.734   4.040   9.623
 5250WAT     H215993   9.583   3.979   9.607
 5251WAT      O15994   6.971   9.692   0.887
 5251WAT     H115995   6.928   9.747   0.815
 5251WAT     H215996   6.905   9.626   0.923
 5252WAT      O15997   2.784   8.194   8.015
 5252WAT     H115998   2.754   8.228   8.104
 5252WAT     H215999   2.883   8.179   8.017
 5253WAT      O16000   7.661   6.882   5.145
 5253WAT     H116001   7.722   6.818   5.191
 5253WAT     H216002   7.715   6.948   5.093
 5254WAT      O16003   4.565   3.235   4.354
 5254WAT     H116004   4.629   3.310   4.373
 5254WAT     H216005   4.601   3.180   4.279
 5255WAT      O16006   9.042   0.923   4.534
 5255WAT     H116007   8.982   0.853   4.496
 5255WAT     H216008   9.065   0.989   4.463
 5256WAT      O16009   9.051   3.976   5.691
 5256WAT     H116010   9.043   3.979   5.791
 5256WAT     H216011   9.148   3.979   5.665
 5257WAT      O16012   7.608   1.099   0.626
 5257WAT     H116013   7.608   1.131   0.721
 5257WAT     H216014   7.690   1.133   0.580
 5258WAT      O16015   0.251   5.874   6.346
 5258WAT     H116016   0.183   5.913   6.284
 5258WAT     H216017   0.333   5.850   6.293
 5259WAT      O16018   7.459   9.032   8.619
 5259WAT     H116019   7.415   9.103   8.565
 5259WAT     H216020   7.493   9.071   8.705
 5260WAT      O16021   9.097   4.196   9.177
 5260WAT     H116022   9.176   4.243   9.218
 5260WAT     H216023   9.078   4.112   9.228
 5261WAT      O16024   4.206   1.082   5.093
 5261WAT     H116025   4.114   1.115   5.072
 5261WAT     H216026   4.210   1.049   5.187
 5262WAT      O16027   6.954   2.711   5.268
 5262WAT     H116028   6.924   2.709   5.173
 5262WAT     H216029   7.052   2.730   5.273
 5263WAT      O16030   5.676   2.255   7.999
 5263WAT     H116031   5.688   2.173   8.055
 5263WAT     H216032   5.709   2.335   8.049
 5264WAT      O16033   2.041   5.772   5.220
 5264WAT     H116034   1.950   5.801   5.248
 5264WAT     H216035   2.104   5.850   5.225
 5265WAT      O16036   0.734   2.445   3.512
 5265WAT     H116037   0.833   2.451   3.504
 5265WAT     H216038   0.707   2.456   3.608
 5266WAT      O16039   3.059   3.018   6.706
 5266WAT     H116040   3.149   2.987   6.737
 5266WAT     H216041   3.072   3.088   6.635
 5267WAT      O16042   3.391   4.718   4.646
 5267WAT     H116043   3.472   4.687   4.696
 5267WAT     H216044   3.381   4.817   4.658
 5268WAT      O16045   6.248   3.032   4.072
 5268WAT     H116046   6.249   2.946   4.122
 5268WAT     H216047   6.289   3.104   4.129
 5269WAT      O16048   4.132   3.695   1.177
 5269WAT     H116049   4.069   3.683   1.253
 5269WAT     H216050   4.226   3.686   1.210
 5270WAT      O16051   4.596   2.079   4.063
 5270WAT     H116052   4.578   2.100   3.967
 5270WAT     H216053   4.549   1.994   4.088
 5271WAT      O16054   7.195   7.345   2.205
 5271WAT     H116055   7.164   7.435   2.175
 5271WAT     H216056   7.143   7.317   2.285
 5272WAT      O16057   2.220   5.556   2.205
 5272WAT     H116058   2.217   5.549   2.106
 5272WAT     H216059   2.157   5.627   2.236
 5273WAT      O16060   6.404   6.584   9.117
 5273WAT     H116061   6.484   6.637   9.088
 5273WAT     H216062   6.346   6.640   9.175
 5274WAT      O16063   1.473   4.669   6.147
 5274WAT     H116064   1.432   4.736   6.085
 5274WAT     H216065   1.437   4.684   6.239
 5275WAT      O16066   7.139   6.772   3.350
 5275WAT     H116067   7.224   6.773   3.402
 5275WAT     H216068   7.140   6.693   3.288
 5276WAT      O16069   3.200   4.520   2.669
 5276WAT     H116070   3.191   4.444   2.734
 5276WAT     H216071   3.297   4.533   2.647
 5277WAT      O16072   5.065   5.909   2.679
 5277WAT     H116073   5.070   5.815   2.712
 5277WAT     H216074   4.973   5.945   2.695
 5278WAT      O16075   6.802   5.034   9.196
 5278WAT     H116076   6.706   5.019   9.174
 5278WAT     H216077   6.852   5.059   9.112
 5279WAT      O16078   4.749   6.186   7.456
 5279WAT     H116079   4.793   6.099   7.432
 5279WAT     H216080   4.673   6.204   7.394
 5280WAT      O16081   3.311   7.228   4.062
 5280WAT     H116082   3.285   7.279   4.144
 5280WAT     H216083   3.276   7.275   3.981
 5281WAT      O16084   8.392   6.375   0.423
 5281WAT     H116085   8.332   6.338   0.352
 5281WAT     H216086   8.349   6.457   0.461
 5282WAT      O16087   5.152   4.354   4.082
 5282WAT     H116088   5.117   4.377   3.991
 5282WAT     H216089   5.089   4.389   4.151
 5283WAT      O16090   3.693   2.966   6.274
 5283WAT     H116091   3.730   2.918   6.195
 5283WAT     H216092   3.763   2.973   6.345
 5284WAT      O16093   4.192   7.364   1.212
 5284WAT     H116094   4.156   7.457   1.202
 5284WAT     H216095   4.285   7.368   1.249
 5285WAT      O16096   0.382   4.072   7.138
 5285WAT     H116097   0.327   4.032   7.211
 5285WAT     H216098   0.325   4.085   7.057
 5286WAT      O16099   0.043   1.246   1.798
 5286WAT     H116100  -0.042   1.288   1.766
 5286WAT     H216101   0.121   1.290   1.754
 5287WAT      O16102   8.287   5.711   0.290
 5287WAT     H116103   8.303   5.635   0.227
 5287WAT     H216104   8.190   5.714   0.314
 5288WAT      O16105   7.541   8.668   6.890
 5288WAT     H116106   7.548   8.661   6.791
 5288WAT     H216107   7.458   8.717   6.914
 5289WAT      O16108   7.204   4.568   7.516
 5289WAT     H116109   7.148   4.647   7.489
 5289WAT     H216110   7.284   4.562   7.456
 5290WAT      O16111   8.589   9.381   3.817
 5290WAT     H116112   8.534   9.372   3.900
 5290WAT     H216113   8.533   9.419   3.744
 5291WAT      O16114   4.606   9.210   7.670
 5291WAT     H116115   4.651   9.147   7.733
 5291WAT     H216116   4.543   9.159   7.611
 5292WAT      O16117   3.974   7.930   1.448
 5292WAT     H116118   4.023   7.960   1.366
 5292WAT     H216119   3.934   8.009   1.493
 5293WAT      O16120   2.092   9.513   7.024
 5293WAT     H116121   2.175   9.562   6.999
 5293WAT     H216122   2.022   9.529   6.955
 5294WAT      O16123   4.572   3.026   9.398
 5294WAT     H116124   4.537   2.934   9.414
 5294WAT     H216125   4.562   3.049   9.301
 5295WAT      O16126   8.832   4.008   2.131
 5295WAT     H116127   8.836   4.078   2.202
 5295WAT     H216128   8.738   3.973   2.124
 5296WAT      O16129   6.084   9.090   8.756
 5296WAT     H116130   6.104   9.128   8.847
 5296WAT     H216131   6.073   9.165   8.691
 5297WAT      O16132   0.603   8.328   9.531
 5297WAT     H116133   0.663   8.381   9.472
 5297WAT     H216134   0.580   8.382   9.613
 5298WAT      O16135   3.150   8.576   3.680
 5298WAT     H116136   3.171   8.627   3.597
 5298WAT     H216137   3.228   8.517   3.704
 5299WAT      O16138   6.060   2.375   1.944
 5299WAT     H116139   6.112   2.305   1.895
 5299WAT     H216140   6.054   2.350   2.041
 5300WAT      O16141   7.496   4.670   3.307
 5300WAT     H116142   7.581   4.722   3.314
 5300WAT     H216143   7.453   4.661   3.397
 5301WAT      O16144   3.374   2.262   7.057
 5301WAT     H116145   3.285   2.300   7.081
 5301WAT     H216146   3.362   2.177   7.005
 5302WAT      O16147   7.538   1.183   6.915
 5302WAT     H116148   7.612   1.171   6.981
 5302WAT     H216149   7.517   1.280   6.906
 5303WAT      O16150   0.386   9.654   8.149
 5303WAT     H116151   0.463   9.591   8.151
 5303WAT     H216152   0.344   9.653   8.058
 5304WAT      O16153   6.440   6.588   2.187
 5304WAT     H116154   6.399   6.646   2.116
 5304WAT     H216155   6.518   6.635   2.228
 5305WAT      O16156   4.731   2.814   4.811
 5305WAT     H116157   4.805   2.775   4.756
 5305WAT     H216158   4.686   2.742   4.863
 5306WAT      O16159   0.133   6.216   4.577
 5306WAT     H116160   0.073   6.219   4.657
 5306WAT     H216161   0.125   6.127   4.532
 5307WAT      O16162   3.298   0.691   8.711
 5307WAT     H116163   3.370   0.740   8.760
 5307WAT     H216164   3.244   0.638   8.776
 5308WAT      O16165   6.167   2.438   4.734
 5308WAT     H116166   6.193   2.499   4.809
 5308WAT     H216167   6.157   2.490   4.650
 5309WAT      O16168   4.378   6.729   6.504
 5309WAT     H116169   4.450   6.666   6.475
 5309WAT     H216170   4.333   6.692   6.585
 5310WAT      O16171   8.420   6.097   7.338
 5310WAT     H116172   8.462   6.133   7.255
 5310WAT     H216173   8.326   6.069   7.318
 5311WAT      O16174   4.120   8.762   8.561
 5311WAT     H116175   4.111   8.744   8.659
 5311WAT     H216176   4.049   8.826   8.532
 5312WAT      O16177   8.509   1.734   2.233
 5312WAT     H116178   8.499   1.641   2.198
 5312WAT     H216179   8.580   1.782   2.181
 5313WAT      O16180   6.365   6.118   4.154
 5313WAT     H116181   6.436   6.066   4.107
 5313WAT     H216182   6.287   6.130   4.093
 5314WAT      O16183   7.067   2.811   9.139
 5314WAT     H116184   6.982   2.862   9.129
 5314WAT     H216185   7.065   2.731   9.079
 5315WAT      O16186   6.431   3.585   6.621
 5315WAT     H116187   6.505   3.628   6.673
 5315WAT     H216188   6.349   3.641   6.629
 5316WAT      O16189   9.553   6.089   5.232
 5316WAT     H116190   9.517   6.053   5.146
 5316WAT     H216191   9.606   6.019   5.279
 5317WAT      O16192   9.697   9.582   2.673
 5317WAT     H116193   9.754   9.664   2.668
 5317WAT     H216194   9.694   9.550   2.768
 5318WAT      O16195   8.320   9.057   8.128
 5318WAT     H116196   8.410   9.075   8.166
 5318WAT     H216197   8.281   8.975   8.170
 5319WAT      O16198   6.213   3.288   7.953
 5319WAT     H116199   6.191   3.359   8.020
 5319WAT     H216200   6.277   3.325   7.886
 5320WAT      O16201   0.372   0.970   7.090
 5320WAT     H116202   0.364   0.889   7.033
 5320WAT     H216203   0.281   0.999   7.120
 5321WAT      O16204   6.786   9.685   2.996
 5321WAT     H116205   6.707   9.625   3.009
 5321WAT     H216206   6.780   9.762   3.059
 5322WAT      O16207   4.446   5.054   2.248
 5322WAT     H116208   4.523   4.996   2.274
 5322WAT     H216209   4.438   5.054   2.148
 5323WAT      O16210   2.741   6.303   2.271
 5323WAT     H116211   2.780   6.212   2.285
 5323WAT     H216212   2.786   6.367   2.333
 5324WAT      O16213   2.824   5.130   1.592
 5324WAT     H116214   2.819   5.119   1.493
 5324WAT     H216215   2.732   5.139   1.630
 5325WAT      O16216   4.112   8.478   7.861
 5325WAT     H116217   4.144   8.402   7.804
 5325WAT     H216218   4.084   8.443   7.950
 5326WAT      O16219   6.003   3.155   3.622
 5326WAT     H116220   6.036   3.248   3.637
 5326WAT     H216221   5.932   3.156   3.552
 5327WAT      O16222   9.877   8.907   3.408
 5327WAT     H116223   9.917   8.991   3.445
 5327WAT     H216224   9.910   8.828   3.460
 5328WAT      O16225   5.544   5.991   4.149
 5328WAT     H116226   5.498   6.031   4.228
 5328WAT     H216227   5.593   5.909   4.177
 5329WAT      O16228   2.483   6.637   1.377
 5329WAT     H116229   2.448   6.587   1.298
 5329WAT     H216230   2.571   6.679   1.354
 5330WAT      O16231   7.386   2.339   3.169
 5330WAT     H116232   7.396   2.431   3.207
 5330WAT     H216233   7.474   2.308   3.131
 5331WAT      O16234   0.039   8.493   1.804
 5331WAT     H116235   0.078   8.567   1.748
 5331WAT     H216236   0.109   8.423   1.817
 5332WAT      O16237   6.507   9.595   3.991
 5332WAT     H116238   6.501   9.541   4.075
 5332WAT     H216239   6.415   9.625   3.964
 5333WAT      O16240   8.362   8.238   5.631
 5333WAT     H116241   8.281   8.194   5.593
 5333WAT     H216242   8.357   8.337   5.614
 5334WAT      O16243   3.235   0.669   2.869
 5334WAT     H116244   3.328   0.657   2.835
 5334WAT     H216245   3.204   0.585   2.913
 5335WAT      O16246   3.680   6.027   2.325
 5335WAT     H116247   3.584   6.055   2.332
 5335WAT     H216248   3.723   6.033   2.415
 5336WAT      O16249   6.787   6.122   7.110
 5336WAT     H116250   6.787   6.058   7.187
 5336WAT     H216251   6.876   6.122   7.066
 5337WAT      O16252   8.091   2.517   9.372
 5337WAT     H116253   8.153   2.532   9.449
 5337WAT     H216254   8.136   2.545   9.287
 5338WAT      O16255   3.577   1.893   7.767
 5338WAT     H116256   3.569   1.799   7.799
 5338WAT     H216257   3.579   1.955   7.845
 5339WAT      O16258   3.797   8.295   5.954
 5339WAT     H116259   3.888   8.325   5.926
 5339WAT     H216260   3.732   8.370   5.941
 5340WAT      O16261   3.734   0.598   7.944
 5340WAT     H116262   3.642   0.637   7.938
 5340WAT     H216263   3.783   0.615   7.858
 5341WAT      O16264   8.972   2.173   4.824
 5341WAT     H116265   9.028   2.214   4.752
 5341WAT     H216266   8.891   2.131   4.783
 5342WAT      O16267   3.491   0.725   1.736
 5342WAT     H116268   3.532   0.712   1.646
 5342WAT     H216269   3.483   0.822   1.756
 5343WAT      O16270   8.087   5.786   5.582
 5343WAT     H116271   8.137   5.700   5.574
 5343WAT     H216272   8.098   5.839   5.498
 5344WAT      O16273   2.308   0.854   4.422
 5344WAT     H116274   2.210   0.838   4.435
 5344WAT     H216275   2.320   0.921   4.348
 5345WAT      O16276   4.959   1.717   5.056
 5345WAT     H116277   4.912   1.633   5.084
 5345WAT     H216278   5.015   1.699   4.975
 5346WAT      O16279   7.619   9.168   9.122
 5346WAT     H116280   7.665   9.242   9.171
 5346WAT     H216281   7.526   9.156   9.158
 5347WAT      O16282   5.108   7.579   4.541
 5347WAT     H116283   5.124   7.616   4.633
 5347WAT     H216284   5.036   7.510   4.546
 5348WAT      O16285   7.116   9.758   2.336
 5348WAT     H116286   7.072   9.715   2.257
 5348WAT     H216287   7.106   9.699   2.416
 5349WAT      O16288   1.168   2.881   9.046
 5349WAT     H116289   1.201   2.975   9.048
 5349WAT     H216290   1.226   2.824   9.104
 5350WAT      O16291   2.575   5.783   1.204
 5350WAT     H116292   2.630   5.859   1.238
 5350WAT     H216293   2.554   5.720   1.280
 5351WAT      O16294   5.885   8.864   6.031
 5351WAT     H116295   5.807   8.919   6.057
 5351WAT     H216296   5.904   8.877   5.933
 5352WAT      O16297   8.048   5.260   4.362
 5352WAT     H116298   8.049   5.297   4.455
 5352WAT     H216299   8.142   5.256   4.326
 5353WAT      O16300   0.235   7.788   4.394
 5353WAT     H116301   0.182   7.750   4.318
 5353WAT     H216302   0.307   7.724   4.420
 5354WAT      O16303   6.662   1.539   8.692
 5354WAT     H116304   6.679   1.637   8.693
 5354WAT     H216305   6.722   1.494   8.758
 5355WAT      O16306   0.190   2.618   5.883
 5355WAT     H116307   0.113   2.594   5.943
 5355WAT     H216308   0.182   2.568   5.797
 5356WAT      O16309   1.707   0.200   5.772
 5356WAT     H116310   1.676   0.128   5.709
 5356WAT     H216311   1.628   0.236   5.821
 5357WAT      O16312   1.985   6.012   4.873
 5357WAT     H116313   2.066   6.052   4.830
 5357WAT     H216314   2.003   5.917   4.897
 5358WAT      O16315   2.086   0.677   8.388
 5358WAT     H116316   2.085   0.753   8.324
 5358WAT     H216317   1.998   0.629   8.384
 5359WAT      O16318   9.253   8.312   3.702
 5359WAT     H116319   9.266   8.216   3.727
 5359WAT     H216320   9.266   8.369   3.783
 5360WAT      O16321   2.386   5.733   2.551
 5360WAT     H116322   2.290   5.705   2.562
 5360WAT     H216323   2.443   5.681   2.614
 5361WAT      O16324   5.378   6.661   7.978
 5361WAT     H116325   5.324   6.744   7.993
 5361WAT     H216326   5.317   6.582   7.972
 5362WAT      O16327   6.786   1.045   7.272
 5362WAT     H116328   6.706   1.000   7.312
 5362WAT     H216329   6.769   1.143   7.265
 5363WAT      O16330   7.244   1.562   7.906
 5363WAT     H116331   7.281   1.625   7.974
 5363WAT     H216332   7.195   1.613   7.836
 5364WAT      O16333   3.272   1.936   5.652
 5364WAT     H116334   3.336   1.917   5.727
 5364WAT     H216335   3.179   1.922   5.684
 5365WAT      O16336   1.042   3.776   8.555
 5365WAT     H116337   0.959   3.816   8.595
 5365WAT     H216338   1.068   3.694   8.605
 5366WAT      O16339   5.834   6.483   5.639
 5366WAT     H116340   5.832   6.490   5.739
 5366WAT     H216341   5.750   6.520   5.601
 5367WAT      O16342   1.277   3.448   7.287
 5367WAT     H116343   1.283   3.428   7.385
 5367WAT     H216344   1.294   3.545   7.271
 5368WAT      O16345   3.215   2.379   8.259
 5368WAT     H116346   3.266   2.381   8.345
 5368WAT     H216347   3.129   2.331   8.272
 5369WAT      O16348   2.871   0.485   4.772
 5369WAT     H116349   2.906   0.438   4.853
 5369WAT     H216350   2.842   0.577   4.796
 5370WAT      O16351   2.629   7.389   9.591
 5370WAT     H116352   2.646   7.296   9.559
 5370WAT     H216353   2.546   7.424   9.548
 5371WAT      O16354   4.651   7.883   0.915
 5371WAT     H116355   4.616   7.876   1.009
 5371WAT     H216356   4.749   7.902   0.918
 5372WAT      O16357   3.147   3.188   0.508
 5372WAT     H116358   3.109   3.264   0.455
 5372WAT     H216359   3.109   3.102   0.473
 5373WAT      O16360   8.685   6.478   7.713
 5373WAT     H116361   8.648   6.441   7.627
 5373WAT     H216362   8.752   6.414   7.750
 5374WAT      O16363   7.139   4.854   8.934
 5374WAT     H116364   7.050   4.847   8.891
 5374WAT     H216365   7.155   4.948   8.963
 5375WAT      O16366   4.644   7.552   3.009
 5375WAT     H116367   4.639   7.622   2.938
 5375WAT     H216368   4.650   7.462   2.966
 5376WAT      O16369   7.048   0.780   9.624
 5376WAT     H116370   7.038   0.854   9.558
 5376WAT     H216371   7.102   0.811   9.702
 5377WAT      O16372   5.750   0.349   9.451
 5377WAT     H116373   5.711   0.399   9.528
 5377WAT     H216374   5.848   0.335   9.466
 5378WAT      O16375   4.859   3.193   1.638
 5378WAT     H116376   4.870   3.103   1.597
 5378WAT     H216377   4.784   3.241   1.593
 5379WAT      O16378   3.910   2.691   4.710
 5379WAT     H116379   3.919   2.647   4.621
 5379WAT     H216380   3.998   2.692   4.757
 5380WAT      O16381   5.064   6.500   9.383
 5380WAT     H116382   4.965   6.492   9.397
 5380WAT     H216383   5.100   6.413   9.350
 5381WAT      O16384   4.797   0.046   9.736
 5381WAT     H116385   4.852   0.006   9.663
 5381WAT     H216386   4.732   0.112   9.697
 5382WAT      O16387   1.086   5.915   6.904
 5382WAT     H116388   1.082   6.011   6.875
 5382WAT     H216389   1.069   5.856   6.825
 5383WAT      O16390   1.455   4.348   6.405
 5383WAT     H116391   1.487   4.439   6.431
 5383WAT     H216392   1.481   4.282   6.475
 5384WAT      O16393   1.049   1.646   0.600
 5384WAT     H116394   1.094   1.592   0.671
 5384WAT     H216395   1.070   1.606   0.510
 5385WAT      O16396   5.498   0.693   0.968
 5385WAT     H116397   5.490   0.655   0.876
 5385WAT     H216398   5.522   0.790   0.962
 5386WAT      O16399   9.480   3.989   7.096
 5386WAT     H116400   9.471   3.996   6.996
 5386WAT     H216401   9.400   4.031   7.139
 5387WAT      O16402   9.434   3.027   4.940
 5387WAT     H116403   9.461   2.937   4.974
 5387WAT     H216404   9.336   3.040   4.953
 5388WAT      O16405   2.231   7.275   1.629
 5388WAT     H116406   2.201   7.327   1.549
 5388WAT     H216407   2.159   7.212   1.657
 5389WAT      O16408   1.735   1.275   7.651
 5389WAT     H116409   1.669   1.221   7.702
 5389WAT     H216410   1.738   1.368   7.687
 5390WAT      O16411   8.905   4.261   1.565
 5390WAT     H116412   8.886   4.191   1.496
 5390WAT     H216413   8.982   4.232   1.623
 5391WAT      O16414   8.024   7.937   7.173
 5391WAT     H116415   8.090   7.938   7.098
 5391WAT     H216416   7.933   7.919   7.137
 5392WAT      O16417   5.996   6.829   6.286
 5392WAT     H116418   5.981   6.808   6.189
 5392WAT     H216419   6.080   6.786   6.317
 5393WAT      O16420   3.236   1.303   0.696
 5393WAT     H116421   3.331   1.325   0.673
 5393WAT     H216422   3.215   1.337   0.788
 5394WAT      O16423   0.774   3.181   3.610
 5394WAT     H116424   0.814   3.182   3.701
 5394WAT     H216425   0.846   3.165   3.542
 5395WAT      O16426   3.886   0.797   4.174
 5395WAT     H116427   3.909   0.736   4.249
 5395WAT     H216428   3.878   0.891   4.208
 5396WAT      O16429   1.689   6.049   8.841
 5396WAT     H116430   1.777   6.083   8.874
 5396WAT     H216431   1.688   5.949   8.844
 5397WAT      O16432   9.471   4.390   7.471
 5397WAT     H116433   9.475   4.360   7.566
 5397WAT     H216434   9.381   4.370   7.434
 5398WAT      O16435   3.472   8.791   7.701
 5398WAT     H116436   3.408   8.825   7.632
 5398WAT     H216437   3.421   8.747   7.775
 5399WAT      O16438   6.902   7.386   5.083
 5399WAT     H116439   6.939   7.331   5.008
 5399WAT     H216440   6.811   7.352   5.108
 5400WAT      O16441   4.149   7.626   1.155
 5400WAT     H116442   4.240   7.637   1.116
 5400WAT     H216443   4.088   7.696   1.119
 5401WAT      O16444   1.624   5.076   9.605
 5401WAT     H116445   1.625   5.165   9.560
 5401WAT     H216446   1.686   5.078   9.683
 5402WAT      O16447   9.183   6.684   6.948
 5402WAT     H116448   9.215   6.759   6.890
 5402WAT     H216449   9.116   6.629   6.898
 5403WAT      O16450   3.345   3.398   6.258
 5403WAT     H116451   3.300   3.341   6.189
 5403WAT     H216452   3.435   3.359   6.279
 5404WAT      O16453   0.424   3.334   4.795
 5404WAT     H116454   0.431   3.350   4.894
 5404WAT     H216455   0.457   3.242   4.774
 5405WAT      O16456   8.857   0.869   3.518
 5405WAT     H116457   8.835   0.958   3.478
 5405WAT     H216458   8.815   0.796   3.463
 5406WAT      O16459   0.831   2.266   4.216
 5406WAT     H116460   0.925   2.299   4.216
 5406WAT     H216461   0.801   2.250   4.122
 5407WAT      O16462   7.027   2.695   2.241
 5407WAT     H116463   7.029   2.604   2.282
 5407WAT     H216464   7.044   2.688   2.143
 5408WAT      O16465   8.813   5.896   5.828
 5408WAT     H116466   8.749   5.902   5.905
 5408WAT     H216467   8.894   5.952   5.847
 5409WAT      O16468   6.863   8.751   5.575
 5409WAT     H116469   6.869   8.835   5.520
 5409WAT     H216470   6.860   8.672   5.514
 5410WAT      O16471   2.777   2.173   1.604
 5410WAT     H116472   2.867   2.170   1.648
 5410WAT     H216473   2.737   2.081   1.604
 5411WAT      O16474   9.837   0.408   0.687
 5411WAT     H116475   9.748   0.369   0.661
 5411WAT     H216476   9.857   0.384   0.782
 5412WAT      O16477   9.013   1.040   0.317
 5412WAT     H116478   8.976   0.952   0.345
 5412WAT     H216479   8.958   1.114   0.356
 5413WAT      O16480   4.349   7.572   6.793
 5413WAT     H116481   4.448   7.584   6.804
 5413WAT     H216482   4.320   7.609   6.704
 5414WAT      O16483   2.885   5.169   2.224
 5414WAT     H116484   2.866   5.108   2.147
 5414WAT     H216485   2.955   5.128   2.282
 5415WAT      O16486   2.424   5.988   8.407
 5415WAT     H116487   2.512   5.941   8.400
 5415WAT     H216488   2.361   5.933   8.462
 5416WAT      O16489   2.006   5.836   6.858
 5416WAT     H116490   2.094   5.880   6.839
 5416WAT     H216491   2.003   5.746   6.814
 5417WAT      O16492   4.270   8.524   3.021
 5417WAT     H116493   4.307   8.590   2.955
 5417WAT     H216494   4.196   8.568   3.073
 5418WAT      O16495   9.361   6.441   1.949
 5418WAT     H116496   9.291   6.507   1.978
 5418WAT     H216497   9.318   6.354   1.928
 5419WAT      O16498   1.880   2.331   6.265
 5419WAT     H116499   1.834   2.309   6.179
 5419WAT     H216500   1.841   2.275   6.339
 5420WAT      O16501   1.717   3.471   8.028
 5420WAT     H116502   1.690   3.417   8.107
 5420WAT     H216503   1.796   3.528   8.051
 5421WAT      O16504   6.328   6.566   7.857
 5421WAT     H116505   6.267   6.494   7.826
 5421WAT     H216506   6.419   6.552   7.818
 5422WAT      O16507   7.836   7.635   6.806
 5422WAT     H116508   7.751   7.593   6.839
 5422WAT     H216509   7.843   7.623   6.707
 5423WAT      O16510   2.771   2.320   9.870
 5423WAT     H116511   2.826   2.266   9.806
 5423WAT     H216512   2.724   2.393   9.820
 5424WAT      O16513   7.777   6.496   9.251
 5424WAT     H116514   7.817   6.505   9.343
 5424WAT     H216515   7.819   6.418   9.204
 5425WAT      O16516   3.577   7.176   4.005
 5425WAT     H116517   3.488   7.180   4.050
 5425WAT     H216518   3.631   7.256   4.033
 5426WAT      O16519   4.445   5.781   4.123
 5426WAT     H116520   4.375   5.828   4.177
 5426WAT     H216521   4.531   5.778   4.174
 5427WAT      O16522   4.490   5.445   7.926
 5427WAT     H116523   4.408   5.387   7.924
 5427WAT     H216524   4.489   5.501   8.009
 5428WAT      O16525   3.691   1.809   0.445
 5428WAT     H116526   3.724   1.771   0.531
 5428WAT     H216527   3.642   1.738   0.393
 5429WAT      O16528   3.730   3.135   2.090
 5429WAT     H116529   3.760   3.184   2.172
 5429WAT     H216530   3.804   3.134   2.022
 5430WAT      O16531   7.460   3.709   7.882
 5430WAT     H116532   7.409   3.673   7.803
 5430WAT     H216533   7.430   3.661   7.965
 5431WAT      O16534   8.908   8.587   0.928
 5431WAT     H116535   8.947   8.501   0.898
 5431WAT     H216536   8.809   8.586   0.912
 5432WAT      O16537   1.814   9.018   6.532
 5432WAT     H116538   1.894   9.075   6.514
 5432WAT     H216539   1.815   8.988   6.627
 5433WAT      O16540   7.373   3.263   8.592
 5433WAT     H116541   7.275   3.254   8.606
 5433WAT     H216542   7.394   3.354   8.557
 5434WAT      O16543   0.693   3.313   0.375
 5434WAT     H116544   0.761   3.284   0.307
 5434WAT     H216545   0.671   3.236   0.435
 5435WAT      O16546   2.529   1.957   0.960
 5435WAT     H116547   2.470   1.984   0.884
 5435WAT     H216548   2.624   1.960   0.931
 5436WAT      O16549   3.232   6.976   1.112
 5436WAT     H116550   3.251   7.073   1.128
 5436WAT     H216551   3.315   6.923   1.126
 5437WAT      O16552   8.129   8.943   5.570
 5437WAT     H116553   8.157   8.850   5.548
 5437WAT     H216554   8.111   8.951   5.668
 5438WAT      O16555   8.864   8.022   2.974
 5438WAT     H116556   8.784   8.032   3.033
 5438WAT     H216557   8.947   8.032   3.028
 5439WAT      O16558   3.613   3.505   5.894
 5439WAT     H116559   3.695   3.509   5.838
 5439WAT     H216560   3.602   3.412   5.930
 5440WAT      O16561   6.591   2.762   0.754
 5440WAT     H116562   6.599   2.673   0.799
 5440WAT     H216563   6.549   2.750   0.664
 5441WAT      O16564   2.615   2.999   1.158
 5441WAT     H116565   2.562   3.041   1.231
 5441WAT     H216566   2.688   3.061   1.130
 5442WAT      O16567   2.490   9.549   0.162
 5442WAT     H116568   2.558   9.602   0.112
 5442WAT     H216569   2.510   9.553   0.260
 5443WAT      O16570   0.906   9.377   6.111
 5443WAT     H116571   0.959   9.420   6.038
 5443WAT     H216572   0.921   9.278   6.110
 5444WAT      O16573   3.509   0.359   5.990
 5444WAT     H116574   3.557   0.428   6.044
 5444WAT     H216575   3.457   0.404   5.918
 5445WAT      O16576   5.054   1.370   5.118
 5445WAT     H116577   5.121   1.418   5.175
 5445WAT     H216578   5.090   1.361   5.025
 5446WAT      O16579   7.154   3.974   5.964
 5446WAT     H116580   7.133   3.885   5.924
 5446WAT     H216581   7.157   3.966   6.063
 5447WAT      O16582   6.508   9.631   5.284
 5447WAT     H116583   6.447   9.680   5.346
 5447WAT     H216584   6.502   9.673   5.193
 5448WAT      O16585   0.963   3.866   9.597
 5448WAT     H116586   0.912   3.780   9.607
 5448WAT     H216587   0.927   3.933   9.662
 5449WAT      O16588   0.064   4.768   5.346
 5449WAT     H116589   0.152   4.766   5.299
 5449WAT     H216590   0.021   4.857   5.332
 5450WAT      O16591   2.256   4.346   0.988
 5450WAT     H116592   2.231   4.338   1.084
 5450WAT     H216593   2.177   4.375   0.935
 5451WAT      O16594   9.749   6.656   0.064
 5451WAT     H116595   9.716   6.748   0.087
 5451WAT     H216596   9.848   6.658   0.051
 5452WAT      O16597   7.358   3.732   6.689
 5452WAT     H116598   7.354   3.751   6.591
 5452WAT     H216599   7.442   3.771   6.727
 5453WAT      O16600   0.437   6.671   2.465
 5453WAT     H116601   0.421   6.603   2.393
 5453WAT     H216602   0.518   6.724   2.442
 5454WAT      O16603   3.516   1.273   5.883
 5454WAT     H116604   3.584   1.233   5.944
 5454WAT     H216605   3.559   1.298   5.796
 5455WAT      O16606   0.358   0.120   3.670
 5455WAT     H116607   0.326   0.107   3.576
 5455WAT     H216608   0.458   0.110   3.672
 5456WAT      O16609   0.882   9.794   0.038
 5456WAT     H116610   0.981   9.782   0.030
 5456WAT     H216611   0.851   9.862  -0.029
 5457WAT      O16612   1.110   8.250   1.992
 5457WAT     H116613   1.194   8.300   1.968
 5457WAT     H216614   1.113   8.159   1.952
 5458WAT      O16615   1.803   6.559   7.018
 5458WAT     H116616   1.771   6.526   7.107
 5458WAT     H216617   1.788   6.490   6.948
 5459WAT      O16618   2.062   5.859   0.178
 5459WAT     H116619   2.149   5.854   0.130
 5459WAT     H216620   2.057   5.945   0.229
 5460WAT      O16621   1.077   7.736   3.550
 5460WAT     H116622   1.140   7.813   3.554
 5460WAT     H216623   1.119   7.657   3.595
 5461WAT      O16624   4.958   4.724   0.926
 5461WAT     H116625   5.030   4.724   0.996
 5461WAT     H216626   4.901   4.805   0.938
 5462WAT      O16627   8.427   0.827   6.929
 5462WAT     H116628   8.376   0.796   6.849
 5462WAT     H216629   8.525   0.827   6.909
 5463WAT      O16630   5.511   1.796   2.676
 5463WAT     H116631   5.518   1.842   2.764
 5463WAT     H216632   5.417   1.803   2.643
 5464WAT      O16633   4.082   9.387   7.521
 5464WAT     H116634   4.162   9.437   7.553
 5464WAT     H216635   4.058   9.416   7.429
 5465WAT      O16636   6.620   5.917   8.576
 5465WAT     H116637   6.708   5.961   8.565
 5465WAT     H216638   6.634   5.821   8.603
 5466WAT      O16639   8.428   8.601   3.201
 5466WAT     H116640   8.427   8.698   3.225
 5466WAT     H216641   8.446   8.591   3.103
 5467WAT      O16642   7.049   1.999   6.708
 5467WAT     H116643   6.958   1.971   6.678
 5467WAT     H216644   7.043   2.090   6.750
 5468WAT      O16645   0.233   3.346   7.032
 5468WAT     H116646   0.313   3.349   7.091
 5468WAT     H216647   0.232   3.427   6.974
 5469WAT      O16648   8.820   3.310   9.886
 5469WAT     H116649   8.790   3.286   9.794
 5469WAT     H216650   8.741   3.316   9.947
 5470WAT      O16651   1.474   7.731   5.437
 5470WAT     H116652   1.438   7.706   5.527
 5470WAT     H216653   1.425   7.811   5.402
 5471WAT      O16654   6.555   9.037   8.532
 5471WAT     H116655   6.631   9.018   8.469
 5471WAT     H216656   6.474   9.062   8.479
 5472WAT      O16657   3.526   2.454   2.486
 5472WAT     H116658   3.506   2.538   2.436
 5472WAT     H216659   3.526   2.473   2.584
 5473WAT      O16660   3.344   1.285   9.482
 5473WAT     H116661   3.424   1.332   9.445
 5473WAT     H216662   3.335   1.307   9.579
 5474WAT      O16663   6.023   7.590   3.289
 5474WAT     H116664   6.041   7.668   3.229
 5474WAT     H216665   5.924   7.577   3.297
 5475WAT      O16666   1.303   2.875   9.546
 5475WAT     H116667   1.228   2.896   9.609
 5475WAT     H216668   1.357   2.957   9.531
 5476WAT      O16669   8.330   8.851   1.263
 5476WAT     H116670   8.430   8.853   1.272
 5476WAT     H216671   8.303   8.889   1.175
 5477WAT      O16672   2.655   5.921   1.898
 5477WAT     H116673   2.655   5.853   1.825
 5477WAT     H216674   2.596   5.889   1.973
 5478WAT      O16675   4.426   4.273   5.890
 5478WAT     H116676   4.459   4.183   5.917
 5478WAT     H216677   4.421   4.332   5.971
 5479WAT      O16678   4.449   9.113   9.633
 5479WAT     H116679   4.524   9.163   9.677
 5479WAT     H216680   4.398   9.176   9.573
 5480WAT      O16681   2.951   3.627   2.265
 5480WAT     H116682   2.964   3.592   2.358
 5480WAT     H216683   2.958   3.727   2.266
 5481WAT      O16684   8.194   3.201   5.106
 5481WAT     H116685   8.277   3.256   5.115
 5481WAT     H216686   8.120   3.258   5.070
 5482WAT      O16687   8.547   8.233   0.263
 5482WAT     H116688   8.502   8.148   0.234
 5482WAT     H216689   8.543   8.299   0.188
 5483WAT      O16690   2.042   9.787   7.338
 5483WAT     H116691   2.064   9.690   7.347
 5483WAT     H216692   1.948   9.803   7.370
 5484WAT      O16693   8.802   0.064   8.977
 5484WAT     H116694   8.795   0.070   9.077
 5484WAT     H216695   8.749  -0.014   8.945
 5485WAT      O16696   6.783   5.215   1.625
 5485WAT     H116697   6.725   5.206   1.707
 5485WAT     H216698   6.737   5.273   1.559
 5486WAT      O16699   5.445   6.479   7.591
 5486WAT     H116700   5.395   6.559   7.625
 5486WAT     H216701   5.414   6.397   7.641
 5487WAT      O16702   0.201   4.566   3.781
 5487WAT     H116703   0.248   4.543   3.867
 5487WAT     H216704   0.127   4.500   3.765
 5488WAT      O16705   5.422   7.376   1.665
 5488WAT     H116706   5.349   7.313   1.691
 5488WAT     H216707   5.415   7.397   1.568
 5489WAT      O16708   6.102   4.812   2.326
 5489WAT     H116709   6.168   4.748   2.366
 5489WAT     H216710   6.107   4.807   2.227
 5490WAT      O16711   2.856   3.098   1.021
 5490WAT     H116712   2.921   3.058   1.086
 5490WAT     H216713   2.852   3.042   0.938
 5491WAT      O16714   2.719   6.978   0.279
 5491WAT     H116715   2.776   7.046   0.325
 5491WAT     H216716   2.748   6.886   0.308
 5492WAT      O16717   5.455   8.166   5.658
 5492WAT     H116718   5.447   8.245   5.596
 5492WAT     H216719   5.549   8.132   5.654
 5493WAT      O16720   4.852   0.380   9.810
 5493WAT     H116721   4.855   0.461   9.868
 5493WAT     H216722   4.945   0.346   9.796
 5494WAT      O16723   5.929   3.971   2.437
 5494WAT     H116724   5.874   3.973   2.521
 5494WAT     H216725   5.881   4.022   2.366
 5495WAT      O16726   9.429   2.173   4.887
 5495WAT     H116727   9.367   2.137   4.817
 5495WAT     H216728   9.503   2.224   4.843
 5496WAT      O16729   8.252   4.848   3.495
 5496WAT     H116730   8.295   4.931   3.461
 5496WAT     H216731   8.188   4.812   3.427
 5497WAT      O16732   2.221   9.831   2.369
 5497WAT     H116733   2.296   9.766   2.369
 5497WAT     H216734   2.255   9.921   2.396
 5498WAT      O16735   6.442   2.037   5.677
 5498WAT     H116736   6.513   1.977   5.640
 5498WAT     H216737   6.436   2.120   5.622
 5499WAT      O16738   8.087   9.607   4.127
 5499WAT     H116739   8.176   9.651   4.130
 5499WAT     H216740   8.098   9.509   4.143
 5500WAT      O16741   4.310   3.135   5.626
 5500WAT     H116742   4.357   3.210   5.673
 5500WAT     H216743   4.378   3.069   5.594
 5501WAT      O16744   4.019   0.826   0.899
 5501WAT     H116745   3.981   0.910   0.863
 5501WAT     H216746   3.992   0.749   0.840
 5502WAT      O16747   8.784   5.433   4.726
 5502WAT     H116748   8.727   5.442   4.807
 5502WAT     H216749   8.730   5.398   4.650
 5503WAT      O16750   9.738   2.531   8.739
 5503WAT     H116751   9.647   2.571   8.751
 5503WAT     H216752   9.807   2.601   8.756
 5504WAT      O16753   5.637   3.042   7.878
 5504WAT     H116754   5.718   2.984   7.876
 5504WAT     H216755   5.610   3.066   7.785
 5505WAT      O16756   4.048   9.192   6.104
 5505WAT     H116757   4.038   9.094   6.086
 5505WAT     H216758   4.143   9.218   6.091
 5506WAT      O16759   8.011   6.883   1.519
 5506WAT     H116760   7.992   6.941   1.599
 5506WAT     H216761   7.927   6.835   1.493
 5507WAT      O16762   6.118   9.499   8.665
 5507WAT     H116763   6.030   9.455   8.686
 5507WAT     H216764   6.107   9.598   8.669
 5508WAT      O16765   7.540   2.746   0.614
 5508WAT     H116766   7.443   2.769   0.627
 5508WAT     H216767   7.573   2.698   0.695
 5509WAT      O16768   9.441   6.450   1.186
 5509WAT     H116769   9.440   6.364   1.238
 5509WAT     H216770   9.524   6.456   1.132
 5510WAT      O16771   4.428   7.358   7.515
 5510WAT     H116772   4.522   7.393   7.510
 5510WAT     H216773   4.367   7.417   7.462
 5511WAT      O16774   2.749   2.299   6.019
 5511WAT     H116775   2.766   2.226   6.085
 5511WAT     H216776   2.703   2.375   6.066
 5512WAT      O16777   3.062   6.484   0.276
 5512WAT     H116778   3.086   6.473   0.179
 5512WAT     H216779   3.145   6.480   0.331
 5513WAT      O16780   4.761   0.200   5.551
 5513WAT     H116781   4.749   0.231   5.456
 5513WAT     H216782   4.688   0.237   5.608
 5514WAT      O16783   9.262   1.547   8.439
 5514WAT     H116784   9.322   1.482   8.486
 5514WAT     H216785   9.169   1.511   8.438
 5515WAT      O16786   1.539   7.095   2.640
 5515WAT     H116787   1.604   7.169   2.625
 5515WAT     H216788   1.455   7.112   2.588
 5516WAT      O16789   0.413   3.156   4.113
 5516WAT     H116790   0.478   3.081   4.103
 5516WAT     H216791   0.421   3.196   4.204
 5517WAT      O16792   9.689   9.550   6.097
 5517WAT     H116793   9.598   9.590   6.093
 5517WAT     H216794   9.713   9.514   6.007
 5518WAT      O16795   9.708   4.190   0.216
 5518WAT     H116796   9.797   4.215   0.178
 5518WAT     H216797   9.720   4.119   0.285
 5519WAT      O16798   2.257   2.185   7.969
 5519WAT     H116799   2.356   2.196   7.963
 5519WAT     H216800   2.227   2.207   8.062
 5520WAT      O16801   0.816   9.388   1.576
 5520WAT     H116802   0.893   9.382   1.640
 5520WAT     H216803   0.756   9.309   1.589
 5521WAT      O16804   6.345   7.864   6.960
 5521WAT     H116805   6.415   7.793   6.963
 5521WAT     H216806   6.363   7.933   7.030
 5522WAT      O16807   4.799   1.519   7.985
 5522WAT     H116808   4.837   1.554   8.071
 5522WAT     H216809   4.848   1.437   7.957
 5523WAT      O16810   9.248   8.566   4.135
 5523WAT     H116811   9.242   8.661   4.165
 5523WAT     H216812   9.200   8.556   4.048
 5524WAT      O16813   2.538   2.513   7.933
 5524WAT     H116814   2.557   2.416   7.921
 5524WAT     H216815   2.572   2.564   7.854
 5525WAT      O16816   6.572   0.359   0.282
 5525WAT     H116817   6.668   0.357   0.254
 5525WAT     H216818   6.527   0.440   0.242
 5526WAT      O16819   2.764   3.950   2.051
 5526WAT     H116820   2.742   4.003   2.133
 5526WAT     H216821   2.851   3.902   2.065
 5527WAT      O16822   8.602   0.479   5.201
 5527WAT     H116823   8.543   0.522   5.268
 5527WAT     H216824   8.547   0.427   5.136
 5528WAT      O16825   0.769   1.119   9.411
 5528WAT     H116826   0.670   1.117   9.423
 5528WAT     H216827   0.795   1.064   9.331
 5529WAT      O16828   0.204   5.157   2.280
 5529WAT     H116829   0.203   5.232   2.213
 5529WAT     H216830   0.155   5.185   2.362
 5530WAT      O16831   9.510   8.135   8.882
 5530WAT     H116832   9.581   8.190   8.837
 5530WAT     H216833   9.539   8.040   8.887
 5531WAT      O16834   1.969   0.501   3.349
 5531WAT     H116835   2.032   0.576   3.369
 5531WAT     H216836   1.921   0.520   3.263
 5532WAT      O16837   3.844   6.930   1.356
 5532WAT     H116838   3.928   6.978   1.382
 5532WAT     H216839   3.766   6.973   1.401
 5533WAT      O16840   8.044   2.880   2.350
 5533WAT     H116841   8.092   2.812   2.294
 5533WAT     H216842   7.971   2.835   2.401
 5534WAT      O16843   3.252   2.347   3.659
 5534WAT     H116844   3.291   2.420   3.604
 5534WAT     H216845   3.276   2.361   3.755
 5535WAT      O16846   9.764   0.190   2.091
 5535WAT     H116847   9.711   0.132   2.030
 5535WAT     H216848   9.746   0.163   2.186
 5536WAT      O16849   3.259   1.409   5.009
 5536WAT     H116850   3.215   1.400   4.919
 5536WAT     H216851   3.210   1.354   5.076
 5537WAT      O16852   3.370   3.903   7.924
 5537WAT     H116853   3.286   3.872   7.881
 5537WAT     H216854   3.444   3.839   7.903
 5538WAT      O16855   0.998   5.287   0.460
 5538WAT     H116856   1.070   5.357   0.465
 5538WAT     H216857   0.971   5.274   0.364
 5539WAT      O16858   3.446   7.478   0.534
 5539WAT     H116859   3.492   7.421   0.465
 5539WAT     H216860   3.497   7.563   0.546
 5540WAT      O16861   5.425   2.622   3.406
 5540WAT     H116862   5.462   2.636   3.497
 5540WAT     H216863   5.417   2.524   3.388
 5541WAT      O16864   2.121   6.579   1.461
 5541WAT     H116865   2.031   6.605   1.497
 5541WAT     H216866   2.192   6.605   1.526
 5542WAT      O16867   6.895   3.459   4.028
 5542WAT     H116868   6.802   3.467   4.062
 5542WAT     H216869   6.895   3.476   3.929
 5543WAT      O16870   5.802   7.479   5.579
 5543WAT     H116871   5.878   7.540   5.560
 5543WAT     H216872   5.750   7.513   5.657
 5544WAT      O16873   6.445   1.830   2.850
 5544WAT     H116874   6.522   1.782   2.807
 5544WAT     H216875   6.439   1.804   2.946
 5545WAT      O16876   2.551   5.605   4.117
 5545WAT     H116877   2.588   5.542   4.186
 5545WAT     H216878   2.508   5.552   4.043
 5546WAT      O16879   8.111   3.704   9.760
 5546WAT     H116880   8.067   3.780   9.711
 5546WAT     H216881   8.210   3.717   9.760
 5547WAT      O16882   6.469   4.794   7.025
 5547WAT     H116883   6.508   4.769   6.936
 5547WAT     H216884   6.385   4.846   7.012
 5548WAT      O16885   1.530   0.584   4.290
 5548WAT     H116886   1.477   0.668   4.276
 5548WAT     H216887   1.471   0.505   4.274
 5549WAT      O16888   7.386   7.965   2.347
 5549WAT     H116889   7.453   7.975   2.420
 5549WAT     H216890   7.423   8.001   2.261
 5550WAT      O16891   9.773   1.741   7.824
 5550WAT     H116892   9.870   1.762   7.810
 5550WAT     H216893   9.725   1.748   7.736
 5551WAT      O16894   2.841   8.696   2.660
 5551WAT     H116895   2.777   8.629   2.620
 5551WAT     H216896   2.927   8.650   2.680
 5552WAT      O16897   4.732   7.484   8.554
 5552WAT     H116898   4.682   7.430   8.622
 5552WAT     H216899   4.682   7.485   8.468
 5553WAT      O16900   3.653   6.664   2.500
 5553WAT     H116901   3.557   6.636   2.508
 5553WAT     H216902   3.701   6.644   2.585
 5554WAT      O16903   2.426   6.664   9.301
 5554WAT     H116904   2.358   6.706   9.361
 5554WAT     H216905   2.516   6.670   9.343
 5555WAT      O16906   0.535   7.467   8.110
 5555WAT     H116907   0.478   7.390   8.137
 5555WAT     H216908   0.489   7.553   8.132
 5556WAT      O16909   9.793   8.581   0.827
 5556WAT     H116910   9.803   8.490   0.866
 5556WAT     H216911   9.733   8.577   0.747
 5557WAT      O16912   5.065   7.240   1.958
 5557WAT     H116913   5.036   7.147   1.982
 5557WAT     H216914   4.991   7.285   1.908
 5558WAT      O16915   8.751   6.642   6.741
 5558WAT     H116916   8.697   6.719   6.774
 5558WAT     H216917   8.695   6.585   6.681
 5559WAT      O16918   5.146   0.802   3.039
 5559WAT     H116919   5.163   0.882   3.096
 5559WAT     H216920   5.116   0.831   2.948
 5560WAT      O16921   9.146   2.597   7.387
 5560WAT     H116922   9.224   2.536   7.373
 5560WAT     H216923   9.136   2.616   7.485
 5561WAT      O16924   1.730   6.603   9.887
 5561WAT     H116925   1.828   6.614   9.869
 5561WAT     H216926   1.678   6.641   9.809
 5562WAT      O16927   8.545   2.186   8.215
 5562WAT     H116928   8.637   2.223   8.203
 5562WAT     H216929   8.537   2.100   8.164
 5563WAT      O16930   3.013   3.221   1.593
 5563WAT     H116931   2.917   3.194   1.595
 5563WAT     H216932   3.022   3.307   1.542
 5564WAT      O16933   3.217   7.518   7.670
 5564WAT     H116934   3.236   7.569   7.586
 5564WAT     H216935   3.146   7.565   7.722
 5565WAT      O16936   0.740   4.632   5.339
 5565WAT     H116937   0.712   4.633   5.243
 5565WAT     H216938   0.840   4.630   5.345
 5566WAT      O16939   5.877   1.168   3.732
 5566WAT     H116940   5.937   1.196   3.807
 5566WAT     H216941   5.924   1.102   3.674
 5567WAT      O16942   0.106   3.670   3.482
 5567WAT     H116943   0.183   3.642   3.425
 5567WAT     H216944   0.138   3.685   3.576
 5568WAT      O16945   4.486   2.059   7.781
 5568WAT     H116946   4.439   2.109   7.853
 5568WAT     H216947   4.448   2.085   7.692
 5569WAT      O16948   7.173   3.402   5.788
 5569WAT     H116949   7.139   3.492   5.814
 5569WAT     H216950   7.098   3.349   5.746
 5570WAT      O16951   0.474   8.773   7.252
 5570WAT     H116952   0.379   8.777   7.222
 5570WAT     H216953   0.482   8.709   7.329
 5571WAT      O16954   0.077   4.783   6.809
 5571WAT     H116955   0.113   4.855   6.869
 5571WAT     H216956   0.071   4.697   6.860
 5572WAT      O16957   9.525   9.783   6.944
 5572WAT     H116958   9.546   9.821   6.854
 5572WAT     H216959   9.544   9.851   7.014
 5573WAT      O16960   3.179   3.441   1.094
 5573WAT     H116961   3.229   3.354   1.093
 5573WAT     H216962   3.228   3.508   1.150
 5574WAT      O16963   0.014   7.313   3.820
 5574WAT     H116964   0.105   7.333   3.857
 5574WAT     H216965  -0.014   7.386   3.757
 5575WAT      O16966   5.316   7.248   3.657
 5575WAT     H116967   5.285   7.163   3.697
 5575WAT     H216968   5.415   7.243   3.640
 5576WAT      O16969   6.093   0.598   0.157
 5576WAT     H116970   6.006   0.556   0.182
 5576WAT     H216971   6.081   0.697   0.147
 5577WAT      O16972   4.847   5.322   6.502
 5577WAT     H116973   4.761   5.273   6.487
 5577WAT     H216974   4.838   5.415   6.467
 5578WAT      O16975   3.439   6.876   5.398
 5578WAT     H116976   3.403   6.783   5.403
 5578WAT     H216977   3.393   6.933   5.467
 5579WAT      O16978   4.206   4.330   3.956
 5579WAT     H116979   4.265   4.374   3.887
 5579WAT     H216980   4.226   4.232   3.959
 5580WAT      O16981   4.937   9.158   0.636
 5580WAT     H116982   4.846   9.183   0.671
 5580WAT     H216983   4.933   9.065   0.600
 5581WAT      O16984   1.356   3.216   0.659
 5581WAT     H116985   1.353   3.296   0.598
 5581WAT     H216986   1.372   3.247   0.752
 5582WAT      O16987   5.973   2.441   6.213
 5582WAT     H116988   5.963   2.533   6.251
 5582WAT     H216989   5.976   2.374   6.287
 5583WAT      O16990   7.975   3.022   4.721
 5583WAT     H116991   7.908   3.096   4.729
 5583WAT     H216992   7.958   2.954   4.791
 5584WAT      O16993   1.601   8.301   4.331
 5584WAT     H116994   1.667   8.318   4.258
 5584WAT     H216995   1.573   8.205   4.330
 5585WAT      O16996   1.977   4.095   4.893
 5585WAT     H116997   2.061   4.149   4.887
 5585WAT     H216998   1.962   4.066   4.988
 5586WAT      O16999   4.375   2.487   3.125
 5586WAT     H117000   4.298   2.496   3.188
 5586WAT     H217001   4.364   2.554   3.051
 5587WAT      O17002   5.465   1.395   6.497
 5587WAT     H117003   5.537   1.460   6.520
 5587WAT     H217004   5.378   1.427   6.533
 5588WAT      O17005   0.302   0.065   3.392
 5588WAT     H117006   0.343   0.073   3.301
 5588WAT     H217007   0.311  -0.030   3.424
 5589WAT      O17008   5.636   5.671   8.205
 5589WAT     H117009   5.566   5.714   8.148
 5589WAT     H217010   5.727   5.699   8.172
 5590WAT      O17011   7.886   6.087   4.439
 5590WAT     H117012   7.811   6.020   4.437
 5590WAT     H217013   7.897   6.123   4.532
 5591WAT      O17014   9.189   5.436   3.192
 5591WAT     H117015   9.220   5.517   3.241
 5591WAT     H217016   9.153   5.369   3.257
 5592WAT      O17017   8.712   0.766   3.939
 5592WAT     H117018   8.810   0.776   3.955
 5592WAT     H217019   8.683   0.673   3.962
 5593WAT      O17020   9.825   3.741   1.619
 5593WAT     H117021   9.883   3.660   1.613
 5593WAT     H217022   9.736   3.716   1.656
 5594WAT      O17023   4.920   9.018   8.510
 5594WAT     H117024   4.921   8.919   8.495
 5594WAT     H217025   4.861   9.062   8.442
 5595WAT      O17026   5.756   0.253   6.471
 5595WAT     H117027   5.737   0.342   6.430
 5595WAT     H217028   5.674   0.196   6.467
 5596WAT      O17029   7.137   9.477   2.712
 5596WAT     H117030   7.100   9.456   2.621
 5596WAT     H217031   7.061   9.493   2.776
 5597WAT      O17032   9.510   7.141   3.969
 5597WAT     H117033   9.421   7.187   3.976
 5597WAT     H217034   9.501   7.045   3.993
 5598WAT      O17035   5.635   4.461   6.683
 5598WAT     H117036   5.701   4.387   6.668
 5598WAT     H217037   5.642   4.526   6.607
 5599WAT      O17038   6.667   0.938   3.956
 5599WAT     H117039   6.583   0.888   3.980
 5599WAT     H217040   6.744   0.900   4.007
 5600WAT      O17041   7.857   8.595   6.267
 5600WAT     H117042   7.948   8.602   6.307
 5600WAT     H217043   7.857   8.634   6.175
 5601WAT      O17044   6.376   1.183   2.554
 5601WAT     H117045   6.317   1.263   2.567
 5601WAT     H217046   6.319   1.102   2.541
 5602WAT      O17047   7.540   0.734   7.150
 5602WAT     H117048   7.508   0.827   7.129
 5602WAT     H217049   7.477   0.667   7.110
 5603WAT      O17050   7.448   9.159   7.993
 5603WAT     H117051   7.375   9.220   8.024
 5603WAT     H217052   7.424   9.065   8.016
 5604WAT      O17053   6.234   9.812   1.574
 5604WAT     H117054   6.311   9.750   1.562
 5604WAT     H217055   6.150   9.767   1.544
 5605WAT      O17056   4.006   1.064   0.710
 5605WAT     H117057   3.970   1.059   0.617
 5605WAT     H217058   4.098   1.025   0.713
 5606WAT      O17059   9.094   3.329   4.166
 5606WAT     H117060   9.151   3.397   4.121
 5606WAT     H217061   9.050   3.271   4.097
 5607WAT      O17062   4.733   9.407   5.069
 5607WAT     H117063   4.677   9.457   5.003
 5607WAT     H217064   4.674   9.346   5.123
 5608WAT      O17065   7.256   0.105   6.244
 5608WAT     H117066   7.285   0.115   6.339
 5608WAT     H217067   7.313   0.163   6.186
 5609WAT      O17068   6.736   6.757   1.413
 5609WAT     H117069   6.654   6.768   1.470
 5609WAT     H217070   6.723   6.679   1.351
 5610WAT      O17071   5.474   4.274   5.209
 5610WAT     H117072   5.555   4.294   5.155
 5610WAT     H217073   5.471   4.334   5.289
 5611WAT      O17074   5.553   3.540   9.255
 5611WAT     H117075   5.497   3.475   9.306
 5611WAT     H217076   5.650   3.527   9.278
 5612WAT      O17077   8.305   9.389   9.190
 5612WAT     H117078   8.286   9.487   9.196
 5612WAT     H217079   8.316   9.352   9.283
 5613WAT      O17080   6.106   3.189   9.540
 5613WAT     H117081   6.146   3.279   9.559
 5613WAT     H217082   6.154   3.147   9.463
 5614WAT      O17083   9.761   2.086   1.601
 5614WAT     H117084   9.692   2.079   1.673
 5614WAT     H217085   9.851   2.063   1.639
 5615WAT      O17086   2.171   0.921   0.501
 5615WAT     H117087   2.193   0.827   0.528
 5615WAT     H217088   2.076   0.926   0.471
 5616WAT      O17089   6.899   3.165   4.040
 5616WAT     H117090   6.810   3.154   3.997
 5616WAT     H217091   6.942   3.249   4.007
 5617WAT      O17092   9.657   5.122   2.850
 5617WAT     H117093   9.577   5.182   2.842
 5617WAT     H217094   9.668   5.096   2.946
 5618WAT      O17095   6.784   9.401   8.973
 5618WAT     H117096   6.745   9.350   8.896
 5618WAT     H217097   6.751   9.495   8.970
 5619WAT      O17098   2.181   6.025   5.293
 5619WAT     H117099   2.243   6.056   5.365
 5619WAT     H217100   2.186   6.087   5.216
 5620WAT      O17101   3.377   7.557   4.600
 5620WAT     H117102   3.371   7.513   4.690
 5620WAT     H217103   3.286   7.588   4.572
 5621WAT      O17104   1.048   2.269   9.114
 5621WAT     H117105   0.995   2.340   9.161
 5621WAT     H217106   1.126   2.311   9.068
 5622WAT      O17107   4.527   5.777   1.923
 5622WAT     H117108   4.500   5.869   1.895
 5622WAT     H217109   4.446   5.718   1.923
 5623WAT      O17110   0.740   9.660   1.665
 5623WAT     H117111   0.650   9.704   1.658
 5623WAT     H217112   0.735   9.568   1.626
 5624WAT      O17113   9.216   3.715   5.633
 5624WAT     H117114   9.185   3.720   5.728
 5624WAT     H217115   9.260   3.801   5.608
 5625WAT      O17116   4.675   8.585   8.291
 5625WAT     H117117   4.773   8.571   8.303
 5625WAT     H217118   4.628   8.497   8.290
 5626WAT      O17119   3.797   1.950   5.898
 5626WAT     H117120   3.765   1.875   5.839
 5626WAT     H217121   3.889   1.930   5.931
 5627WAT      O17122   7.776   1.163   5.844
 5627WAT     H117123   7.694   1.115   5.812
 5627WAT     H217124   7.817   1.213   5.768
 5628WAT      O17125   2.720   1.741   4.863
 5628WAT     H117126   2.785   1.813   4.887
 5628WAT     H217127   2.698   1.748   4.765
 5629WAT      O17128   7.854   0.529   6.215
 5629WAT     H117129   7.910   0.570   6.143
 5629WAT     H217130   7.831   0.435   6.189
 5630WAT      O17131   6.478   1.516   3.913
 5630WAT     H117132   6.534   1.545   3.836
 5630WAT     H217133   6.381   1.516   3.886
 5631WAT      O17134   4.670   8.201   2.503
 5631WAT     H117135   4.670   8.120   2.445
 5631WAT     H217136   4.760   8.212   2.544
 5632WAT      O17137   9.431   2.030   3.224
 5632WAT     H117138   9.523   1.998   3.200
 5632WAT     H217139   9.367   1.953   3.217
 5633WAT      O17140   9.095   4.333   0.446
 5633WAT     H117141   9.030   4.392   0.397
 5633WAT     H217142   9.182   4.381   0.458
 5634WAT      O17143   3.807   6.528   1.369
 5634WAT     H117144   3.847   6.442   1.337
 5634WAT     H217145   3.820   6.598   1.299
 5635WAT      O17146   4.141   3.337   9.059
 5635WAT     H117147   4.238   3.360   9.072
 5635WAT     H217148   4.133   3.243   9.027
 5636WAT      O17149   7.408   5.964   1.952
 5636WAT     H117150   7.483   6.029   1.963
 5636WAT     H217151   7.321   6.012   1.956
 5637WAT      O17152   4.746   6.416   8.524
 5637WAT     H117153   4.733   6.399   8.426
 5637WAT     H217154   4.815   6.488   8.536
 5638WAT      O17155   2.375   7.659   4.672
 5638WAT     H117156   2.416   7.580   4.716
 5638WAT     H217157   2.276   7.660   4.690
 5639WAT      O17158   6.339   6.760   0.693
 5639WAT     H117159   6.327   6.741   0.790
 5639WAT     H217160   6.376   6.852   0.681
 5640WAT      O17161   9.126   1.100   3.340
 5640WAT     H117162   9.169   1.137   3.257
 5640WAT     H217163   9.186   1.117   3.418
 5641WAT      O17164   5.615   7.092   7.579
 5641WAT     H117165   5.625   6.993   7.588
 5641WAT     H217166   5.666   7.123   7.499
 5642WAT      O17167   2.471   2.445   3.528
 5642WAT     H117168   2.520   2.477   3.609
 5642WAT     H217169   2.537   2.425   3.456
 5643WAT      O17170   2.157   3.733   8.914
 5643WAT     H117171   2.171   3.776   9.004
 5643WAT     H217172   2.170   3.801   8.842
 5644WAT      O17173   8.656   8.650   7.614
 5644WAT     H117174   8.731   8.595   7.650
 5644WAT     H217175   8.606   8.596   7.546
 5645WAT      O17176   4.237   5.778   7.511
 5645WAT     H117177   4.258   5.787   7.608
 5645WAT     H217178   4.212   5.684   7.491
 5646WAT      O17179   4.160   3.093   0.619
 5646WAT     H117180   4.138   3.050   0.707
 5646WAT     H217181   4.222   3.034   0.568
 5647WAT      O17182   1.659   8.994   0.028
 5647WAT     H117183   1.736   9.055   0.008
 5647WAT     H217184   1.670   8.957   0.120
 5648WAT      O17185   3.843   7.560   5.356
 5648WAT     H117186   3.882   7.649   5.334
 5648WAT     H217187   3.752   7.553   5.314
 5649WAT      O17188   1.314   1.814   1.627
 5649WAT     H117189   1.226   1.770   1.647
 5649WAT     H217190   1.387   1.746   1.634
 5650WAT      O17191   3.610   1.024   4.381
 5650WAT     H117192   3.538   0.957   4.362
 5650WAT     H217193   3.591   1.069   4.468
 5651WAT      O17194   9.889   4.394   1.320
 5651WAT     H117195   9.815   4.439   1.369
 5651WAT     H217196   9.897   4.300   1.351
 5652WAT      O17197   3.122   2.100   0.285
 5652WAT     H117198   3.190   2.128   0.217
 5652WAT     H217199   3.165   2.040   0.352
 5653WAT      O17200   1.375   6.016   7.539
 5653WAT     H117201   1.435   5.938   7.560
 5653WAT     H217202   1.315   6.033   7.617
 5654WAT      O17203   9.088   6.518   2.346
 5654WAT     H117204   9.156   6.468   2.401
 5654WAT     H217205   8.997   6.506   2.386
 5655WAT      O17206   1.264   0.923   0.083
 5655WAT     H117207   1.313   1.000   0.123
 5655WAT     H217208   1.191   0.894   0.144
 5656WAT      O17209   2.381   5.672   8.552
 5656WAT     H117210   2.329   5.757   8.562
 5656WAT     H217211   2.384   5.646   8.456
 5657WAT      O17212   4.655   3.533   7.592
 5657WAT     H117213   4.700   3.601   7.535
 5657WAT     H217214   4.722   3.491   7.654
 5658WAT      O17215   6.140   4.142   6.169
 5658WAT     H117216   6.187   4.219   6.126
 5658WAT     H217217   6.131   4.160   6.267
 5659WAT      O17218   9.640   6.222   2.678
 5659WAT     H117219   9.656   6.306   2.731
 5659WAT     H217220   9.677   6.233   2.586
 5660WAT      O17221   2.668   3.503   0.448
 5660WAT     H117222   2.708   3.567   0.382
 5660WAT     H217223   2.583   3.466   0.411
 5661WAT      O17224   4.752   8.360   7.094
 5661WAT     H117225   4.845   8.328   7.074
 5661WAT     H217226   4.757   8.447   7.142
 5662WAT      O17227   5.354   3.837   3.171
 5662WAT     H117228   5.389   3.918   3.217
 5662WAT     H217229   5.430   3.779   3.142
 5663WAT      O17230   6.860   6.134   0.140
 5663WAT     H117231   6.850   6.053   0.082
 5663WAT     H217232   6.912   6.204   0.091
 5664WAT      O17233   3.470   7.634   7.210
 5664WAT     H117234   3.492   7.603   7.302
 5664WAT     H217235   3.554   7.639   7.155
 5665WAT      O17236   7.574   3.423   3.649
 5665WAT     H117237   7.577   3.366   3.567
 5665WAT     H217238   7.560   3.365   3.730
 5666WAT      O17239   1.256   6.370   5.648
 5666WAT     H117240   1.261   6.412   5.557
 5666WAT     H217241   1.163   6.375   5.683
 5667WAT      O17242   7.293   8.581   3.823
 5667WAT     H117243   7.345   8.500   3.796
 5667WAT     H217244   7.356   8.655   3.844
 5668WAT      O17245   7.272   7.814   5.232
 5668WAT     H117246   7.313   7.884   5.174
 5668WAT     H217247   7.184   7.847   5.266
 5669WAT      O17248   3.507   6.861   8.621
 5669WAT     H117249   3.598   6.856   8.581
 5669WAT     H217250   3.465   6.770   8.620
 5670WAT      O17251   2.978   2.167   1.800
 5670WAT     H117252   3.032   2.250   1.809
 5670WAT     H217253   3.036   2.092   1.768
 5671WAT      O17254   2.517   2.287   8.719
 5671WAT     H117255   2.544   2.267   8.625
 5671WAT     H217256   2.454   2.216   8.752
 5672WAT      O17257   3.450   4.650   7.828
 5672WAT     H117258   3.432   4.737   7.873
 5672WAT     H217259   3.530   4.606   7.871
 5673WAT      O17260   2.271   6.470   2.169
 5673WAT     H117261   2.355   6.436   2.126
 5673WAT     H217262   2.283   6.566   2.193
 5674WAT      O17263   7.267   1.663   4.125
 5674WAT     H117264   7.253   1.565   4.110
 5674WAT     H217265   7.179   1.710   4.128
 5675WAT      O17266   2.038   3.259   1.716
 5675WAT     H117267   1.984   3.323   1.661
 5675WAT     H217268   2.097   3.205   1.656
 5676WAT      O17269   2.110   1.854   1.104
 5676WAT     H117270   2.138   1.769   1.150
 5676WAT     H217271   2.127   1.932   1.165
 5677WAT      O17272   7.308   5.806   7.725
 5677WAT     H117273   7.258   5.750   7.660
 5677WAT     H217274   7.243   5.858   7.781
 5678WAT      O17275   7.416   8.230   1.803
 5678WAT     H117276   7.383   8.273   1.887
 5678WAT     H217277   7.499   8.275   1.772
 5679WAT      O17278   9.417   5.099   1.420
 5679WAT     H117279   9.352   5.138   1.485
 5679WAT     H217280   9.466   5.173   1.373
 5680WAT      O17281   7.723   4.917   1.961
 5680WAT     H117282   7.747   4.977   2.037
 5680WAT     H217283   7.631   4.940   1.928
 5681WAT      O17284   0.229   0.038   2.598
 5681WAT     H117285   0.313  -0.017   2.599
 5681WAT     H217286   0.243   0.120   2.543
 5682WAT      O17287   1.027   8.691   2.556
 5682WAT     H117288   1.119   8.705   2.522
 5682WAT     H217289   1.019   8.599   2.596
 5683WAT      O17290   4.887   3.379   7.752
 5683WAT     H117291   4.814   3.312   7.735
 5683WAT     H217292   4.855   3.447   7.818
 5684WAT      O17293   5.047   8.288   4.986
 5684WAT     H117294   5.053   8.383   4.956
 5684WAT     H217295   5.087   8.278   5.077
 5685WAT      O17296   9.669   9.075   4.456
 5685WAT     H117297   9.643   9.133   4.533
 5685WAT     H217298   9.746   9.117   4.408
 5686WAT      O17299   1.591   9.448   6.872
 5686WAT     H117300   1.540   9.369   6.836
 5686WAT     H217301   1.570   9.460   6.969
 5687WAT      O17302   7.736   2.121   7.078
 5687WAT     H117303   7.759   2.035   7.031
 5687WAT     H217304   7.651   2.157   7.041
 5688WAT      O17305   7.223   4.979   5.814
 5688WAT     H117306   7.137   4.941   5.847
 5688WAT     H217307   7.230   5.075   5.842
 5689WAT      O17308   2.566   7.097   6.463
 5689WAT     H117309   2.526   7.077   6.552
 5689WAT     H217310   2.666   7.099   6.471
 5690WAT      O17311   0.846   1.279   5.524
 5690WAT     H117312   0.833   1.347   5.596
 5690WAT     H217313   0.763   1.273   5.469
 5691WAT      O17314   6.777   0.854   8.630
 5691WAT     H117315   6.793   0.813   8.540
 5691WAT     H217316   6.862   0.894   8.664
 5692WAT      O17317   8.545   1.100   3.280
 5692WAT     H117318   8.532   1.161   3.358
 5692WAT     H217319   8.632   1.121   3.235
 5693WAT      O17320   4.468   4.359   8.132
 5693WAT     H117321   4.400   4.332   8.063
 5693WAT     H217322   4.431   4.343   8.223
 5694WAT      O17323   2.466   4.762   6.498
 5694WAT     H117324   2.411   4.806   6.427
 5694WAT     H217325   2.407   4.712   6.561
 5695WAT      O17326   1.670   0.129   8.309
 5695WAT     H117327   1.684   0.130   8.210
 5695WAT     H217328   1.606   0.202   8.334
 5696WAT      O17329   9.302   9.500   4.048
 5696WAT     H117330   9.216   9.478   4.004
 5696WAT     H217331   9.372   9.516   3.979
 5697WAT      O17332   3.500   6.028   1.574
 5697WAT     H117333   3.552   5.969   1.636
 5697WAT     H217334   3.564   6.082   1.519
 5698WAT      O17335   8.905   9.104   8.410
 5698WAT     H117336   8.912   9.087   8.312
 5698WAT     H217337   8.869   9.196   8.425
 5699WAT      O17338   2.431   2.897   9.226
 5699WAT     H117339   2.347   2.878   9.279
 5699WAT     H217340   2.510   2.863   9.277
 5700WAT      O17341   3.548   5.982   0.140
 5700WAT     H117342   3.552   6.024   0.231
 5700WAT     H217343   3.466   5.926   0.133
 5701WAT      O17344   2.605   6.510   3.239
 5701WAT     H117345   2.696   6.467   3.245
 5701WAT     H217346   2.550   6.461   3.171
 5702WAT      O17347   4.574   0.355   4.771
 5702WAT     H117348   4.604   0.291   4.842
 5702WAT     H217349   4.651   0.379   4.713
 5703WAT      O17350   6.906   8.223   0.844
 5703WAT     H117351   6.851   8.253   0.766
 5703WAT     H217352   6.852   8.160   0.900
 5704WAT      O17353   4.813   0.870   9.543
 5704WAT     H117354   4.795   0.823   9.456
 5704WAT     H217355   4.730   0.920   9.571
 5705WAT      O17356   6.894   5.829   8.328
 5705WAT     H117357   6.967   5.762   8.311
 5705WAT     H217358   6.884   5.887   8.248
 5706WAT      O17359   1.354   1.168   7.953
 5706WAT     H117360   1.450   1.194   7.960
 5706WAT     H217361   1.307   1.190   8.039
 5707WAT      O17362   8.561   7.408   4.562
 5707WAT     H117363   8.606   7.387   4.649
 5707WAT     H217364   8.525   7.502   4.565
 5708WAT      O17365   9.163   9.328   6.892
 5708WAT     H117366   9.114   9.415   6.896
 5708WAT     H217367   9.172   9.299   6.796
 5709WAT      O17368   6.235   8.171   4.526
 5709WAT     H117369   6.333   8.189   4.517
 5709WAT     H217370   6.218   8.073   4.518
 5710WAT      O17371   3.824   0.595   7.679
 5710WAT     H117372   3.804   0.687   7.647
 5710WAT     H217373   3.763   0.530   7.632
 5711WAT      O17374   7.366   8.718   5.979
 5711WAT     H117375   7.274   8.719   5.939
 5711WAT     H217376   7.361   8.684   6.073
 5712WAT      O17377   5.820   3.750   1.572
 5712WAT     H117378   5.731   3.747   1.526
 5712WAT     H217379   5.893   3.747   1.504
 5713WAT      O17380   1.341   7.985   8.921
 5713WAT     H117381   1.332   8.047   8.998
 5713WAT     H217382   1.318   8.033   8.836
 5714WAT      O17383   5.169   6.467   2.172
 5714WAT     H117384   5.079   6.473   2.128
 5714WAT     H217385   5.198   6.559   2.200
 5715WAT      O17386   4.374   0.206   8.887
 5715WAT     H117387   4.407   0.196   8.981
 5715WAT     H217388   4.337   0.298   8.875
 5716WAT      O17389   6.956   1.731   5.982
 5716WAT     H117390   6.873   1.677   5.967
 5716WAT     H217391   6.950   1.816   5.930
 5717WAT      O17392   8.918   4.868   6.344
 5717WAT     H117393   8.840   4.899   6.398
 5717WAT     H217394   8.937   4.772   6.364
 5718WAT      O17395   7.621   4.380   2.939
 5718WAT     H117396   7.589   4.430   3.020
 5718WAT     H217397   7.654   4.446   2.871
 5719WAT      O17398   7.578   7.271   7.113
 5719WAT     H117399   7.674   7.250   7.132
 5719WAT     H217400   7.573   7.355   7.058
 5720WAT      O17401   1.175   9.749   8.439
 5720WAT     H117402   1.141   9.839   8.412
 5720WAT     H217403   1.174   9.741   8.538
 5721WAT      O17404   3.328   4.087   9.269
 5721WAT     H117405   3.320   4.176   9.225
 5721WAT     H217406   3.421   4.052   9.258
 5722WAT      O17407   7.218   6.041   6.018
 5722WAT     H117408   7.174   6.128   6.036
 5722WAT     H217409   7.250   6.001   6.104
 5723WAT      O17410   3.716   2.015   9.179
 5723WAT     H117411   3.790   2.074   9.146
 5723WAT     H217412   3.755   1.933   9.220
 5724WAT      O17413   3.868   3.038   6.726
 5724WAT     H117414   3.772   3.015   6.709
 5724WAT     H217415   3.923   2.954   6.726
 5725WAT      O17416   7.726   6.949   7.878
 5725WAT     H117417   7.713   6.852   7.857
 5725WAT     H217418   7.650   6.982   7.933
 5726WAT      O17419   1.661   2.220   4.093
 5726WAT     H117420   1.601   2.179   4.162
 5726WAT     H217421   1.737   2.266   4.138
 5727WAT      O17422   9.489   8.014   2.415
 5727WAT     H117423   9.402   7.980   2.452
 5727WAT     H217424   9.483   8.114   2.404
 5728WAT      O17425   6.011   8.565   9.146
 5728WAT     H117426   6.054   8.622   9.076
 5728WAT     H217427   6.052   8.473   9.144
 5729WAT      O17428   6.818   4.863   0.441
 5729WAT     H117429   6.842   4.766   0.439
 5729WAT     H217430   6.901   4.918   0.435
 5730WAT      O17431   5.234   4.603   4.872
 5730WAT     H117432   5.210   4.652   4.789
 5730WAT     H217433   5.203   4.508   4.865
 5731WAT      O17434   8.459   7.628   1.648
 5731WAT     H117435   8.380   7.683   1.673
 5731WAT     H217436   8.429   7.547   1.596
 5732WAT      O17437   8.197   8.931   4.931
 5732WAT     H117438   8.208   8.832   4.928
 5732WAT     H217439   8.187   8.967   4.838
 5733WAT      O17440   2.709   4.229   9.198
 5733WAT     H117441   2.794   4.195   9.236
 5733WAT     H217442   2.718   4.326   9.176
 5734WAT      O17443   0.727   5.610   4.305
 5734WAT     H117444   0.757   5.624   4.399
 5734WAT     H217445   0.629   5.593   4.303
 5735WAT      O17446   6.656   3.155   7.518
 5735WAT     H117447   6.563   3.135   7.549
 5735WAT     H217448   6.700   3.218   7.582
 5736WAT      O17449   3.535   2.440   7.407
 5736WAT     H117450   3.497   2.529   7.380
 5736WAT     H217451   3.567   2.446   7.502
 5737WAT      O17452   0.064   7.366   2.067
 5737WAT     H117453   0.149   7.314   2.074
 5737WAT     H217454   0.008   7.330   1.993
 5738WAT      O17455   1.672   7.473   2.134
 5738WAT     H117456   1.695   7.421   2.217
 5738WAT     H217457   1.756   7.510   2.094
 5739WAT      O17458   7.762   9.732   6.535
 5739WAT     H117459   7.766   9.753   6.632
 5739WAT     H217460   7.854   9.715   6.501
 5740WAT      O17461   6.894   3.380   0.303
 5740WAT     H117462   6.942   3.313   0.246
 5740WAT     H217463   6.851   3.332   0.380
 5741WAT      O17464   2.196   8.838   7.450
 5741WAT     H117465   2.142   8.796   7.377
 5741WAT     H217466   2.276   8.884   7.410
 5742WAT      O17467   0.101   3.558   5.064
 5742WAT     H117468   0.185   3.593   5.022
 5742WAT     H217469   0.120   3.472   5.110
 5743WAT      O17470   1.014   8.995   8.593
 5743WAT     H117471   0.943   9.032   8.653
 5743WAT     H217472   1.104   9.017   8.631
 5744WAT      O17473   1.308   4.506   5.713
 5744WAT     H117474   1.215   4.470   5.706
 5744WAT     H217475   1.345   4.520   5.621
 5745WAT      O17476   3.171   4.364   3.736
 5745WAT     H117477   3.227   4.425   3.792
 5745WAT     H217478   3.075   4.390   3.743
 5746WAT      O17479   4.696   9.613   1.606
 5746WAT     H117480   4.597   9.603   1.617
 5746WAT     H217481   4.743   9.557   1.675
 5747WAT      O17482   1.248   4.764   7.880
 5747WAT     H117483   1.309   4.843   7.890
 5747WAT     H217484   1.302   4.680   7.886
 5748WAT      O17485   5.541   1.423   1.436
 5748WAT     H117486   5.561   1.430   1.338
 5748WAT     H217487   5.526   1.514   1.474
 5749WAT      O17488   3.317   1.065   6.100
 5749WAT     H117489   3.299   1.087   6.004
 5749WAT     H217490   3.234   1.031   6.142
 5750WAT      O17491   9.664   1.649   5.337
 5750WAT     H117492   9.721   1.571   5.310
 5750WAT     H217493   9.593   1.664   5.268
 5751WAT      O17494   6.485   7.243   7.227
 5751WAT     H117495   6.463   7.163   7.284
 5751WAT     H217496   6.421   7.249   7.151
 5752WAT      O17497   5.247   5.703   3.998
 5752WAT     H117498   5.149   5.689   3.984
 5752WAT     H217499   5.270   5.798   3.977
 5753WAT      O17500   0.438   5.987   7.703
 5753WAT     H117501   0.393   5.949   7.783
 5753WAT     H217502   0.513   5.928   7.675
 5754WAT      O17503   7.381   5.448   2.349
 5754WAT     H117504   7.331   5.401   2.421
 5754WAT     H217505   7.316   5.489   2.285
 5755WAT      O17506   4.015   9.292   9.010
 5755WAT     H117507   4.114   9.277   9.000
 5755WAT     H217508   3.966   9.226   8.952
 5756WAT      O17509   2.807   9.259   8.277
 5756WAT     H117510   2.880   9.298   8.332
 5756WAT     H217511   2.793   9.163   8.304
 5757WAT      O17512   8.594   1.193   8.357
 5757WAT     H117513   8.652   1.274   8.365
 5757WAT     H217514   8.509   1.207   8.408
 5758WAT      O17515   0.090   1.855   1.913
 5758WAT     H117516   0.157   1.922   1.881
 5758WAT     H217517   0.065   1.794   1.838
 5759WAT      O17518   7.673   5.293   4.767
 5759WAT     H117519   7.746   5.337   4.715
 5759WAT     H217520   7.635   5.357   4.833
 5760WAT      O17521   5.315   9.812   8.110
 5760WAT     H117522   5.284   9.720   8.087
 5760WAT     H217523   5.260   9.879   8.060
 5761WAT      O17524   1.203   6.281   1.701
 5761WAT     H117525   1.282   6.220   1.693
 5761WAT     H217526   1.211   6.336   1.784
 5762WAT      O17527   3.373   1.490   2.968
 5762WAT     H117528   3.281   1.514   2.996
 5762WAT     H217529   3.438   1.557   3.005
 5763WAT      O17530   0.859   3.245   8.500
 5763WAT     H117531   0.914   3.259   8.582
 5763WAT     H217532   0.831   3.334   8.463
 5764WAT      O17533   5.421   1.183   3.548
 5764WAT     H117534   5.400   1.147   3.639
 5764WAT     H217535   5.511   1.225   3.550
 5765WAT      O17536   9.336   1.065   5.130
 5765WAT     H117537   9.394   0.985   5.116
 5765WAT     H217538   9.308   1.070   5.226
 5766WAT      O17539   9.584   8.814   1.774
 5766WAT     H117540   9.556   8.894   1.828
 5766WAT     H217541   9.680   8.793   1.793
 5767WAT      O17542   6.373   9.577   9.558
 5767WAT     H117543   6.276   9.573   9.583
 5767WAT     H217544   6.383   9.561   9.460
 5768WAT      O17545   8.086   9.740   6.157
 5768WAT     H117546   8.174   9.699   6.133
 5768WAT     H217547   8.034   9.759   6.074
 5769WAT      O17548   7.175   8.409   5.173
 5769WAT     H117549   7.212   8.341   5.109
 5769WAT     H217550   7.247   8.436   5.238
 5770WAT      O17551   4.814   7.349   0.020
 5770WAT     H117552   4.792   7.312   0.110
 5770WAT     H217553   4.856   7.277  -0.036
 5771WAT      O17554   9.622   1.982   6.078
 5771WAT     H117555   9.636   2.001   6.175
 5771WAT     H217556   9.700   1.929   6.043
 5772WAT      O17557   8.453   2.046   6.855
 5772WAT     H117558   8.359   2.048   6.821
 5772WAT     H217559   8.505   2.122   6.814
 5773WAT      O17560   3.353   2.899   9.158
 5773WAT     H117561   3.439   2.848   9.163
 5773WAT     H217562   3.340   2.934   9.066
 5774WAT      O17563   5.833   3.529   2.769
 5774WAT     H117564   5.891   3.610   2.761
 5774WAT     H217565   5.843   3.473   2.687
 5775WAT      O17566   1.027   6.170   6.865
 5775WAT     H117567   1.068   6.234   6.929
 5775WAT     H217568   0.931   6.156   6.889
 5776WAT      O17569   3.923   0.496   2.662
 5776WAT     H117570   3.904   0.424   2.729
 5776WAT     H217571   3.907   0.462   2.570
 5777WAT      O17572   0.730   8.530   5.701
 5777WAT     H117573   0.766   8.587   5.775
 5777WAT     H217574   0.805   8.483   5.655
 5778WAT      O17575   7.554   8.096   0.408
 5778WAT     H117576   7.464   8.068   0.440
 5778WAT     H217577   7.625   8.049   0.460
 5779WAT      O17578   9.817   3.730   9.637
 5779WAT     H117579   9.750   3.803   9.649
 5779WAT     H217580   9.796   3.680   9.552
 5780WAT      O17581   3.689   8.565   6.600
 5780WAT     H117582   3.708   8.660   6.576
 5780WAT     H217583   3.621   8.562   6.672
 5781WAT      O17584   4.238   4.513   8.548
 5781WAT     H117585   4.203   4.605   8.566
 5781WAT     H217586   4.173   4.464   8.491
 5782WAT      O17587   7.744   7.251   1.524
 5782WAT     H117588   7.732   7.193   1.443
 5782WAT     H217589   7.806   7.326   1.503
 5783WAT      O17590   8.022   3.975   6.364
 5783WAT     H117591   8.054   3.900   6.307
 5783WAT     H217592   7.951   4.026   6.316
 5784WAT      O17593   0.183   4.041   4.555
 5784WAT     H117594   0.128   3.985   4.616
 5784WAT     H217595   0.242   3.982   4.500
 5785WAT      O17596   7.008   5.429   8.374
 5785WAT     H117597   7.067   5.496   8.331
 5785WAT     H217598   6.989   5.456   8.468
 5786WAT      O17599   3.676   9.662   3.234
 5786WAT     H117600   3.693   9.713   3.318
 5786WAT     H217601   3.729   9.576   3.236
 5787WAT      O17602   9.362   1.850   1.385
 5787WAT     H117603   9.455   1.886   1.391
 5787WAT     H217604   9.344   1.793   1.465
 5788WAT      O17605   9.302   1.258   0.283
 5788WAT     H117606   9.348   1.345   0.303
 5788WAT     H217607   9.358   1.182   0.315
 5789WAT      O17608   6.342   0.555   0.069
 5789WAT     H117609   6.342   0.482   0.000
 5789WAT     H217610   6.253   0.557   0.115
 5790WAT      O17611   0.649   5.003   6.661
 5790WAT     H117612   0.556   5.007   6.624
 5790WAT     H217613   0.645   4.994   6.760
 5791WAT      O17614   7.992   3.817   4.597
 5791WAT     H117615   8.056   3.740   4.605
 5791WAT     H217616   7.919   3.794   4.533
 5792WAT      O17617   5.074   6.660   1.148
 5792WAT     H117618   4.977   6.657   1.170
 5792WAT     H217619   5.086   6.659   1.049
 5793WAT      O17620   2.295   6.091   9.863
 5793WAT     H117621   2.338   6.181   9.865
 5793WAT     H217622   2.200   6.100   9.833
 5794WAT      O17623   2.649   1.081   6.179
 5794WAT     H117624   2.662   1.173   6.216
 5794WAT     H217625   2.725   1.058   6.118
 5795WAT      O17626   2.006   1.272   8.494
 5795WAT     H117627   1.910   1.253   8.517
 5795WAT     H217628   2.010   1.355   8.439
 5796WAT      O17629   1.204   9.595   0.560
 5796WAT     H117630   1.209   9.631   0.653
 5796WAT     H217631   1.120   9.628   0.516
 5797WAT      O17632   3.069   1.587   9.718
 5797WAT     H117633   3.140   1.658   9.721
 5797WAT     H217634   2.983   1.627   9.686
 5798WAT      O17635   5.426   6.963   0.979
 5798WAT     H117636   5.521   6.931   0.988
 5798WAT     H217637   5.382   6.915   0.903
 5799WAT      O17638   8.018   1.999   8.855
 5799WAT     H117639   8.073   1.974   8.775
 5799WAT     H217640   8.050   1.948   8.935
 5800WAT      O17641   2.950   1.299   4.451
 5800WAT     H117642   2.938   1.258   4.541
 5800WAT     H217643   2.974   1.395   4.460
 5801WAT      O17644   1.683   9.259   4.922
 5801WAT     H117645   1.586   9.237   4.926
 5801WAT     H217646   1.713   9.293   5.012
 5802WAT      O17647   3.509   2.355   0.669
 5802WAT     H117648   3.460   2.300   0.602
 5802WAT     H217649   3.452   2.368   0.751
 5803WAT      O17650   5.029   7.737   2.135
 5803WAT     H117651   4.958   7.731   2.206
 5803WAT     H217652   5.074   7.648   2.126
 5804WAT      O17653   8.169   8.452   3.905
 5804WAT     H117654   8.188   8.402   3.989
 5804WAT     H217655   8.112   8.531   3.925
 5805WAT      O17656   0.599   8.865   8.850
 5805WAT     H117657   0.536   8.845   8.774
 5805WAT     H217658   0.577   8.806   8.928
 5806WAT      O17659   0.026   9.431   2.904
 5806WAT     H117660  -0.074   9.432   2.897
 5806WAT     H217661   0.065   9.398   2.818
 5807WAT      O17662   0.702   0.518   0.308
 5807WAT     H117663   0.622   0.505   0.367
 5807WAT     H217664   0.693   0.603   0.257
 5808WAT      O17665   0.496   1.288   1.554
 5808WAT     H117666   0.574   1.226   1.550
 5808WAT     H217667   0.513   1.367   1.495
 5809WAT      O17668   0.763   3.308   2.851
 5809WAT     H117669   0.712   3.358   2.782
 5809WAT     H217670   0.831   3.368   2.893
 5810WAT      O17671   2.647   6.136   2.815
 5810WAT     H117672   2.595   6.055   2.843
 5810WAT     H217673   2.702   6.169   2.892
 5811WAT      O17674   9.702   0.648   1.474
 5811WAT     H117675   9.658   0.671   1.387
 5811WAT     H217676   9.654   0.570   1.515
 5812WAT      O17677   5.934   4.982   8.785
 5812WAT     H117678   5.980   4.904   8.743
 5812WAT     H217679   5.864   5.017   8.723
 5813WAT      O17680   8.184   6.553   4.677
 5813WAT     H117681   8.265   6.601   4.710
 5813WAT     H217682   8.151   6.490   4.748
 5814WAT      O17683   7.733   7.819   1.130
 5814WAT     H117684   7.642   7.827   1.172
 5814WAT     H217685   7.769   7.911   1.112
 5815WAT      O17686   0.907   8.688   1.135
 5815WAT     H117687   0.907   8.714   1.231
 5815WAT     H217688   0.829   8.628   1.117
 5816WAT      O17689   6.163   0.446   9.207
 5816WAT     H117690   6.084   0.493   9.168
 5816WAT     H217691   6.133   0.360   9.248
 5817WAT      O17692   8.720   1.022   5.132
 5817WAT     H117693   8.647   1.072   5.179
 5817WAT     H217694   8.755   0.950   5.192
 5818WAT      O17695   6.397   6.463   6.575
 5818WAT     H117696   6.460   6.465   6.496
 5818WAT     H217697   6.324   6.397   6.557
 5819WAT      O17698   9.619   2.541   6.832
 5819WAT     H117699   9.560   2.501   6.902
 5819WAT     H217700   9.712   2.504   6.843
 5820WAT      O17701   6.838   7.813   9.758
 5820WAT     H117702   6.929   7.824   9.718
 5820WAT     H217703   6.785   7.747   9.705
 5821WAT      O17704   2.237   8.393   6.947
 5821WAT     H117705   2.153   8.428   6.987
 5821WAT     H217706   2.221   8.301   6.910
 5822WAT      O17707   2.302   6.839   5.703
 5822WAT     H117708   2.330   6.757   5.752
 5822WAT     H217709   2.353   6.918   5.739
 5823WAT      O17710   8.007   0.785   9.686
 5823WAT     H117711   7.996   0.772   9.588
 5823WAT     H217712   8.017   0.696   9.731
 5824WAT      O17713   4.558   6.944   7.973
 5824WAT     H117714   4.526   7.010   8.042
 5824WAT     H217715   4.497   6.947   7.894
 5825WAT      O17716   6.462   5.721   4.168
 5825WAT     H117717   6.374   5.708   4.213
 5825WAT     H217718   6.461   5.674   4.079
 5826WAT      O17719   2.270   2.358   9.389
 5826WAT     H117720   2.303   2.266   9.368
 5826WAT     H217721   2.346   2.414   9.421
 5827WAT      O17722   4.211   1.582   3.578
 5827WAT     H117723   4.269   1.617   3.505
 5827WAT     H217724   4.120   1.561   3.541
 5828WAT      O17725   8.584   9.226   2.573
 5828WAT     H117726   8.542   9.278   2.648
 5828WAT     H217727   8.538   9.248   2.487
 5829WAT      O17728   1.015   0.114   8.368
 5829WAT     H117729   0.950   0.078   8.436
 5829WAT     H217730   0.968   0.124   8.280
 5830WAT      O17731   8.389   2.520   5.582
 5830WAT     H117732   8.474   2.500   5.632
 5830WAT     H217733   8.410   2.532   5.485
 5831WAT      O17734   7.197   1.805   5.148
 5831WAT     H117735   7.119   1.840   5.200
 5831WAT     H217736   7.203   1.706   5.161
 5832WAT      O17737   3.467   3.297   1.228
 5832WAT     H117738   3.494   3.268   1.320
 5832WAT     H217739   3.389   3.242   1.198
 5833WAT      O17740   0.173   7.956   2.400
 5833WAT     H117741   0.138   8.042   2.363
 5833WAT     H217742   0.174   7.962   2.500
 5834WAT      O17743   5.886   0.792   6.290
 5834WAT     H117744   5.890   0.824   6.195
 5834WAT     H217745   5.794   0.807   6.327
 5835WAT      O17746   9.382   2.745   0.261
 5835WAT     H117747   9.441   2.799   0.320
 5835WAT     H217748   9.421   2.739   0.169
 5836WAT      O17749   1.827   2.019   4.629
 5836WAT     H117750   1.788   2.104   4.593
 5836WAT     H217751   1.836   1.953   4.555
 5837WAT      O17752   0.734   3.162   3.199
 5837WAT     H117753   0.656   3.177   3.139
 5837WAT     H217754   0.759   3.247   3.244
 5838WAT      O17755   4.686   7.238   1.022
 5838WAT     H117756   4.700   7.336   1.037
 5838WAT     H217757   4.749   7.205   0.951
 5839WAT      O17758   0.648   0.282   7.406
 5839WAT     H117759   0.579   0.251   7.472
 5839WAT     H217760   0.703   0.354   7.448
 5840WAT      O17761   2.363   3.864   8.362
 5840WAT     H117762   2.397   3.887   8.453
 5840WAT     H217763   2.365   3.945   8.304
 5841WAT      O17764   0.752   2.396   2.837
 5841WAT     H117765   0.782   2.460   2.765
 5841WAT     H217766   0.761   2.302   2.804
 5842WAT      O17767   9.038   5.028   3.498
 5842WAT     H117768   8.986   5.048   3.581
 5842WAT     H217769   9.132   5.003   3.524
 5843WAT      O17770   6.937   3.635   9.750
 5843WAT     H117771   6.889   3.690   9.681
 5843WAT     H217772   6.872   3.605   9.820
 5844WAT      O17773   2.908   2.590   6.966
 5844WAT     H117774   2.838   2.567   7.034
 5844WAT     H217775   2.976   2.651   7.007
 5845WAT      O17776   3.996   2.896   9.029
 5845WAT     H117777   3.955   2.884   8.939
 5845WAT     H217778   3.931   2.938   9.091
 5846WAT      O17779   7.495   3.367   8.841
 5846WAT     H117780   7.501   3.314   8.757
 5846WAT     H217781   7.577   3.423   8.851
 5847WAT      O17782   4.192   6.418   5.766
 5847WAT     H117783   4.199   6.319   5.753
 5847WAT     H217784   4.271   6.450   5.818
 5848WAT      O17785   4.416   6.405   2.885
 5848WAT     H117786   4.407   6.319   2.834
 5848WAT     H217787   4.419   6.385   2.983
 5849WAT      O17788   5.050   8.654   6.775
 5849WAT     H117789   5.040   8.622   6.869
 5849WAT     H217790   5.100   8.740   6.773
 5850WAT      O17791   0.511   9.371   6.550
 5850WAT     H117792   0.465   9.284   6.568
 5850WAT     H217793   0.609   9.359   6.558
 5851WAT      O17794   7.784   2.696   6.720
 5851WAT     H117795   7.790   2.646   6.807
 5851WAT     H217796   7.689   2.723   6.704
 5852WAT      O17797   0.395   8.904   0.397
 5852WAT     H117798   0.429   8.939   0.309
 5852WAT     H217799   0.307   8.859   0.383
 5853WAT      O17800   4.428   3.395   7.109
 5853WAT     H117801   4.408   3.369   7.015
 5853WAT     H217802   4.475   3.320   7.155
 5854WAT      O17803   8.939   8.102   7.593
 5854WAT     H117804   8.970   8.195   7.574
 5854WAT     H217805   8.846   8.105   7.630
 5855WAT      O17806   3.348   9.549   0.482
 5855WAT     H117807   3.392   9.623   0.432
 5855WAT     H217808   3.407   9.518   0.556
 5856WAT      O17809   3.158   7.458   3.261
 5856WAT     H117810   3.123   7.423   3.348
 5856WAT     H217811   3.165   7.382   3.195
 5857WAT      O17812   4.616   6.572   6.419
 5857WAT     H117813   4.625   6.596   6.322
 5857WAT     H217814   4.672   6.634   6.474
 5858WAT      O17815   2.332   4.756   2.598
 5858WAT     H117816   2.424   4.792   2.585
 5858WAT     H217817   2.286   4.749   2.510
 5859WAT      O17818   1.962   6.926   7.625
 5859WAT     H117819   1.906   6.967   7.696
 5859WAT     H217820   2.051   6.899   7.663
 5860WAT      O17821   0.576   3.751   4.048
 5860WAT     H117822   0.574   3.827   3.982
 5860WAT     H217823   0.635   3.777   4.125
 5861WAT      O17824   8.589   4.724   1.195
 5861WAT     H117825   8.607   4.693   1.102
 5861WAT     H217826   8.613   4.821   1.204
 5862WAT      O17827   2.294   4.675   9.860
 5862WAT     H117828   2.371   4.717   9.907
 5862WAT     H217829   2.232   4.746   9.826
 5863WAT      O17830   5.414   8.870   9.331
 5863WAT     H117831   5.417   8.959   9.375
 5863WAT     H217832   5.482   8.866   9.257
 5864WAT      O17833   0.747   7.005   9.059
 5864WAT     H117834   0.806   6.963   8.989
 5864WAT     H217835   0.723   7.098   9.030
 5865WAT      O17836   7.151   2.446   8.488
 5865WAT     H117837   7.180   2.534   8.451
 5865WAT     H217838   7.057   2.427   8.462
 5866WAT      O17839   7.596   6.875   5.473
 5866WAT     H117840   7.646   6.830   5.399
 5866WAT     H217841   7.620   6.972   5.475
 5867WAT      O17842   4.896   7.801   5.985
 5867WAT     H117843   4.824   7.731   5.986
 5867WAT     H217844   4.971   7.773   6.045
 5868WAT      O17845   3.656   9.026   2.843
 5868WAT     H117846   3.735   8.965   2.856
 5868WAT     H217847   3.634   9.070   2.930
 5869WAT      O17848   9.433   9.186   3.791
 5869WAT     H117849   9.411   9.089   3.793
 5869WAT     H217850   9.348   9.239   3.787
 5870WAT      O17851   0.341   3.572   8.691
 5870WAT     H117852   0.295   3.485   8.673
 5870WAT     H217853   0.292   3.621   8.763
 5871WAT      O17854   9.672   6.393   1.065
 5871WAT     H117855   9.765   6.414   1.037
 5871WAT     H217856   9.616   6.376   0.984
 5872WAT      O17857   6.048   1.355   5.609
 5872WAT     H117858   6.095   1.407   5.538
 5872WAT     H217859   6.075   1.388   5.699
 5873WAT      O17860   3.715   5.313   1.018
 5873WAT     H117861   3.749   5.398   0.977
 5873WAT     H217862   3.616   5.309   1.007
 5874WAT      O17863   7.519   8.893   4.625
 5874WAT     H117864   7.483   8.809   4.666
 5874WAT     H217865   7.474   8.972   4.665
 5875WAT      O17866   4.576   6.214   9.588
 5875WAT     H117867   4.484   6.245   9.563
 5875WAT     H217868   4.578   6.193   9.686
 5876WAT      O17869   7.212   4.887   1.621
 5876WAT     H117870   7.263   4.970   1.644
 5876WAT     H217871   7.116   4.909   1.608
 5877WAT      O17872   5.289   2.425   0.636
 5877WAT     H117873   5.294   2.326   0.646
 5877WAT     H217874   5.220   2.449   0.568
 5878WAT      O17875   1.646   2.674   4.259
 5878WAT     H117876   1.593   2.624   4.328
 5878WAT     H217877   1.713   2.733   4.304
 5879WAT      O17878   2.959   2.485   7.843
 5879WAT     H117879   2.866   2.453   7.824
 5879WAT     H217880   2.973   2.573   7.797
 5880WAT      O17881   4.236   1.346   4.905
 5880WAT     H117882   4.247   1.287   4.825
 5880WAT     H217883   4.163   1.309   4.963
 5881WAT      O17884   3.906   3.588   6.268
 5881WAT     H117885   3.873   3.496   6.285
 5881WAT     H217886   3.929   3.598   6.171
 5882WAT      O17887   8.372   8.343   6.355
 5882WAT     H117888   8.338   8.256   6.388
 5882WAT     H217889   8.467   8.356   6.386
 5883WAT      O17890   1.586   2.953   4.719
 5883WAT     H117891   1.653   2.930   4.648
 5883WAT     H217892   1.510   3.004   4.677
 5884WAT      O17893   6.261   1.255   5.278
 5884WAT     H117894   6.231   1.341   5.318
 5884WAT     H217895   6.283   1.189   5.350
 5885WAT      O17896  -0.003   2.149   6.241
 5885WAT     H117897   0.069   2.079   6.242
 5885WAT     H217898  -0.015   2.183   6.147
 5886WAT      O17899   9.549   5.783   5.106
 5886WAT     H117900   9.574   5.824   5.018
 5886WAT     H217901   9.510   5.692   5.091
 5887WAT      O17902   4.828   7.451   5.543
 5887WAT     H117903   4.847   7.548   5.558
 5887WAT     H217904   4.907   7.409   5.498
 5888WAT      O17905   4.455   6.337   0.439
 5888WAT     H117906   4.519   6.271   0.400
 5888WAT     H217907   4.395   6.372   0.367
 5889WAT      O17908   3.064   8.029   5.695
 5889WAT     H117909   3.135   7.975   5.649
 5889WAT     H217910   3.022   7.973   5.766
 5890WAT      O17911   1.108   9.615   0.012
 5890WAT     H117912   1.035   9.561   0.053
 5890WAT     H217913   1.091   9.627  -0.086
 5891WAT      O17914   4.059   8.032   1.962
 5891WAT     H117915   4.091   7.965   2.029
 5891WAT     H217916   4.103   8.014   1.874
 5892WAT      O17917   4.237   8.084   4.086
 5892WAT     H117918   4.333   8.090   4.058
 5892WAT     H217919   4.228   8.017   4.160
 5893WAT      O17920   2.148   7.648   8.184
 5893WAT     H117921   2.138   7.553   8.213
 5893WAT     H217922   2.128   7.709   8.261
 5894WAT      O17923   1.203   8.554   0.069
 5894WAT     H117924   1.151   8.483   0.022
 5894WAT     H217925   1.248   8.515   0.149
 5895WAT      O17926   5.049   1.162   4.109
 5895WAT     H117927   5.032   1.260   4.117
 5895WAT     H217928   5.125   1.137   4.170
 5896WAT      O17929   7.477   1.391   6.344
 5896WAT     H117930   7.543   1.318   6.327
 5896WAT     H217931   7.417   1.364   6.419
 5897WAT      O17932   7.356   3.452   9.259
 5897WAT     H117933   7.445   3.485   9.291
 5897WAT     H217934   7.284   3.489   9.318
 5898WAT      O17935   2.591   9.393   2.474
 5898WAT     H117936   2.513   9.405   2.535
 5898WAT     H217937   2.563   9.411   2.379
 5899WAT      O17938   7.849   5.052   0.784
 5899WAT     H117939   7.853   4.989   0.707
 5899WAT     H217940   7.883   5.006   0.866
 5900WAT      O17941   3.691   7.640   5.596
 5900WAT     H117942   3.620   7.693   5.549
 5900WAT     H217943   3.780   7.683   5.582
 5901WAT      O17944   8.624   1.129   7.330
 5901WAT     H117945   8.686   1.205   7.314
 5901WAT     H217946   8.676   1.048   7.357
 5902WAT      O17947   8.471   0.198   9.705
 5902WAT     H117948   8.561   0.161   9.729
 5902WAT     H217949   8.444   0.164   9.614
 5903WAT      O17950   0.293   7.337   1.118
 5903WAT     H117951   0.225   7.264   1.109
 5903WAT     H217952   0.347   7.344   1.034
 5904WAT      O17953   2.022   3.060   7.582
 5904WAT     H117954   1.936   3.091   7.623
 5904WAT     H217955   2.089   3.135   7.588
 5905WAT      O17956   0.036   7.885   2.781
 5905WAT     H117957  -0.008   7.876   2.692
 5905WAT     H217958  -0.005   7.962   2.831
 5906WAT      O17959   7.917   1.445   2.129
 5906WAT     H117960   7.981   1.478   2.198
 5906WAT     H217961   7.879   1.358   2.159
 5907WAT      O17962   1.482   2.523   4.492
 5907WAT     H117963   1.420   2.461   4.539
 5907WAT     H217964   1.570   2.524   4.538
 5908WAT      O17965   5.889   4.261   8.622
 5908WAT     H117966   5.807   4.312   8.651
 5908WAT     H217967   5.872   4.221   8.532
 5909WAT      O17968   1.318   9.019   1.313
 5909WAT     H117969   1.366   9.103   1.289
 5909WAT     H217970   1.266   8.986   1.233
 5910WAT      O17971   7.611   5.518   9.353
 5910WAT     H117972   7.574   5.472   9.433
 5910WAT     H217973   7.642   5.609   9.378
 5911WAT      O17974   8.060   6.136   0.778
 5911WAT     H117975   8.009   6.151   0.863
 5911WAT     H217976   8.128   6.208   0.767
 5912WAT      O17977   6.223   4.139   2.243
 5912WAT     H117978   6.152   4.094   2.188
 5912WAT     H217979   6.180   4.198   2.311
 5913WAT      O17980   4.910   7.181   0.365
 5913WAT     H117981   4.883   7.105   0.306
 5913WAT     H217982   4.842   7.254   0.359
 5914WAT      O17983   4.106   6.485   2.532
 5914WAT     H117984   4.171   6.434   2.476
 5914WAT     H217985   4.017   6.440   2.531
 5915WAT      O17986   5.070   1.722   7.228
 5915WAT     H117987   5.158   1.728   7.181
 5915WAT     H217988   5.078   1.658   7.305
 5916WAT      O17989   7.154   7.913   0.672
 5916WAT     H117990   7.090   7.836   0.669
 5916WAT     H217991   7.188   7.924   0.765
 5917WAT      O17992   1.091   5.879   0.915
 5917WAT     H117993   1.163   5.915   0.855
 5917WAT     H217994   1.005   5.874   0.864
 5918WAT      O17995   2.043   2.388   0.815
 5918WAT     H117996   2.014   2.472   0.769
 5918WAT     H217997   2.121   2.348   0.766
 5919WAT      O17998   5.824   1.103   6.155
 5919WAT     H117999   5.850   1.030   6.091
 5919WAT     H218000   5.903   1.163   6.170
 5920WAT      O18001   9.145   9.405   2.584
 5920WAT     H118002   9.068   9.345   2.608
 5920WAT     H218003   9.127   9.497   2.620
 5921WAT      O18004   3.627   4.324   9.366
 5921WAT     H118005   3.532   4.325   9.398
 5921WAT     H218006   3.630   4.331   9.267
 5922WAT      O18007   5.062   0.185   5.153
 5922WAT     H118008   5.081   0.243   5.074
 5922WAT     H218009   5.044   0.092   5.122
 5923WAT      O18010   0.813   5.646   1.847
 5923WAT     H118011   0.846   5.731   1.887
 5923WAT     H218012   0.713   5.643   1.850
 5924WAT      O18013   6.361   4.287   4.066
 5924WAT     H118014   6.384   4.384   4.077
 5924WAT     H218015   6.443   4.232   4.079
 5925WAT      O18016   2.785   1.780   7.114
 5925WAT     H118017   2.695   1.760   7.153
 5925WAT     H218018   2.851   1.712   7.147
 5926WAT      O18019   5.348   6.441   2.532
 5926WAT     H118020   5.356   6.342   2.522
 5926WAT     H218021   5.253   6.469   2.524
 5927WAT      O18022   4.185   1.394   1.429
 5927WAT     H118023   4.192   1.474   1.488
 5927WAT     H218024   4.236   1.411   1.344
 5928WAT      O18025   3.859   8.478   3.432
 5928WAT     H118026   3.877   8.408   3.363
 5928WAT     H218027   3.932   8.477   3.500
 5929WAT      O18028   1.348   0.055   5.276
 5929WAT     H118029   1.255   0.070   5.241
 5929WAT     H218030   1.347   0.061   5.376
 5930WAT      O18031   1.613   3.618   1.497
 5930WAT     H118032   1.539   3.632   1.562
 5930WAT     H218033   1.687   3.683   1.517
 5931WAT      O18034   1.079   5.857   9.136
 5931WAT     H118035   1.050   5.952   9.141
 5931WAT     H218036   1.168   5.846   9.181
 5932WAT      O18037   3.712   0.076   8.958
 5932WAT     H118038   3.647   0.032   8.896
 5932WAT     H218039   3.705   0.175   8.948
 5933WAT      O18040   0.154   0.478   8.917
 5933WAT     H118041   0.094   0.517   8.987
 5933WAT     H218042   0.099   0.426   8.852
 5934WAT      O18043   5.596   6.775   8.773
 5934WAT     H118044   5.674   6.797   8.831
 5934WAT     H218045   5.542   6.702   8.816
 5935WAT      O18046   0.655   5.271   1.833
 5935WAT     H118047   0.564   5.299   1.803
 5935WAT     H218048   0.682   5.324   1.913
 5936WAT      O18049   7.238   0.392   3.207
 5936WAT     H118050   7.212   0.295   3.210
 5936WAT     H218051   7.163   0.448   3.242
 5937WAT      O18052   5.795   0.981   4.330
 5937WAT     H118053   5.713   1.029   4.363
 5937WAT     H218054   5.877   1.029   4.362
 5938WAT      O18055   1.873   3.622   3.160
 5938WAT     H118056   1.817   3.653   3.083
 5938WAT     H218057   1.857   3.681   3.239
 5939WAT      O18058   2.551   2.352   7.278
 5939WAT     H118059   2.532   2.254   7.264
 5939WAT     H218060   2.473   2.405   7.245
 5940WAT      O18061   6.167   4.673   9.546
 5940WAT     H118062   6.142   4.576   9.548
 5940WAT     H218063   6.159   4.707   9.452
 5941WAT      O18064   1.597   8.613   3.554
 5941WAT     H118065   1.538   8.591   3.477
 5941WAT     H218066   1.692   8.591   3.531
 5942WAT      O18067   8.403   8.995   1.707
 5942WAT     H118068   8.482   8.977   1.648
 5942WAT     H218069   8.319   8.982   1.654
 5943WAT      O18070   3.354   3.429   4.409
 5943WAT     H118071   3.371   3.386   4.320
 5943WAT     H218072   3.438   3.472   4.443
 5944WAT      O18073   1.155   6.203   3.500
 5944WAT     H118074   1.237   6.161   3.539
 5944WAT     H218075   1.083   6.208   3.569
 5945WAT      O18076   4.427   4.960   1.588
 5945WAT     H118077   4.459   4.871   1.556
 5945WAT     H218078   4.333   4.976   1.557
 5946WAT      O18079   0.943   7.512   6.615
 5946WAT     H118080   0.907   7.551   6.530
 5946WAT     H218081   0.979   7.585   6.673
 5947WAT      O18082   3.169   0.909   5.194
 5947WAT     H118083   3.140   0.900   5.099
 5947WAT     H218084   3.268   0.896   5.201
 5948WAT      O18085   0.924   6.028   4.604
 5948WAT     H118086   0.899   6.061   4.695
 5948WAT     H218087   0.856   5.962   4.573
 5949WAT      O18088   9.124   1.599   4.906
 5949WAT     H118089   9.205   1.568   4.955
 5949WAT     H218090   9.049   1.536   4.922
 5950WAT      O18091   9.000   2.538   5.335
 5950WAT     H118092   8.973   2.446   5.364
 5950WAT     H218093   9.100   2.544   5.334
 5951WAT      O18094   0.966   3.322   8.753
 5951WAT     H118095   0.986   3.224   8.749
 5951WAT     H218096   0.989   3.356   8.844
 5952WAT      O18097   5.904   1.002   2.880
 5952WAT     H118098   5.890   0.903   2.869
 5952WAT     H218099   5.863   1.032   2.966
 5953WAT      O18100   2.780   7.626   3.477
 5953WAT     H118101   2.764   7.539   3.430
 5953WAT     H218102   2.793   7.699   3.411
 5954WAT      O18103   3.515   8.643   2.322
 5954WAT     H118104   3.596   8.607   2.276
 5954WAT     H218105   3.525   8.631   2.421
 5955WAT      O18106   5.284   2.141   7.263
 5955WAT     H118107   5.220   2.067   7.284
 5955WAT     H218108   5.240   2.229   7.283
 5956WAT      O18109   6.322   3.221   4.660
 5956WAT     H118110   6.290   3.315   4.653
 5956WAT     H218111   6.414   3.214   4.623
 5957WAT      O18112   7.586   5.625   0.550
 5957WAT     H118113   7.612   5.538   0.594
 5957WAT     H218114   7.669   5.674   0.523
 5958WAT      O18115   2.188   2.048   6.981
 5958WAT     H118116   2.217   2.134   7.022
 5958WAT     H218117   2.267   1.988   6.970
 5959WAT      O18118   7.836   7.907   8.891
 5959WAT     H118119   7.853   7.813   8.922
 5959WAT     H218120   7.909   7.936   8.830
 5960WAT      O18121   9.097   5.593   0.118
 5960WAT     H118122   9.162   5.636   0.055
 5960WAT     H218123   9.085   5.497   0.092
 5961WAT      O18124   0.860   7.888   3.579
 5961WAT     H118125   0.938   7.825   3.582
 5961WAT     H218126   0.878   7.965   3.641
 5962WAT      O18127   7.302   1.047   9.120
 5962WAT     H118128   7.288   0.949   9.135
 5962WAT     H218129   7.350   1.085   9.199
 5963WAT      O18130   2.853   4.766   7.540
 5963WAT     H118131   2.937   4.726   7.575
 5963WAT     H218132   2.853   4.865   7.558
 5964WAT      O18133   8.227   2.295   2.224
 5964WAT     H118134   8.270   2.226   2.281
 5964WAT     H218135   8.292   2.368   2.205
 5965WAT      O18136   6.578   5.609   4.408
 5965WAT     H118137   6.527   5.617   4.322
 5965WAT     H218138   6.550   5.525   4.455
 5966WAT      O18139   9.390   2.380   9.020
 5966WAT     H118140   9.330   2.373   8.940
 5966WAT     H218141   9.408   2.288   9.056
 5967WAT      O18142   8.472   9.772   8.371
 5967WAT     H118143   8.559   9.723   8.372
 5967WAT     H218144   8.422   9.749   8.288
 5968WAT      O18145   7.537   2.386   8.131
 5968WAT     H118146   7.465   2.454   8.112
 5968WAT     H218147   7.502   2.295   8.110
 5969WAT      O18148   3.919   2.640   1.350
 5969WAT     H118149   3.962   2.731   1.348
 5969WAT     H218150   3.989   2.570   1.343
 5970WAT      O18151   5.137   4.102   4.342
 5970WAT     H118152   5.158   4.085   4.246
 5970WAT     H218153   5.157   4.198   4.364
 5971WAT      O18154   3.025   1.758   0.756
 5971WAT     H118155   3.124   1.744   0.755
 5971WAT     H218156   2.995   1.785   0.664
 5972WAT      O18157   5.587   9.665   4.195
 5972WAT     H118158   5.618   9.589   4.251
 5972WAT     H218159   5.517   9.717   4.245
 5973WAT      O18160   6.268   1.270   3.699
 5973WAT     H118161   6.340   1.229   3.756
 5973WAT     H218162   6.190   1.294   3.757
 5974WAT      O18163   7.351   1.225   5.906
 5974WAT     H118164   7.336   1.281   5.824
 5974WAT     H218165   7.264   1.184   5.934
 5975WAT      O18166   5.435   6.362   2.892
 5975WAT     H118167   5.443   6.328   2.986
 5975WAT     H218168   5.382   6.297   2.837
 5976WAT      O18169   6.060   8.613   4.563
 5976WAT     H118170   6.054   8.594   4.661
 5976WAT     H218171   6.152   8.646   4.542
 5977WAT      O18172   6.873   1.457   6.835
 5977WAT     H118173   6.863   1.404   6.919
 5977WAT     H218174   6.785   1.462   6.788
 5978WAT      O18175   8.504   4.652   9.596
 5978WAT     H118176   8.556   4.701   9.526
 5978WAT     H218177   8.421   4.703   9.617
 5979WAT      O18178   2.251   5.065   0.689
 5979WAT     H118179   2.349   5.081   0.675
 5979WAT     H218180   2.205   5.152   0.702
 5980WAT      O18181   0.099   6.209   5.269
 5980WAT     H118182   0.166   6.221   5.343
 5980WAT     H218183   0.008   6.231   5.302
 5981WAT      O18184   2.219   7.058   0.653
 5981WAT     H118185   2.251   7.132   0.712
 5981WAT     H218186   2.218   6.972   0.704
 5982WAT      O18187   7.649   6.404   1.442
 5982WAT     H118188   7.622   6.381   1.349
 5982WAT     H218189   7.733   6.354   1.466
 5983WAT      O18190   7.343   8.669   0.398
 5983WAT     H118191   7.380   8.709   0.314
 5983WAT     H218192   7.254   8.628   0.379
 5984WAT      O18193   5.082   2.603   9.080
 5984WAT     H118194   5.073   2.672   9.152
 5984WAT     H218195   5.171   2.614   9.035
 5985WAT      O18196   6.593   1.073   4.810
 5985WAT     H118197   6.679   1.038   4.774
 5985WAT     H218198   6.567   1.156   4.760
 5986WAT      O18199   4.746   8.486   0.777
 5986WAT     H118200   4.792   8.424   0.714
 5986WAT     H218201   4.658   8.513   0.739
 5987WAT      O18202   9.317   5.755   6.850
 5987WAT     H118203   9.278   5.704   6.927
 5987WAT     H218204   9.416   5.760   6.860
 5988WAT      O18205   2.526   2.137   7.666
 5988WAT     H118206   2.554   2.154   7.760
 5988WAT     H218207   2.598   2.088   7.617
 5989WAT      O18208   2.720   4.014   9.857
 5989WAT     H118209   2.753   3.942   9.796
 5989WAT     H218210   2.794   4.042   9.919
 5990WAT      O18211   5.410   5.474   1.409
 5990WAT     H118212   5.496   5.430   1.383
 5990WAT     H218213   5.370   5.426   1.487
 5991WAT      O18214   0.635   1.505   7.249
 5991WAT     H118215   0.612   1.602   7.238
 5991WAT     H218216   0.611   1.456   7.166
 5992WAT      O18217   6.378   7.255   6.959
 5992WAT     H118218   6.328   7.340   6.942
 5992WAT     H218219   6.468   7.259   6.914
 5993WAT      O18220   3.434   8.808   0.406
 5993WAT     H118221   3.383   8.772   0.485
 5993WAT     H218222   3.382   8.883   0.365
 5994WAT      O18223   7.758   7.372   9.802
 5994WAT     H118224   7.695   7.389   9.878
 5994WAT     H218225   7.747   7.277   9.771
 5995WAT      O18226   6.146   9.428   6.512
 5995WAT     H118227   6.146   9.379   6.599
 5995WAT     H218228   6.082   9.505   6.516
 5996WAT      O18229   1.780   8.401   2.610
 5996WAT     H118230   1.747   8.391   2.704
 5996WAT     H218231   1.845   8.477   2.606
 5997WAT      O18232   9.051   8.525   3.915
 5997WAT     H118233   9.040   8.426   3.927
 5997WAT     H218234   8.962   8.566   3.898
 5998WAT      O18235   4.234   7.833   3.080
 5998WAT     H118236   4.189   7.744   3.068
 5998WAT     H218237   4.190   7.900   3.021
 5999WAT      O18238   2.588   4.898   9.240
 5999WAT     H118239   2.501   4.858   9.211
 5999WAT     H218240   2.619   4.853   9.325
 6000WAT      O18241   8.789   5.223   0.205
 6000WAT     H118242   8.820   5.195   0.114
 6000WAT     H218243   8.716   5.290   0.197
 6001WAT      O18244   6.245   8.952   8.563
 6001WAT     H118245   6.181   8.983   8.634
 6001WAT     H218246   6.320   8.903   8.606
 6002WAT      O18247   7.635   1.276   5.379
 6002WAT     H118248   7.578   1.207   5.423
 6002WAT     H218249   7.664   1.344   5.446
 6003WAT      O18250   2.550   2.104   6.995
 6003WAT     H118251   2.535   2.145   7.085
 6003WAT     H218252   2.623   2.154   6.948
 6004WAT      O18253   9.522   2.223   6.951
 6004WAT     H118254   9.584   2.195   6.877
 6004WAT     H218255   9.491   2.141   7.000
 6005WAT      O18256   4.517   0.203   7.119
 6005WAT     H118257   4.615   0.212   7.102
 6005WAT     H218258   4.487   0.277   7.179
 6006WAT      O18259   9.355   1.626   2.662
 6006WAT     H118260   9.376   1.589   2.572
 6006WAT     H218261   9.316   1.553   2.719
 6007WAT      O18262   0.906   5.519   6.367
 6007WAT     H118263   0.849   5.599   6.382
 6007WAT     H218264   0.999   5.537   6.400
 6008WAT      O18265   2.267   6.528   4.771
 6008WAT     H118266   2.315   6.449   4.809
 6008WAT     H218267   2.285   6.535   4.673
 6009WAT      O18268   6.895   5.208   2.723
 6009WAT     H118269   6.871   5.165   2.810
 6009WAT     H218270   6.958   5.284   2.740
 6010WAT      O18271   2.361   3.936   8.824
 6010WAT     H118272   2.294   3.987   8.878
 6010WAT     H218273   2.413   3.875   8.883
 6011WAT      O18274   6.541   1.131   1.840
 6011WAT     H118275   6.476   1.067   1.799
 6011WAT     H218276   6.524   1.138   1.938
 6012WAT      O18277   6.041   8.132   1.200
 6012WAT     H118278   6.012   8.188   1.122
 6012WAT     H218279   6.019   8.180   1.285
 6013WAT      O18280   3.107   0.822   8.573
 6013WAT     H118281   3.178   0.768   8.618
 6013WAT     H218282   3.130   0.835   8.477
 6014WAT      O18283   9.065   3.323   5.823
 6014WAT     H118284   9.130   3.248   5.827
 6014WAT     H218285   9.062   3.370   5.911
 6015WAT      O18286   0.838   0.993   2.174
 6015WAT     H118287   0.867   0.976   2.080
 6015WAT     H218288   0.908   1.046   2.221
 6016WAT      O18289   5.470   8.555   1.602
 6016WAT     H118290   5.387   8.595   1.641
 6016WAT     H218291   5.533   8.529   1.676
 6017WAT      O18292   1.461   3.168   5.002
 6017WAT     H118293   1.419   3.080   4.983
 6017WAT     H218294   1.420   3.208   5.084
 6018WAT      O18295   3.249   4.095   9.524
 6018WAT     H118296   3.190   4.016   9.512
 6018WAT     H218297   3.300   4.113   9.440
 6019WAT      O18298   4.068   3.825   8.848
 6019WAT     H118299   4.123   3.834   8.765
 6019WAT     H218300   3.991   3.763   8.831
 6020WAT      O18301   3.360   3.494   1.613
 6020WAT     H118302   3.352   3.534   1.704
 6020WAT     H218303   3.273   3.500   1.565
 6021WAT      O18304   5.249   8.246   3.402
 6021WAT     H118305   5.289   8.333   3.373
 6021WAT     H218306   5.192   8.260   3.483
 6022WAT      O18307   1.148   8.867   7.796
 6022WAT     H118308   1.200   8.818   7.866
 6022WAT     H218309   1.057   8.827   7.788
 6023WAT      O18310   1.277   3.657   8.892
 6023WAT     H118311   1.321   3.726   8.834
 6023WAT     H218312   1.211   3.702   8.952
 6024WAT      O18313   4.195   7.475   1.942
 6024WAT     H118314   4.170   7.567   1.971
 6024WAT     H218315   4.222   7.476   1.846
 6025WAT      O18316   1.365   6.968   6.548
 6025WAT     H118317   1.338   7.055   6.505
 6025WAT     H218318   1.376   6.982   6.646
 6026WAT      O18319   0.378   0.940   4.208
 6026WAT     H118320   0.397   0.884   4.127
 6026WAT     H218321   0.462   0.983   4.240
 6027WAT      O18322   7.378   1.617   5.540
 6027WAT     H118323   7.425   1.689   5.489
 6027WAT     H218324   7.379   1.533   5.486
 6028WAT      O18325   0.876   3.499   1.149
 6028WAT     H118326   0.901   3.443   1.228
 6028WAT     H218327   0.776   3.505   1.143
 6029WAT      O18328   6.397   9.292   2.035
 6029WAT     H118329   6.473   9.332   1.985
 6029WAT     H218330   6.327   9.362   2.051
 6030WAT      O18331   5.500   0.291   4.094
 6030WAT     H118332   5.534   0.362   4.033
 6030WAT     H218333   5.503   0.203   4.046
 6031WAT      O18334   5.944   6.551   7.036
 6031WAT     H118335   5.958   6.544   6.937
 6031WAT     H218336   6.008   6.489   7.083
 6032WAT      O18337   3.114   1.569   3.364
 6032WAT     H118338   3.037   1.582   3.301
 6032WAT     H218339   3.187   1.520   3.316
 6033WAT      O18340   6.125   5.780   6.683
 6033WAT     H118341   6.067   5.800   6.762
 6033WAT     H218342   6.125   5.858   6.620
 6034WAT      O18343   9.620   9.137   3.576
 6034WAT     H118344   9.705   9.189   3.582
 6034WAT     H218345   9.548   9.184   3.628
 6035WAT      O18346   7.709   1.487   4.129
 6035WAT     H118347   7.638   1.420   4.147
 6035WAT     H218348   7.795   1.439   4.108
 6036WAT      O18349   9.065   0.903   3.738
 6036WAT     H118350   9.074   0.803   3.734
 6036WAT     H218351   8.994   0.933   3.675
 6037WAT      O18352   3.251   6.419   0.473
 6037WAT     H118353   3.170   6.468   0.506
 6037WAT     H218354   3.264   6.336   0.527
 6038WAT      O18355   6.884   4.947   2.004
 6038WAT     H118356   6.799   4.947   2.058
 6038WAT     H218357   6.922   5.039   2.003
 6039WAT      O18358   6.323   2.948   8.791
 6039WAT     H118359   6.286   3.040   8.798
 6039WAT     H218360   6.282   2.901   8.713
 6040WAT      O18361   8.720   4.453   6.942
 6040WAT     H118362   8.628   4.415   6.930
 6040WAT     H218363   8.770   4.396   7.007
 6041WAT      O18364   5.573   6.513   5.539
 6041WAT     H118365   5.538   6.604   5.559
 6041WAT     H218366   5.530   6.446   5.598
 6042WAT      O18367   9.448   1.110   2.821
 6042WAT     H118368   9.503   1.036   2.859
 6042WAT     H218369   9.439   1.183   2.889
 6043WAT      O18370   3.620   7.227   4.362
 6043WAT     H118371   3.618   7.224   4.462
 6043WAT     H218372   3.580   7.143   4.325
 6044WAT      O18373   7.444   1.436   1.679
 6044WAT     H118374   7.497   1.352   1.674
 6044WAT     H218375   7.498   1.507   1.725
 6045WAT      O18376   7.263   8.349   2.022
 6045WAT     H118377   7.202   8.413   1.975
 6045WAT     H218378   7.298   8.392   2.105
 6046WAT      O18379   8.426   4.001   9.567
 6046WAT     H118380   8.500   4.065   9.549
 6046WAT     H218381   8.421   3.935   9.492
 6047WAT      O18382   6.637   6.347   2.428
 6047WAT     H118383   6.617   6.281   2.356
 6047WAT     H218384   6.736   6.349   2.445
 6048WAT      O18385   0.955   0.223   2.461
 6048WAT     H118386   1.051   0.249   2.472
 6048WAT     H218387   0.948   0.126   2.439
 6049WAT      O18388   5.563   8.347   0.275
 6049WAT     H118389   5.529   8.305   0.191
 6049WAT     H218390   5.566   8.278   0.347
 6050WAT      O18391   3.532   2.132   9.344
 6050WAT     H118392   3.489   2.206   9.293
 6050WAT     H218393   3.604   2.091   9.287
 6051WAT      O18394   1.793   4.298   2.117
 6051WAT     H118395   1.783   4.383   2.065
 6051WAT     H218396   1.889   4.276   2.127
 6052WAT      O18397   7.044   7.536   4.724
 6052WAT     H118398   6.946   7.515   4.729
 6052WAT     H218399   7.078   7.518   4.632
 6053WAT      O18400   3.727   4.888   2.470
 6053WAT     H118401   3.746   4.985   2.460
 6053WAT     H218402   3.767   4.854   2.556
 6054WAT      O18403   8.286   6.312   0.791
 6054WAT     H118404   8.280   6.292   0.889
 6054WAT     H218405   8.348   6.388   0.776
 6055WAT      O18406   4.485   1.965   8.993
 6055WAT     H118407   4.476   1.871   9.026
 6055WAT     H218408   4.398   2.013   9.004
 6056WAT      O18409   6.890   7.148   4.084
 6056WAT     H118410   6.865   7.078   4.018
 6056WAT     H218411   6.962   7.206   4.045
 6057WAT      O18412   3.047   7.338   8.812
 6057WAT     H118413   3.093   7.297   8.891
 6057WAT     H218414   2.996   7.419   8.842
 6058WAT      O18415   8.628   1.541   4.711
 6058WAT     H118416   8.597   1.522   4.618
 6058WAT     H218417   8.572   1.491   4.776
 6059WAT      O18418   8.738   8.995   7.198
 6059WAT     H118419   8.669   9.027   7.262
 6059WAT     H218420   8.719   8.900   7.173
 6060WAT      O18421   0.226   2.062   4.343
 6060WAT     H118422   0.257   2.137   4.400
 6060WAT     H218423   0.301   1.996   4.331
 6061WAT      O18424   1.548   1.444   1.982
 6061WAT     H118425   1.448   1.443   1.974
 6061WAT     H218426   1.576   1.384   2.058
 6062WAT      O18427   4.828   9.241   0.979
 6062WAT     H118428   4.870   9.155   0.949
 6062WAT     H218429   4.897   9.314   0.979
 6063WAT      O18430   2.521   3.113   9.670
 6063WAT     H118431   2.498   3.195   9.618
 6063WAT     H218432   2.447   3.091   9.734
 6064WAT      O18433   2.670   5.593   8.480
 6064WAT     H118434   2.714   5.573   8.567
 6064WAT     H218435   2.584   5.642   8.496
 6065WAT      O18436   1.999   3.318   3.990
 6065WAT     H118437   1.976   3.371   4.071
 6065WAT     H218438   1.940   3.345   3.914
 6066WAT      O18439   5.903   6.687   5.092
 6066WAT     H118440   5.936   6.685   4.997
 6066WAT     H218441   5.980   6.672   5.154
 6067WAT      O18442   3.775   4.453   6.428
 6067WAT     H118443   3.817   4.464   6.338
 6067WAT     H218444   3.844   4.466   6.499
 6068WAT      O18445   4.862   5.521   0.124
 6068WAT     H118446   4.792   5.475   0.070
 6068WAT     H218447   4.828   5.610   0.154
 6069WAT      O18448   7.241   6.168   5.767
 6069WAT     H118449   7.160   6.227   5.762
 6069WAT     H218450   7.236   6.113   5.850
 6070WAT      O18451   6.836   2.749   4.495
 6070WAT     H118452   6.833   2.781   4.400
 6070WAT     H218453   6.855   2.826   4.555
 6071WAT      O18454   2.606   1.633   6.404
 6071WAT     H118455   2.704   1.647   6.422
 6071WAT     H218456   2.566   1.579   6.477
 6072WAT      O18457   6.819   0.512   0.437
 6072WAT     H118458   6.730   0.553   0.457
 6072WAT     H218459   6.832   0.430   0.493
 6073WAT      O18460   7.225   0.232   6.780
 6073WAT     H118461   7.201   0.259   6.874
 6073WAT     H218462   7.299   0.290   6.746
 6074WAT      O18463   2.123   9.138   1.906
 6074WAT     H118464   2.191   9.141   1.979
 6074WAT     H218465   2.070   9.054   1.913
 6075WAT      O18466   0.576   4.221   3.064
 6075WAT     H118467   0.498   4.254   3.011
 6075WAT     H218468   0.543   4.174   3.146
 6076WAT      O18469   7.366   0.390   7.436
 6076WAT     H118470   7.370   0.319   7.506
 6076WAT     H218471   7.367   0.480   7.479
 6077WAT      O18472   3.480   0.544   9.583
 6077WAT     H118473   3.443   0.637   9.590
 6077WAT     H218474   3.423   0.482   9.637
 6078WAT      O18475   3.852   4.736   8.495
 6078WAT     H118476   3.860   4.707   8.590
 6078WAT     H218477   3.872   4.834   8.488
 6079WAT      O18478   4.858   9.465   7.178
 6079WAT     H118479   4.793   9.522   7.229
 6079WAT     H218480   4.920   9.421   7.242
 6080WAT      O18481   6.750   4.559   8.353
 6080WAT     H118482   6.709   4.514   8.432
 6080WAT     H218483   6.705   4.528   8.269
 6081WAT      O18484   6.849   0.239   5.212
 6081WAT     H118485   6.868   0.154   5.163
 6081WAT     H218486   6.859   0.317   5.150
 6082WAT      O18487   2.066   9.001   6.945
 6082WAT     H118488   2.031   8.907   6.951
 6082WAT     H218489   2.011   9.060   7.004
 6083WAT      O18490   4.331   0.105   5.104
 6083WAT     H118491   4.396   0.131   5.175
 6083WAT     H218492   4.240   0.095   5.145
 6084WAT      O18493   8.864   1.491   9.423
 6084WAT     H118494   8.881   1.589   9.415
 6084WAT     H218495   8.767   1.472   9.411
 6085WAT      O18496   6.619   1.731   6.601
 6085WAT     H118497   6.644   1.725   6.504
 6085WAT     H218498   6.689   1.784   6.649
 6086WAT      O18499   8.366   6.708   7.097
 6086WAT     H118500   8.441   6.665   7.047
 6086WAT     H218501   8.280   6.695   7.047
 6087WAT      O18502   0.828   2.673   0.568
 6087WAT     H118503   0.851   2.770   0.556
 6087WAT     H218504   0.909   2.617   0.550
 6088WAT      O18505   7.438   4.235   2.586
 6088WAT     H118506   7.532   4.201   2.584
 6088WAT     H218507   7.429   4.304   2.658
 6089WAT      O18508   6.514   2.466   9.185
 6089WAT     H118509   6.613   2.461   9.197
 6089WAT     H218510   6.473   2.379   9.214
 6090WAT      O18511   9.566   8.346   1.930
 6090WAT     H118512   9.639   8.307   1.873
 6090WAT     H218513   9.533   8.430   1.887
 6091WAT      O18514   2.194   9.145   0.308
 6091WAT     H118515   2.101   9.181   0.303
 6091WAT     H218516   2.192   9.046   0.299
 6092WAT      O18517   9.796   9.048   8.923
 6092WAT     H118518   9.769   9.054   9.019
 6092WAT     H218519   9.716   9.058   8.865
 6093WAT      O18520   8.079   8.677   0.715
 6093WAT     H118521   8.025   8.603   0.757
 6093WAT     H218522   8.114   8.737   0.787
 6094WAT      O18523   8.923   4.418   3.391
 6094WAT     H118524   8.920   4.318   3.379
 6094WAT     H218525   8.838   4.448   3.433
 6095WAT      O18526   7.099   3.693   3.663
 6095WAT     H118527   7.120   3.743   3.579
 6095WAT     H218528   7.108   3.754   3.741
 6096WAT      O18529   0.859   1.786   3.882
 6096WAT     H118530   0.789   1.841   3.836
 6096WAT     H218531   0.867   1.817   3.977
 6097WAT      O18532   1.251   6.812   5.061
 6097WAT     H118533   1.321   6.838   5.127
 6097WAT     H218534   1.204   6.894   5.029
 6098WAT      O18535   6.513   6.719   3.452
 6098WAT     H118536   6.516   6.762   3.362
 6098WAT     H218537   6.601   6.730   3.498
 6099WAT      O18538   3.325   0.297   7.323
 6099WAT     H118539   3.370   0.327   7.238
 6099WAT     H218540   3.365   0.346   7.400
 6100WAT      O18541   8.759   2.983   4.689
 6100WAT     H118542   8.856   2.967   4.707
 6100WAT     H218543   8.748   3.018   4.596
 6101WAT      O18544   7.866   6.262   9.120
 6101WAT     H118545   7.801   6.217   9.057
 6101WAT     H218546   7.940   6.303   9.067
 6102WAT      O18547   1.979   0.251   4.039
 6102WAT     H118548   1.888   0.237   3.999
 6102WAT     H218549   2.020   0.162   4.060
 6103WAT      O18550   4.687   1.351   4.508
 6103WAT     H118551   4.644   1.357   4.598
 6103WAT     H218552   4.657   1.428   4.451
 6104WAT      O18553   6.164   7.168   9.422
 6104WAT     H118554   6.165   7.076   9.462
 6104WAT     H218555   6.069   7.197   9.407
 6105WAT      O18556   1.027   7.085   1.914
 6105WAT     H118557   0.986   7.126   1.996
 6105WAT     H218558   0.963   7.093   1.837
 6106WAT      O18559   0.078   2.548   6.994
 6106WAT     H118560  -0.006   2.543   7.047
 6106WAT     H218561   0.072   2.622   6.928
 6107WAT      O18562   5.625   3.746   7.665
 6107WAT     H118563   5.703   3.795   7.705
 6107WAT     H218564   5.622   3.653   7.702
 6108WAT      O18565   0.616   1.758   2.584
 6108WAT     H118566   0.636   1.821   2.509
 6108WAT     H218567   0.522   1.772   2.616
 6109WAT      O18568   9.329   7.945   4.850
 6109WAT     H118569   9.418   7.912   4.880
 6109WAT     H218570   9.340   8.031   4.800
 6110WAT      O18571   3.154   0.762   9.090
 6110WAT     H118572   3.133   0.697   9.017
 6110WAT     H218573   3.097   0.742   9.169
 6111WAT      O18574   9.432   2.602   9.168
 6111WAT     H118575   9.409   2.513   9.129
 6111WAT     H218576   9.373   2.673   9.128
 6112WAT      O18577   1.812   5.845   2.151
 6112WAT     H118578   1.809   5.911   2.076
 6112WAT     H218579   1.772   5.758   2.121
 6113WAT      O18580   4.629   6.398   5.153
 6113WAT     H118581   4.651   6.418   5.249
 6113WAT     H218582   4.713   6.402   5.099
 6114WAT      O18583   7.142   6.627   6.899
 6114WAT     H118584   7.231   6.640   6.857
 6114WAT     H218585   7.109   6.535   6.881
 6115WAT      O18586   1.960   0.229   5.653
 6115WAT     H118587   1.869   0.229   5.694
 6115WAT     H218588   2.028   0.204   5.722
 6116WAT      O18589   3.344   3.351   0.548
 6116WAT     H118590   3.270   3.284   0.547
 6116WAT     H218591   3.420   3.318   0.605
 6117WAT      O18592   7.660   2.674   5.312
 6117WAT     H118593   7.621   2.752   5.263
 6117WAT     H218594   7.739   2.640   5.262
 6118WAT      O18595   5.760   2.481   3.620
 6118WAT     H118596   5.856   2.494   3.598
 6118WAT     H218597   5.744   2.507   3.716
 6119WAT      O18598   3.210   9.032   7.197
 6119WAT     H118599   3.205   9.120   7.150
 6119WAT     H218600   3.163   9.038   7.285
 6120WAT      O18601   6.170   9.278   0.426
 6120WAT     H118602   6.225   9.282   0.342
 6120WAT     H218603   6.193   9.195   0.477
 6121WAT      O18604   6.199   3.581   9.375
 6121WAT     H118605   6.216   3.510   9.443
 6121WAT     H218606   6.269   3.575   9.303
 6122WAT      O18607   2.825   5.133   1.309
 6122WAT     H118608   2.727   5.118   1.296
 6122WAT     H218609   2.857   5.202   1.245
 6123WAT      O18610   1.229   7.741   0.080
 6123WAT     H118611   1.304   7.676   0.098
 6123WAT     H218612   1.202   7.785   0.165
 6124WAT      O18613   7.938   6.486   9.474
 6124WAT     H118614   8.008   6.527   9.415
 6124WAT     H218615   7.951   6.518   9.568
 6125WAT      O18616   3.051   5.811   7.526
 6125WAT     H118617   3.144   5.815   7.563
 6125WAT     H218618   2.998   5.889   7.561
 6126WAT      O18619   1.158   6.824   7.141
 6126WAT     H118620   1.132   6.900   7.082
 6126WAT     H218621   1.173   6.742   7.086
 6127WAT      O18622   8.858   1.222   6.717
 6127WAT     H118623   8.834   1.205   6.813
 6127WAT     H218624   8.957   1.230   6.709
 6128WAT      O18625   6.141   3.814   9.497
 6128WAT     H118626   6.045   3.810   9.522
 6128WAT     H218627   6.167   3.731   9.447
 6129WAT      O18628   0.035   2.821   1.260
 6129WAT     H118629   0.017   2.728   1.229
 6129WAT     H218630  -0.002   2.886   1.192
 6130WAT      O18631   5.271   6.189   1.222
 6130WAT     H118632   5.306   6.226   1.136
 6130WAT     H218633   5.220   6.260   1.270
 6131WAT      O18634   5.328   9.191   2.918
 6131WAT     H118635   5.325   9.291   2.926
 6131WAT     H218636   5.394   9.165   2.847
 6132WAT      O18637   2.542   0.390   1.213
 6132WAT     H118638   2.567   0.386   1.310
 6132WAT     H218639   2.456   0.440   1.203
 6133WAT      O18640   1.463   6.760   2.959
 6133WAT     H118641   1.426   6.820   3.031
 6133WAT     H218642   1.549   6.720   2.990
 6134WAT      O18643   9.578   9.255   6.544
 6134WAT     H118644   9.580   9.290   6.637
 6134WAT     H218645   9.502   9.191   6.533
 6135WAT      O18646   9.243   3.238   0.350
 6135WAT     H118647   9.323   3.221   0.407
 6135WAT     H218648   9.250   3.329   0.309
 6136WAT      O18649   9.833   7.068   9.735
 6136WAT     H118650   9.810   7.127   9.812
 6136WAT     H218651   9.867   6.980   9.769
 6137WAT      O18652   8.948   8.675   2.412
 6137WAT     H118653   8.870   8.701   2.469
 6137WAT     H218654   9.030   8.723   2.443
 6138WAT      O18655   9.357   9.214   0.274
 6138WAT     H118656   9.315   9.129   0.242
 6138WAT     H218657   9.346   9.284   0.203
 6139WAT      O18658   8.786   2.913   5.835
 6139WAT     H118659   8.757   2.904   5.930
 6139WAT     H218660   8.820   3.006   5.819
 6140WAT      O18661   7.120   8.457   2.657
 6140WAT     H118662   7.023   8.432   2.660
 6140WAT     H218663   7.130   8.546   2.612
 6141WAT      O18664   0.354   4.537   9.838
 6141WAT     H118665   0.424   4.472   9.869
 6141WAT     H218666   0.307   4.576   9.917
 6142WAT      O18667   1.326   6.608   4.277
 6142WAT     H118668   1.331   6.546   4.355
 6142WAT     H218669   1.417   6.644   4.256
 6143WAT      O18670   9.573   3.346   1.644
 6143WAT     H118671   9.548   3.303   1.731
 6143WAT     H218672   9.668   3.323   1.622
 6144WAT      O18673   3.779   3.363   8.622
 6144WAT     H118674   3.728   3.449   8.616
 6144WAT     H218675   3.862   3.370   8.567
 6145WAT      O18676   1.487   6.539   6.070
 6145WAT     H118677   1.410   6.575   6.123
 6145WAT     H218678   1.494   6.590   5.984
 6146WAT      O18679   1.850   3.973   1.058
 6146WAT     H118680   1.832   4.057   1.007
 6146WAT     H218681   1.768   3.948   1.110
 6147WAT      O18682   3.853   0.255   0.928
 6147WAT     H118683   3.780   0.228   0.992
 6147WAT     H218684   3.902   0.334   0.965
 6148WAT      O18685   6.670   8.956   4.240
 6148WAT     H118686   6.688   9.054   4.233
 6148WAT     H218687   6.671   8.928   4.336
 6149WAT      O18688   5.652   6.897   3.024
 6149WAT     H118689   5.590   6.858   2.956
 6149WAT     H218690   5.684   6.824   3.086
 6150WAT      O18691   5.795   4.289   7.615
 6150WAT     H118692   5.865   4.294   7.686
 6150WAT     H218693   5.746   4.202   7.623
 6151WAT      O18694   9.318   2.637   4.090
 6151WAT     H118695   9.234   2.691   4.102
 6151WAT     H218696   9.363   2.627   4.179
 6152WAT      O18697   5.908   2.153   0.640
 6152WAT     H118698   5.963   2.157   0.723
 6152WAT     H218699   5.963   2.182   0.562
 6153WAT      O18700   2.161   3.097   0.863
 6153WAT     H118701   2.129   3.059   0.950
 6153WAT     H218702   2.230   3.166   0.880
 6154WAT      O18703   4.058   1.212   6.545
 6154WAT     H118704   4.098   1.158   6.471
 6154WAT     H218705   4.057   1.308   6.519
 6155WAT      O18706   6.644   4.808   3.320
 6155WAT     H118707   6.617   4.896   3.360
 6155WAT     H218708   6.701   4.759   3.385
 6156WAT      O18709   6.150   8.249   1.944
 6156WAT     H118710   6.116   8.165   1.902
 6156WAT     H218711   6.208   8.298   1.880
 6157WAT      O18712   2.174   4.881   0.365
 6157WAT     H118713   2.269   4.871   0.335
 6157WAT     H218714   2.114   4.831   0.302
 6158WAT      O18715   3.023   1.056   6.402
 6158WAT     H118716   3.120   1.032   6.405
 6158WAT     H218717   3.002   1.096   6.313
 6159WAT      O18718   7.123   9.221   3.981
 6159WAT     H118719   7.143   9.168   3.898
 6159WAT     H218720   7.199   9.214   4.045
 6160WAT      O18721   7.032   9.696   9.690
 6160WAT     H118722   7.035   9.710   9.789
 6160WAT     H218723   7.090   9.619   9.664
 6161WAT      O18724   7.936   0.354   4.928
 6161WAT     H118725   7.852   0.404   4.906
 6161WAT     H218726   7.918   0.256   4.922
 6162WAT      O18727   9.530   1.833   0.657
 6162WAT     H118728   9.580   1.785   0.585
 6162WAT     H218729   9.505   1.768   0.729
 6163WAT      O18730   5.114   5.198   9.338
 6163WAT     H118731   5.146   5.108   9.306
 6163WAT     H218732   5.169   5.270   9.296
 6164WAT      O18733   2.166   3.366   4.330
 6164WAT     H118734   2.203   3.274   4.319
 6164WAT     H218735   2.138   3.379   4.425
 6165WAT      O18736   8.230   2.843   9.806
 6165WAT     H118737   8.239   2.899   9.724
 6165WAT     H218738   8.145   2.867   9.853
 6166WAT      O18739   8.633   9.190   1.819
 6166WAT     H118740   8.610   9.229   1.908
 6166WAT     H218741   8.551   9.147   1.780
 6167WAT      O18742   3.910   5.949   6.223
 6167WAT     H118743   3.905   6.043   6.189
 6167WAT     H218744   3.983   5.941   6.291
 6168WAT      O18745   3.125   4.103   0.811
 6168WAT     H118746   3.040   4.067   0.849
 6168WAT     H218747   3.180   4.143   0.885
 6169WAT      O18748   2.715   1.980   9.497
 6169WAT     H118749   2.744   1.965   9.592
 6169WAT     H218750   2.695   2.077   9.483
 6170WAT      O18751   1.523   3.202   4.196
 6170WAT     H118752   1.494   3.107   4.207
 6170WAT     H218753   1.572   3.212   4.109
 6171WAT      O18754   4.932   9.823   5.542
 6171WAT     H118755   4.860   9.893   5.549
 6171WAT     H218756   5.015   9.865   5.505
 6172WAT      O18757   0.798   0.858   5.690
 6172WAT     H118758   0.843   0.797   5.755
 6172WAT     H218759   0.720   0.902   5.735
 6173WAT      O18760   8.599   9.078   1.391
 6173WAT     H118761   8.674   9.119   1.442
 6173WAT     H218762   8.616   8.980   1.379
 6174WAT      O18763   2.056   8.055   8.085
 6174WAT     H118764   2.042   8.143   8.041
 6174WAT     H218765   2.142   8.056   8.137
 6175WAT      O18766   3.955   1.384   7.971
 6175WAT     H118767   3.943   1.482   7.987
 6175WAT     H218768   3.964   1.337   8.059
 6176WAT      O18769   8.844   8.413   9.712
 6176WAT     H118770   8.902   8.350   9.662
 6176WAT     H218771   8.892   8.443   9.795
 6177WAT      O18772   1.803   1.804   4.470
 6177WAT     H118773   1.784   1.742   4.546
 6177WAT     H218774   1.751   1.776   4.390
 6178WAT      O18775   6.602   5.869   5.571
 6178WAT     H118776   6.608   5.834   5.478
 6178WAT     H218777   6.523   5.829   5.617
 6179WAT      O18778   9.173   1.518   7.294
 6179WAT     H118779   9.190   1.432   7.244
 6179WAT     H218780   9.208   1.594   7.240
 6180WAT      O18781   8.516   1.446   6.380
 6180WAT     H118782   8.523   1.369   6.444
 6180WAT     H218783   8.605   1.492   6.374
 6181WAT      O18784   2.207   1.284   3.295
 6181WAT     H118785   2.267   1.364   3.291
 6181WAT     H218786   2.204   1.240   3.205
 6182WAT      O18787   1.396   4.053   4.182
 6182WAT     H118788   1.490   4.018   4.177
 6182WAT     H218789   1.392   4.142   4.136
 6183WAT      O18790   4.904   0.637   0.036
 6183WAT     H118791   4.893   0.731   0.004
 6183WAT     H218792   4.982   0.632   0.099
 6184WAT      O18793   1.893   1.778   6.957
 6184WAT     H118794   1.986   1.813   6.968
 6184WAT     H218795   1.895   1.696   6.900
 6185WAT      O18796   1.737   8.032   3.389
 6185WAT     H118797   1.685   7.959   3.432
 6185WAT     H218798   1.833   8.027   3.419
 6186WAT      O18799   6.960   7.006   0.053
 6186WAT     H118800   6.876   7.041   0.012
 6186WAT     H218801   7.003   7.078   0.108
 6187WAT      O18802   9.245   3.641   2.411
 6187WAT     H118803   9.188   3.691   2.346
 6187WAT     H218804   9.187   3.594   2.477
 6188WAT      O18805   3.240   7.203   2.967
 6188WAT     H118806   3.166   7.137   2.953
 6188WAT     H218807   3.311   7.188   2.898
 6189WAT      O18808   3.124   9.303   2.291
 6189WAT     H118809   3.068   9.289   2.210
 6189WAT     H218810   3.202   9.240   2.289
 6190WAT      O18811   7.007   7.676   8.061
 6190WAT     H118812   7.003   7.643   7.967
 6190WAT     H218813   7.095   7.653   8.101
 6191WAT      O18814   8.357   3.503   6.040
 6191WAT     H118815   8.352   3.590   6.088
 6191WAT     H218816   8.371   3.519   5.942
 6192WAT      O18817   0.495   5.662   0.737
 6192WAT     H118818   0.423   5.649   0.668
 6192WAT     H218819   0.569   5.597   0.720
 6193WAT      O18820   9.781   7.464   0.916
 6193WAT     H118821   9.756   7.550   0.870
 6193WAT     H218822   9.856   7.481   0.980
 6194WAT      O18823   4.914   5.683   6.579
 6194WAT     H118824   5.005   5.711   6.547
 6194WAT     H218825   4.924   5.618   6.654
 6195WAT      O18826   1.678   4.116   1.446
 6195WAT     H118827   1.603   4.105   1.511
 6195WAT     H218828   1.643   4.158   1.362
 6196WAT      O18829   4.966   5.161   6.713
 6196WAT     H118830   5.014   5.082   6.676
 6196WAT     H218831   4.945   5.225   6.639
 6197WAT      O18832   7.711   0.844   7.861
 6197WAT     H118833   7.611   0.854   7.854
 6197WAT     H218834   7.753   0.934   7.852
 6198WAT      O18835   8.595   7.630   8.722
 6198WAT     H118836   8.637   7.592   8.639
 6198WAT     H218837   8.514   7.683   8.696
 6199WAT      O18838   3.837   0.682   9.180
 6199WAT     H118839   3.887   0.684   9.267
 6199WAT     H218840   3.811   0.775   9.155
 6200WAT      O18841   2.834   2.606   6.259
 6200WAT     H118842   2.900   2.616   6.333
 6200WAT     H218843   2.882   2.598   6.171
 6201WAT      O18844   7.268   2.421   4.614
 6201WAT     H118845   7.190   2.476   4.584
 6201WAT     H218846   7.289   2.352   4.544
 6202WAT      O18847   5.396   6.603   2.775
 6202WAT     H118848   5.430   6.536   2.842
 6202WAT     H218849   5.396   6.561   2.684
 6203WAT      O18850   9.325   7.226   9.104
 6203WAT     H118851   9.254   7.169   9.062
 6203WAT     H218852   9.400   7.168   9.134
 6204WAT      O18853   4.662   5.530   5.661
 6204WAT     H118854   4.639   5.434   5.647
 6204WAT     H218855   4.635   5.558   5.753
 6205WAT      O18856   1.844   5.207   3.740
 6205WAT     H118857   1.904   5.186   3.816
 6205WAT     H218858   1.812   5.122   3.697
 6206WAT      O18859   4.812   3.994   9.641
 6206WAT     H118860   4.903   3.983   9.680
 6206WAT     H218861   4.812   4.071   9.576
 6207WAT      O18862   8.635   1.652   8.218
 6207WAT     H118863   8.702   1.725   8.209
 6207WAT     H218864   8.543   1.691   8.221
 6208WAT      O18865   1.101   1.579   0.333
 6208WAT     H118866   1.170   1.641   0.294
 6208WAT     H218867   1.035   1.553   0.263
 6209WAT      O18868   3.996   2.539   4.495
 6209WAT     H118869   4.020   2.514   4.401
 6209WAT     H218870   4.079   2.548   4.549
 6210WAT      O18871   3.117   3.033   3.934
 6210WAT     H118872   3.114   3.045   3.835
 6210WAT     H218873   3.197   2.978   3.959
 6211WAT      O18874   8.036   3.062   9.517
 6211WAT     H118875   7.995   3.004   9.588
 6211WAT     H218876   8.133   3.041   9.509
 6212WAT      O18877   0.243   7.046   0.240
 6212WAT     H118878   0.320   6.997   0.282
 6212WAT     H218879   0.247   7.143   0.267
 6213WAT      O18880   8.484   2.620   5.929
 6213WAT     H118881   8.400   2.654   5.972
 6213WAT     H218882   8.540   2.574   5.997
 6214WAT      O18883   4.176   6.614   5.574
 6214WAT     H118884   4.173   6.534   5.633
 6214WAT     H218885   4.191   6.696   5.629
 6215WAT      O18886   0.202   1.159   8.545
 6215WAT     H118887   0.207   1.231   8.476
 6215WAT     H218888   0.190   1.071   8.499
 6216WAT      O18889   6.536   5.626   0.646
 6216WAT     H118890   6.552   5.557   0.716
 6216WAT     H218891   6.444   5.664   0.657
 6217WAT      O18892   7.617   5.343   0.099
 6217WAT     H118893   7.558   5.412   0.142
 6217WAT     H218894   7.587   5.252   0.127
 6218WAT      O18895   1.006   9.671   0.405
 6218WAT     H118896   0.912   9.639   0.415
 6218WAT     H218897   1.007   9.756   0.353
 6219WAT      O18898   7.276   4.905   5.051
 6219WAT     H118899   7.252   4.817   5.093
 6219WAT     H218900   7.229   4.914   4.963
 6220WAT      O18901   7.373   6.162   7.656
 6220WAT     H118902   7.366   6.099   7.580
 6220WAT     H218903   7.294   6.150   7.717
 6221WAT      O18904   1.462   6.740   8.033
 6221WAT     H118905   1.484   6.828   8.075
 6221WAT     H218906   1.546   6.686   8.022
 6222WAT      O18907   8.998   7.370   8.927
 6222WAT     H118908   9.031   7.456   8.966
 6222WAT     H218909   8.963   7.386   8.835
 6223WAT      O18910   9.409   6.889   4.017
 6223WAT     H118911   9.416   6.857   4.112
 6223WAT     H218912   9.455   6.823   3.957
 6224WAT      O18913   1.755   0.698   9.301
 6224WAT     H118914   1.677   0.656   9.347
 6224WAT     H218915   1.828   0.712   9.368
 6225WAT      O18916   4.420   3.674   6.311
 6225WAT     H118917   4.379   3.587   6.285
 6225WAT     H218918   4.425   3.680   6.411
 6226WAT      O18919   7.737   6.767   0.576
 6226WAT     H118920   7.639   6.747   0.584
 6226WAT     H218921   7.774   6.723   0.495
 6227WAT      O18922   6.455   2.059   8.985
 6227WAT     H118923   6.360   2.031   8.978
 6227WAT     H218924   6.460   2.154   9.014
 6228WAT      O18925   5.321   2.440   2.480
 6228WAT     H118926   5.406   2.440   2.533
 6228WAT     H218927   5.284   2.533   2.475
 6229WAT      O18928   6.690   5.052   3.590
 6229WAT     H118929   6.730   5.134   3.633
 6229WAT     H218930   6.596   5.040   3.622
 6230WAT      O18931   3.874   5.295   6.750
 6230WAT     H118932   3.821   5.363   6.800
 6230WAT     H218933   3.924   5.339   6.676
 6231WAT      O18934   7.554   2.302   0.257
 6231WAT     H118935   7.608   2.259   0.184
 6231WAT     H218936   7.466   2.331   0.221
 6232WAT      O18937   4.100   9.562   4.588
 6232WAT     H118938   4.179   9.505   4.567
 6232WAT     H218939   4.020   9.505   4.605
 6233WAT      O18940   4.270   7.664   5.823
 6233WAT     H118941   4.217   7.599   5.769
 6233WAT     H218942   4.348   7.619   5.865
 6234WAT      O18943   4.838   9.617   2.946
 6234WAT     H118944   4.875   9.541   3.000
 6234WAT     H218945   4.870   9.704   2.984
 6235WAT      O18946   1.229   0.195   4.118
 6235WAT     H118947   1.277   0.278   4.089
 6235WAT     H218948   1.191   0.209   4.209
 6236WAT      O18949   3.129   0.669   2.638
 6236WAT     H118950   3.090   0.760   2.629
 6236WAT     H218951   3.170   0.659   2.729
 6237WAT      O18952   3.079   7.960   0.480
 6237WAT     H118953   3.050   7.867   0.455
 6237WAT     H218954   3.140   7.955   0.559
 6238WAT      O18955   1.988   1.160   7.005
 6238WAT     H118956   2.050   1.148   7.082
 6238WAT     H218957   1.967   1.071   6.965
 6239WAT      O18958   9.233   9.118   7.780
 6239WAT     H118959   9.239   9.039   7.840
 6239WAT     H218960   9.268   9.094   7.689
 6240WAT      O18961   7.414   0.205   6.462
 6240WAT     H118962   7.480   0.137   6.430
 6240WAT     H218963   7.438   0.233   6.555
 6241WAT      O18964   4.514   2.252   1.981
 6241WAT     H118965   4.511   2.310   1.900
 6241WAT     H218966   4.503   2.309   2.063
 6242WAT      O18967   6.125   2.234   8.441
 6242WAT     H118968   6.089   2.227   8.534
 6242WAT     H218969   6.066   2.184   8.379
 6243WAT      O18970   1.715   4.239   1.195
 6243WAT     H118971   1.759   4.255   1.107
 6243WAT     H218972   1.724   4.320   1.252
 6244WAT      O18973   0.524   0.703   5.069
 6244WAT     H118974   0.463   0.629   5.045
 6244WAT     H218975   0.531   0.767   4.993
 6245WAT      O18976   4.855   1.761   3.322
 6245WAT     H118977   4.827   1.830   3.255
 6245WAT     H218978   4.890   1.681   3.274
 6246WAT      O18979   5.634   7.185   0.493
 6246WAT     H118980   5.575   7.198   0.573
 6246WAT     H218981   5.666   7.274   0.460
 6247WAT      O18982   1.839   7.140   5.547
 6247WAT     H118983   1.858   7.233   5.577
 6247WAT     H218984   1.861   7.130   5.450
 6248WAT      O18985   1.658   7.089   3.480
 6248WAT     H118986   1.689   7.060   3.389
 6248WAT     H218987   1.734   7.084   3.544
 6249WAT      O18988   4.039   5.489   9.701
 6249WAT     H118989   4.007   5.395   9.693
 6249WAT     H218990   3.961   5.551   9.698
 6250WAT      O18991   6.171   0.803   8.140
 6250WAT     H118992   6.171   0.735   8.214
 6250WAT     H218993   6.077   0.831   8.122
 6251WAT      O18994   7.320   8.780   2.675
 6251WAT     H118995   7.370   8.861   2.706
 6251WAT     H218996   7.383   8.717   2.630
 6252WAT      O18997   0.299   4.621   3.496
 6252WAT     H118998   0.291   4.617   3.596
 6252WAT     H218999   0.327   4.532   3.461
 6253WAT      O19000   7.059   5.436   4.682
 6253WAT     H119001   6.983   5.378   4.650
 6253WAT     H219002   7.049   5.451   4.781
 6254WAT      O19003   8.106   7.018   0.470
 6254WAT     H119004   8.059   7.042   0.386
 6254WAT     H219005   8.066   7.068   0.547
 6255WAT      O19006   5.153   2.284   8.350
 6255WAT     H119007   5.165   2.189   8.320
 6255WAT     H219008   5.242   2.329   8.357
 6256WAT      O19009   7.023   7.606   7.802
 6256WAT     H119010   7.118   7.577   7.790
 6256WAT     H219011   6.964   7.526   7.805
 6257WAT      O19012   0.275   6.385   1.076
 6257WAT     H119013   0.281   6.484   1.089
 6257WAT     H219014   0.354   6.353   1.024
 6258WAT      O19015   2.209   6.429   0.447
 6258WAT     H119016   2.146   6.405   0.373
 6258WAT     H219017   2.204   6.528   0.463
 6259WAT      O19018   3.673   3.554   9.336
 6259WAT     H119019   3.645   3.597   9.421
 6259WAT     H219020   3.659   3.455   9.343
 6260WAT      O19021   0.627   2.079   2.577
 6260WAT     H119022   0.688   2.036   2.511
 6260WAT     H219023   0.556   2.014   2.604
 6261WAT      O19024   5.731   9.835   0.330
 6261WAT     H119025   5.796   9.768   0.294
 6261WAT     H219026   5.700   9.805   0.420
 6262WAT      O19027   0.704   2.265   9.366
 6262WAT     H119028   0.643   2.193   9.332
 6262WAT     H219029   0.763   2.227   9.438
 6263WAT      O19030   9.710   8.959   3.787
 6263WAT     H119031   9.698   9.009   3.873
 6263WAT     H219032   9.672   9.012   3.711
 6264WAT      O19033   2.414   2.559   5.677
 6264WAT     H119034   2.473   2.579   5.599
 6264WAT     H219035   2.444   2.612   5.756
 6265WAT      O19036   0.879   2.808   0.169
 6265WAT     H119037   0.845   2.834   0.078
 6265WAT     H219038   0.890   2.709   0.173
 6266WAT      O19039   6.066   6.024   8.667
 6266WAT     H119040   5.987   5.982   8.711
 6266WAT     H219041   6.039   6.112   8.628
 6267WAT      O19042   4.049   3.917   4.976
 6267WAT     H119043   3.991   3.928   5.057
 6267WAT     H219044   4.028   3.990   4.910
 6268WAT      O19045   7.208   3.415   2.316
 6268WAT     H119046   7.146   3.375   2.384
 6268WAT     H219047   7.286   3.354   2.302
 6269WAT      O19048   1.568   4.690   8.121
 6269WAT     H119049   1.544   4.594   8.133
 6269WAT     H219050   1.631   4.719   8.193
 6270WAT      O19051   9.618   8.029   4.638
 6270WAT     H119052   9.714   8.054   4.633
 6270WAT     H219053   9.565   8.107   4.670
 6271WAT      O19054   7.446   8.613   2.530
 6271WAT     H119055   7.435   8.519   2.497
 6271WAT     H219056   7.411   8.676   2.461
 6272WAT      O19057   4.616   8.990   5.607
 6272WAT     H119058   4.625   8.907   5.551
 6272WAT     H219059   4.699   9.002   5.661
 6273WAT      O19060   7.189   4.730   0.919
 6273WAT     H119061   7.241   4.718   1.003
 6273WAT     H219062   7.193   4.826   0.891
 6274WAT      O19063   7.046   1.814   4.168
 6274WAT     H119064   6.980   1.738   4.168
 6274WAT     H219065   6.997   1.901   4.173
 6275WAT      O19066   4.406   2.413   3.674
 6275WAT     H119067   4.307   2.405   3.684
 6275WAT     H219068   4.440   2.338   3.618
 6276WAT      O19069   7.942   4.822   6.177
 6276WAT     H119070   7.976   4.773   6.096
 6276WAT     H219071   8.005   4.807   6.253
 6277WAT      O19072   9.097   9.735   3.301
 6277WAT     H119073   9.167   9.678   3.257
 6277WAT     H219074   9.047   9.786   3.230
 6278WAT      O19075   6.130   7.299   5.397
 6278WAT     H119076   6.062   7.360   5.356
 6278WAT     H219077   6.114   7.293   5.495
 6279WAT      O19078   8.380   5.777   6.237
 6279WAT     H119079   8.298   5.808   6.285
 6279WAT     H219080   8.461   5.801   6.290
 6280WAT      O19081   2.650   0.946   3.642
 6280WAT     H119082   2.573   1.008   3.625
 6280WAT     H219083   2.721   0.961   3.573
 6281WAT      O19084   6.664   4.697   3.821
 6281WAT     H119085   6.566   4.686   3.805
 6281WAT     H219086   6.684   4.791   3.848
 6282WAT      O19087   2.901   3.826   5.063
 6282WAT     H119088   2.827   3.891   5.081
 6282WAT     H219089   2.941   3.846   4.974
 6283WAT      O19090   3.775   8.317   4.409
 6283WAT     H119091   3.697   8.380   4.407
 6283WAT     H219092   3.830   8.331   4.327
 6284WAT      O19093   0.887   3.451   3.087
 6284WAT     H119094   0.867   3.370   3.142
 6284WAT     H219095   0.821   3.523   3.108
 6285WAT      O19096   3.056   1.764   3.546
 6285WAT     H119097   3.055   1.673   3.503
 6285WAT     H219098   3.124   1.821   3.500
 6286WAT      O19099   2.401   8.062   7.258
 6286WAT     H119100   2.367   7.972   7.233
 6286WAT     H219101   2.495   8.055   7.291
 6287WAT      O19102   7.823   2.967   7.597
 6287WAT     H119103   7.734   2.985   7.554
 6287WAT     H219104   7.894   3.019   7.550
 6288WAT      O19105   4.980   6.621   3.450
 6288WAT     H119106   5.031   6.625   3.535
 6288WAT     H219107   5.001   6.536   3.402
 6289WAT      O19108   8.191   1.586   1.738
 6289WAT     H119109   8.235   1.650   1.675
 6289WAT     H219110   8.228   1.600   1.830
 6290WAT      O19111   0.203   6.411   8.603
 6290WAT     H119112   0.156   6.334   8.647
 6290WAT     H219113   0.166   6.497   8.638
 6291WAT      O19114   7.258   9.359   6.749
 6291WAT     H119115   7.349   9.387   6.780
 6291WAT     H219116   7.246   9.386   6.653
 6292WAT      O19117   2.591   5.109   9.383
 6292WAT     H119118   2.502   5.155   9.387
 6292WAT     H219119   2.581   5.021   9.336
 6293WAT      O19120   0.327   3.183   3.658
 6293WAT     H119121   0.281   3.222   3.578
 6293WAT     H219122   0.416   3.228   3.670
 6294WAT      O19123   6.843   9.758   1.829
 6294WAT     H119124   6.759   9.710   1.804
 6294WAT     H219125   6.911   9.749   1.756
 6295WAT      O19126   1.066   6.531   4.763
 6295WAT     H119127   0.981   6.479   4.760
 6295WAT     H219128   1.053   6.621   4.723
 6296WAT      O19129   8.896   0.082   8.065
 6296WAT     H119130   8.838   0.002   8.047
 6296WAT     H219131   8.842   0.165   8.055
 6297WAT      O19132   7.868   3.172   7.195
 6297WAT     H119133   7.956   3.206   7.164
 6297WAT     H219134   7.853   3.079   7.158
 6298WAT      O19135   3.815   3.829   9.415
 6298WAT     H119136   3.738   3.846   9.353
 6298WAT     H219137   3.862   3.915   9.435
 6299WAT      O19138   6.338   9.707   9.134
 6299WAT     H119139   6.324   9.628   9.194
 6299WAT     H219140   6.365   9.786   9.188
 6300WAT      O19141   8.681   6.063   9.114
 6300WAT     H119142   8.653   5.992   9.050
 6300WAT     H219143   8.740   6.129   9.067
 6301WAT      O19144   5.779   3.467   3.500
 6301WAT     H119145   5.742   3.417   3.422
 6301WAT     H219146   5.877   3.481   3.488
 6302WAT      O19147   7.660   8.066   6.285
 6302WAT     H119148   7.723   8.141   6.263
 6302WAT     H219149   7.577   8.076   6.231
 6303WAT      O19150   4.200   5.741   3.095
 6303WAT     H119151   4.297   5.741   3.122
 6303WAT     H219152   4.193   5.740   2.995
 6304WAT      O19153   2.659   3.292   5.995
 6304WAT     H119154   2.597   3.214   5.992
 6304WAT     H219155   2.683   3.320   5.901
 6305WAT      O19156   1.405   8.360   2.199
 6305WAT     H119157   1.387   8.414   2.117
 6305WAT     H219158   1.345   8.391   2.273
 6306WAT      O19159   2.997   7.489   2.154
 6306WAT     H119160   2.958   7.398   2.137
 6306WAT     H219161   3.059   7.485   2.232
 6307WAT      O19162   3.477   7.231   6.337
 6307WAT     H119163   3.485   7.276   6.426
 6307WAT     H219164   3.433   7.293   6.272
 6308WAT      O19165   0.166   8.151   6.994
 6308WAT     H119166   0.168   8.095   7.076
 6308WAT     H219167   0.191   8.096   6.915
 6309WAT      O19168   6.187   7.454   5.876
 6309WAT     H119169   6.112   7.451   5.943
 6309WAT     H219170   6.272   7.423   5.919
 6310WAT      O19171   8.085   1.093   3.359
 6310WAT     H119172   7.999   1.064   3.401
 6310WAT     H219173   8.088   1.193   3.355
 6311WAT      O19174   0.929   5.317   7.012
 6311WAT     H119175   0.973   5.228   7.001
 6311WAT     H219176   0.919   5.361   6.922
 6312WAT      O19177   7.026   3.358   6.311
 6312WAT     H119178   6.951   3.412   6.274
 6312WAT     H219179   7.034   3.374   6.409
 6313WAT      O19180   4.447   0.298   0.862
 6313WAT     H119181   4.356   0.302   0.902
 6313WAT     H219182   4.441   0.318   0.764
 6314WAT      O19183   4.924   9.444   2.081
 6314WAT     H119184   4.826   9.444   2.060
 6314WAT     H219185   4.964   9.357   2.053
 6315WAT      O19186   2.553   3.460   2.318
 6315WAT     H119187   2.639   3.433   2.275
 6315WAT     H219188   2.554   3.559   2.335
 6316WAT      O19189   6.474   5.496   9.612
 6316WAT     H119190   6.541   5.496   9.537
 6316WAT     H219191   6.433   5.405   9.620
 6317WAT      O19192   9.855   4.985   8.163
 6317WAT     H119193   9.867   5.082   8.182
 6317WAT     H219194   9.788   4.974   8.089
 6318WAT      O19195   0.455   7.546   9.671
 6318WAT     H119196   0.502   7.634   9.662
 6318WAT     H219197   0.473   7.491   9.590
 6319WAT      O19198   1.742   3.509   6.023
 6319WAT     H119199   1.811   3.490   5.954
 6319WAT     H219200   1.651   3.496   5.984
 6320WAT      O19201   1.162   6.974   5.617
 6320WAT     H119202   1.213   7.057   5.641
 6320WAT     H219203   1.064   6.995   5.614
 6321WAT      O19204   2.159   3.626   6.303
 6321WAT     H119205   2.220   3.642   6.226
 6321WAT     H219206   2.164   3.704   6.366
 6322WAT      O19207   8.323   4.038   3.264
 6322WAT     H119208   8.357   4.100   3.335
 6322WAT     H219209   8.350   3.944   3.287
 6323WAT      O19210   3.505   0.765   7.884
 6323WAT     H119211   3.448   0.752   7.802
 6323WAT     H219212   3.508   0.862   7.906
 6324WAT      O19213   1.771   4.149   3.632
 6324WAT     H119214   1.689   4.168   3.578
 6324WAT     H219215   1.810   4.235   3.665
 6325WAT      O19216   7.527   8.996   0.271
 6325WAT     H119217   7.525   8.932   0.195
 6325WAT     H219218   7.507   8.947   0.356
 6326WAT      O19219   1.505   2.647   2.069
 6326WAT     H119220   1.601   2.671   2.055
 6326WAT     H219221   1.498   2.558   2.114
 6327WAT      O19222   0.093   5.674   2.946
 6327WAT     H119223   0.122   5.694   3.039
 6327WAT     H219224   0.021   5.738   2.919
 6328WAT      O19225   6.385   4.385   4.556
 6328WAT     H119226   6.475   4.346   4.575
 6328WAT     H219227   6.341   4.334   4.483
 6329WAT      O19228   4.719   5.050   1.943
 6329WAT     H119229   4.638   4.991   1.949
 6329WAT     H219230   4.714   5.119   2.016
 6330WAT      O19231   6.783   1.085   5.095
 6330WAT     H119232   6.711   1.089   5.165
 6330WAT     H219233   6.759   1.017   5.026
 6331WAT      O19234   2.779   2.747   7.296
 6331WAT     H119235   2.749   2.665   7.247
 6331WAT     H219236   2.767   2.827   7.237
 6332WAT      O19237   3.123   4.646   2.093
 6332WAT     H119238   3.167   4.664   2.181
 6332WAT     H219239   3.162   4.706   2.023
 6333WAT      O19240   3.432   0.117   5.092
 6333WAT     H119241   3.441   0.217   5.095
 6333WAT     H219242   3.498   0.076   5.154
 6334WAT      O19243   7.626   7.650   7.155
 6334WAT     H119244   7.547   7.591   7.172
 6334WAT     H219245   7.649   7.700   7.238
 6335WAT      O19246   8.638   4.123   3.604
 6335WAT     H119247   8.669   4.186   3.675
 6335WAT     H219248   8.646   4.029   3.636
 6336WAT      O19249   6.442   2.048   1.740
 6336WAT     H119250   6.492   2.128   1.774
 6336WAT     H219251   6.458   2.039   1.642
 6337WAT      O19252   3.845   5.934   1.950
 6337WAT     H119253   3.838   6.007   2.019
 6337WAT     H219254   3.933   5.941   1.903
 6338WAT      O19255   7.934   1.673   9.387
 6338WAT     H119256   7.955   1.576   9.397
 6338WAT     H219257   8.019   1.726   9.393
 6339WAT      O19258   0.447   3.713   7.566
 6339WAT     H119259   0.410   3.708   7.658
 6339WAT     H219260   0.465   3.809   7.542
 6340WAT      O19261   2.882   4.270   4.292
 6340WAT     H119262   2.940   4.348   4.268
 6340WAT     H219263   2.801   4.270   4.234
 6341WAT      O19264   5.820   1.782   5.462
 6341WAT     H119265   5.856   1.707   5.407
 6341WAT     H219266   5.892   1.817   5.522
 6342WAT      O19267   8.534   9.480   7.994
 6342WAT     H119268   8.479   9.433   7.925
 6342WAT     H219269   8.598   9.542   7.947
 6343WAT      O19270   4.133   1.004   1.344
 6343WAT     H119271   4.061   1.057   1.298
 6343WAT     H219272   4.097   0.915   1.370
 6344WAT      O19273   1.521   2.673   2.363
 6344WAT     H119274   1.455   2.717   2.425
 6344WAT     H219275   1.477   2.595   2.318
 6345WAT      O19276   6.071   5.498   9.197
 6345WAT     H119277   6.133   5.436   9.149
 6345WAT     H219278   6.124   5.564   9.251
 6346WAT      O19279   2.552   5.104   0.977
 6346WAT     H119280   2.541   5.029   0.912
 6346WAT     H219281   2.640   5.148   0.963
 6347WAT      O19282   6.402   4.529   9.705
 6347WAT     H119283   6.387   4.625   9.731
 6347WAT     H219284   6.332   4.472   9.749
 6348WAT      O19285   2.413   3.284   9.439
 6348WAT     H119286   2.394   3.380   9.461
 6348WAT     H219287   2.328   3.232   9.442
 6349WAT      O19288   6.288   4.760   4.038
 6349WAT     H119289   6.331   4.811   4.112
 6349WAT     H219290   6.212   4.814   4.000
 6350WAT      O19291   1.121   7.855   7.040
 6350WAT     H119292   1.221   7.864   7.038
 6350WAT     H219293   1.083   7.904   6.962
 6351WAT      O19294   9.777   5.918   8.765
 6351WAT     H119295   9.686   5.908   8.806
 6351WAT     H219296   9.805   5.830   8.727
 6352WAT      O19297   1.761   4.222   9.257
 6352WAT     H119298   1.846   4.251   9.213
 6352WAT     H219299   1.738   4.285   9.331
 6353WAT      O19300   8.671   3.135   8.696
 6353WAT     H119301   8.573   3.144   8.676
 6353WAT     H219302   8.715   3.223   8.681
 6354WAT      O19303   3.223   0.594   0.037
 6354WAT     H119304   3.263   0.677   0.076
 6354WAT     H219305   3.142   0.618  -0.017
 6355WAT      O19306   5.012   1.180   6.751
 6355WAT     H119307   5.076   1.226   6.813
 6355WAT     H219308   4.992   1.089   6.785
 6356WAT      O19309   3.225   4.426   5.486
 6356WAT     H119310   3.180   4.378   5.411
 6356WAT     H219311   3.163   4.494   5.525
 6357WAT      O19312   3.195   0.767   0.934
 6357WAT     H119313   3.287   0.795   0.910
 6357WAT     H219314   3.148   0.841   0.982
 6358WAT      O19315   6.120   3.338   1.535
 6358WAT     H119316   6.217   3.311   1.541
 6358WAT     H219317   6.063   3.256   1.538
 6359WAT      O19318   0.542   2.468   2.986
 6359WAT     H119319   0.564   2.488   3.081
 6359WAT     H219320   0.624   2.436   2.939
 6360WAT      O19321   6.769   0.337   5.455
 6360WAT     H119322   6.670   0.347   5.446
 6360WAT     H219323   6.806   0.290   5.375
 6361WAT      O19324   3.719   1.155   8.994
 6361WAT     H119325   3.683   1.076   9.044
 6361WAT     H219326   3.650   1.227   8.991
 6362WAT      O19327   5.771   7.371   4.323
 6362WAT     H119328   5.826   7.295   4.358
 6362WAT     H219329   5.722   7.414   4.399
 6363WAT      O19330   3.294   2.918   0.057
 6363WAT     H119331   3.321   3.004   0.014
 6363WAT     H219332   3.227   2.872  -0.001
 6364WAT      O19333   8.821   4.214   4.955
 6364WAT     H119334   8.808   4.127   5.003
 6364WAT     H219335   8.827   4.288   5.021
 6365WAT      O19336   1.261   7.993   1.716
 6365WAT     H119337   1.338   8.029   1.768
 6365WAT     H219338   1.176   8.008   1.767
 6366WAT      O19339   8.607   7.277   7.157
 6366WAT     H119340   8.637   7.190   7.197
 6366WAT     H219341   8.575   7.338   7.229
 6367WAT      O19342   1.131   7.378   0.409
 6367WAT     H119343   1.064   7.400   0.338
 6367WAT     H219344   1.164   7.285   0.397
 6368WAT      O19345   6.231   2.243   5.785
 6368WAT     H119346   6.189   2.334   5.782
 6368WAT     H219347   6.319   2.245   5.736
 6369WAT      O19348   3.098   2.365   0.028
 6369WAT     H119349   3.029   2.295   0.008
 6369WAT     H219350   3.174   2.324   0.079
 6370WAT      O19351   0.100   2.192   2.150
 6370WAT     H119352   0.015   2.142   2.131
 6370WAT     H219353   0.150   2.145   2.223
 6371WAT      O19354   5.295   9.701   3.023
 6371WAT     H119355   5.377   9.758   3.030
 6371WAT     H219356   5.219   9.745   3.071
 6372WAT      O19357   4.248   5.259   1.499
 6372WAT     H119358   4.341   5.296   1.499
 6372WAT     H219359   4.216   5.250   1.405
 6373WAT      O19360   1.508   7.546   8.443
 6373WAT     H119361   1.415   7.571   8.470
 6373WAT     H219362   1.568   7.548   8.523
 6374WAT      O19363   1.589   7.599   7.363
 6374WAT     H119364   1.605   7.670   7.294
 6374WAT     H219365   1.592   7.639   7.454
 6375WAT      O19366   7.053   8.950   1.603
 6375WAT     H119367   7.080   9.045   1.586
 6375WAT     H219368   7.119   8.906   1.663
 6376WAT      O19369   6.859   5.565   9.548
 6376WAT     H119370   6.794   5.540   9.475
 6376WAT     H219371   6.813   5.625   9.613
 6377WAT      O19372   4.952   1.732   9.053
 6377WAT     H119373   4.913   1.659   9.110
 6377WAT     H219374   5.010   1.691   8.982
 6378WAT      O19375   1.584   7.357   3.409
 6378WAT     H119376   1.641   7.275   3.413
 6378WAT     H219377   1.595   7.410   3.493
 6379WAT      O19378   3.564   9.144   3.518
 6379WAT     H119379   3.511   9.068   3.557
 6379WAT     H219380   3.505   9.225   3.511
 6380WAT      O19381   2.432   1.278   0.372
 6380WAT     H119382   2.514   1.301   0.425
 6380WAT     H219383   2.375   1.215   0.425
 6381WAT      O19384   8.574   1.015   4.772
 6381WAT     H119385   8.617   0.948   4.833
 6381WAT     H219386   8.619   1.012   4.682
 6382WAT      O19387   8.169   4.689   7.076
 6382WAT     H119388   8.081   4.728   7.048
 6382WAT     H219389   8.153   4.602   7.122
 6383WAT      O19390   4.673   7.046   5.558
 6383WAT     H119391   4.649   7.066   5.653
 6383WAT     H219392   4.634   6.958   5.531
 6384WAT      O19393   8.251   3.895   1.366
 6384WAT     H119394   8.347   3.891   1.391
 6384WAT     H219395   8.235   3.838   1.285
 6385WAT      O19396   2.135   5.909   7.331
 6385WAT     H119397   2.116   5.812   7.345
 6385WAT     H219398   2.050   5.961   7.342
 6386WAT      O19399   7.986   4.939   3.010
 6386WAT     H119400   7.953   4.932   2.916
 6386WAT     H219401   7.939   5.014   3.057
 6387WAT      O19402   2.176   1.619   1.840
 6387WAT     H119403   2.113   1.614   1.763
 6387WAT     H219404   2.127   1.595   1.924
 6388WAT      O19405   0.015   5.020   1.489
 6388WAT     H119406   0.062   4.977   1.412
 6388WAT     H219407  -0.078   4.984   1.496
 6389WAT      O19408   3.090   0.790   3.642
 6389WAT     H119409   3.064   0.801   3.546
 6389WAT     H219410   3.134   0.874   3.673
 6390WAT      O19411   8.432   0.745   4.476
 6390WAT     H119412   8.382   0.778   4.396
 6390WAT     H219413   8.524   0.783   4.477
 6391WAT      O19414   9.717   5.949   4.034
 6391WAT     H119415   9.748   5.923   4.125
 6391WAT     H219416   9.654   5.879   3.999
 6392WAT      O19417   2.742   8.389   0.506
 6392WAT     H119418   2.786   8.337   0.579
 6392WAT     H219419   2.695   8.326   0.444
 6393WAT      O19420   8.819   1.825   4.995
 6393WAT     H119421   8.776   1.846   5.082
 6393WAT     H219422   8.911   1.865   4.993
 6394WAT      O19423   0.054   5.674   4.096
 6394WAT     H119424   0.003   5.646   4.014
 6394WAT     H219425  -0.002   5.735   4.151
 6395WAT      O19426   8.838   8.298   0.587
 6395WAT     H119427   8.771   8.329   0.653
 6395WAT     H219428   8.914   8.254   0.634
 6396WAT      O19429   8.909   3.817   5.495
 6396WAT     H119430   8.987   3.864   5.537
 6396WAT     H219431   8.942   3.758   5.422
 6397WAT      O19432   7.853   2.364   7.106
 6397WAT     H119433   7.802   2.278   7.098
 6397WAT     H219434   7.920   2.356   7.180
 6398WAT      O19435   7.665   5.052   3.596
 6398WAT     H119436   7.572   5.089   3.606
 6398WAT     H219437   7.698   5.021   3.685
 6399WAT      O19438   2.401   7.713   4.378
 6399WAT     H119439   2.402   7.811   4.359
 6399WAT     H219440   2.365   7.699   4.471
 6400WAT      O19441   2.244   3.730   1.654
 6400WAT     H119442   2.201   3.685   1.732
 6400WAT     H219443   2.208   3.823   1.646
 6401WAT      O19444   5.186   9.580   8.440
 6401WAT     H119445   5.170   9.534   8.528
 6401WAT     H219446   5.113   9.554   8.376
 6402WAT      O19447   2.900   5.043   8.659
 6402WAT     H119448   2.903   4.947   8.687
 6402WAT     H219449   2.906   5.049   8.560
 6403WAT      O19450   0.859   9.663   8.567
 6403WAT     H119451   0.856   9.592   8.637
 6403WAT     H219452   0.888   9.622   8.480
 6404WAT      O19453   9.805   8.640   8.245
 6404WAT     H119454   9.734   8.620   8.313
 6404WAT     H219455   9.782   8.595   8.159
 6405WAT      O19456   5.902   2.068   0.143
 6405WAT     H119457   5.867   1.993   0.199
 6405WAT     H219458   6.001   2.074   0.154
 6406WAT      O19459   8.165   9.769   0.036
 6406WAT     H119460   8.085   9.765   0.097
 6406WAT     H219461   8.174   9.862   0.001
 6407WAT      O19462   4.237   5.269   7.535
 6407WAT     H119463   4.146   5.251   7.572
 6407WAT     H219464   4.269   5.188   7.486
 6408WAT      O19465   7.789   2.293   9.458
 6408WAT     H119466   7.798   2.201   9.420
 6408WAT     H219467   7.806   2.361   9.386
 6409WAT      O19468   4.347   3.610   5.314
 6409WAT     H119469   4.293   3.662   5.380
 6409WAT     H219470   4.343   3.655   5.224
 6410WAT      O19471   6.530   0.761   0.822
 6410WAT     H119472   6.457   0.743   0.887
 6410WAT     H219473   6.568   0.853   0.838
 6411WAT      O19474   5.363   1.510   2.105
 6411WAT     H119475   5.413   1.521   2.191
 6411WAT     H219476   5.298   1.586   2.094
 6412WAT      O19477   6.408   4.589   3.494
 6412WAT     H119478   6.430   4.636   3.580
 6412WAT     H219479   6.461   4.505   3.487
 6413WAT      O19480   5.351   9.279   2.239
 6413WAT     H119481   5.404   9.331   2.306
 6413WAT     H219482   5.325   9.191   2.279
 6414WAT      O19483   6.445   7.278   1.272
 6414WAT     H119484   6.368   7.333   1.239
 6414WAT     H219485   6.410   7.193   1.311
 6415WAT      O19486   4.291   5.436   3.142
 6415WAT     H119487   4.315   5.420   3.047
 6415WAT     H219488   4.328   5.524   3.172
 6416WAT      O19489   1.858   3.393   4.917
 6416WAT     H119490   1.764   3.408   4.887
 6416WAT     H219491   1.914   3.472   4.891
 6417WAT      O19492   2.771   2.968   5.985
 6417WAT     H119493   2.763   2.918   6.071
 6417WAT     H219494   2.684   3.013   5.965
 6418WAT      O19495   6.525   1.072   9.168
 6418WAT     H119496   6.541   0.975   9.149
 6418WAT     H219497   6.602   1.110   9.219
 6419WAT      O19498   4.862   1.325   3.273
 6419WAT     H119499   4.844   1.314   3.175
 6419WAT     H219500   4.859   1.235   3.317
 6420WAT      O19501   2.942   5.725   3.593
 6420WAT     H119502   3.028   5.713   3.543
 6420WAT     H219503   2.936   5.656   3.665
 6421WAT      O19504   7.051   6.249   7.356
 6421WAT     H119505   7.008   6.258   7.266
 6421WAT     H219506   7.003   6.308   7.422
 6422WAT      O19507   5.865   7.485   8.462
 6422WAT     H119508   5.949   7.434   8.480
 6422WAT     H219509   5.790   7.421   8.443
 6423WAT      O19510   8.702   9.521   5.493
 6423WAT     H119511   8.651   9.457   5.436
 6423WAT     H219512   8.789   9.479   5.520
 6424WAT      O19513   7.365   1.945   5.005
 6424WAT     H119514   7.379   2.028   5.060
 6424WAT     H219515   7.315   1.878   5.059
 6425WAT      O19516   6.168   0.109   9.611
 6425WAT     H119517   6.108   0.035   9.643
 6425WAT     H219518   6.255   0.105   9.660
 6426WAT      O19519   6.858   0.781   5.972
 6426WAT     H119520   6.852   0.702   5.910
 6426WAT     H219521   6.891   0.751   6.061
 6427WAT      O19522   1.530   3.341   7.822
 6427WAT     H119523   1.496   3.282   7.749
 6427WAT     H219524   1.571   3.423   7.782
 6428WAT      O19525   6.324   5.146   6.378
 6428WAT     H119526   6.248   5.155   6.314
 6428WAT     H219527   6.290   5.113   6.466
 6429WAT      O19528   3.397   5.718   4.158
 6429WAT     H119529   3.352   5.808   4.156
 6429WAT     H219530   3.436   5.703   4.249
 6430WAT      O19531   7.262   2.262   9.237
 6430WAT     H119532   7.186   2.257   9.301
 6430WAT     H219533   7.255   2.347   9.184
 6431WAT      O19534   1.247   1.437   7.363
 6431WAT     H119535   1.329   1.393   7.401
 6431WAT     H219536   1.271   1.529   7.332
 6432WAT      O19537   8.108   5.281   1.969
 6432WAT     H119538   8.151   5.318   2.051
 6432WAT     H219539   8.125   5.342   1.892
 6433WAT      O19540   5.089   1.891   3.392
 6433WAT     H119541   4.993   1.866   3.382
 6433WAT     H219542   5.103   1.985   3.361
 6434WAT      O19543   7.540   5.634   3.652
 6434WAT     H119544   7.441   5.622   3.654
 6434WAT     H219545   7.566   5.681   3.567
 6435WAT      O19546   9.568   7.405   8.560
 6435WAT     H119547   9.545   7.491   8.605
 6435WAT     H219548   9.528   7.404   8.468
 6436WAT      O19549   9.613   5.002   9.747
 6436WAT     H119550   9.617   5.096   9.783
 6436WAT     H219551   9.706   4.967   9.738
 6437WAT      O19552   1.895   3.756   7.738
 6437WAT     H119553   1.991   3.733   7.751
 6437WAT     H219554   1.863   3.811   7.815
 6438WAT      O19555   5.769   4.523   4.931
 6438WAT     H119556   5.701   4.596   4.935
 6438WAT     H219557   5.850   4.556   4.883
 6439WAT      O19558   3.833   2.624   8.565
 6439WAT     H119559   3.902   2.589   8.501
 6439WAT     H219560   3.793   2.707   8.529
 6440WAT      O19561   5.476   8.959   8.532
 6440WAT     H119562   5.572   8.933   8.532
 6440WAT     H219563   5.447   8.982   8.440
 6441WAT      O19564   6.891   5.264   0.483
 6441WAT     H119565   6.891   5.364   0.479
 6441WAT     H219566   6.809   5.233   0.532
 6442WAT      O19567   4.816   1.145   0.594
 6442WAT     H119568   4.832   1.062   0.539
 6442WAT     H219569   4.753   1.123   0.669
 6443WAT      O19570   8.595   6.522   6.498
 6443WAT     H119571   8.554   6.432   6.481
 6443WAT     H219572   8.531   6.594   6.472
 6444WAT      O19573   9.380   5.042   9.593
 6444WAT     H119574   9.394   5.126   9.540
 6444WAT     H219575   9.451   5.036   9.664
 6445WAT      O19576   7.739   5.569   8.195
 6445WAT     H119577   7.793   5.511   8.255
 6445WAT     H219578   7.668   5.514   8.151
 6446WAT      O19579   4.885   2.706   5.828
 6446WAT     H119580   4.850   2.742   5.915
 6446WAT     H219581   4.810   2.668   5.775
 6447WAT      O19582   1.840   7.385   5.663
 6447WAT     H119583   1.759   7.384   5.605
 6447WAT     H219584   1.868   7.479   5.682
 6448WAT      O19585   2.759   8.941   4.620
 6448WAT     H119586   2.827   9.010   4.645
 6448WAT     H219587   2.750   8.874   4.694
 6449WAT      O19588   8.680   9.761   6.206
 6449WAT     H119589   8.772   9.734   6.177
 6449WAT     H219590   8.671   9.749   6.305
 6450WAT      O19591   0.217   6.603   1.783
 6450WAT     H119592   0.226   6.666   1.705
 6450WAT     H219593   0.137   6.627   1.837
 6451WAT      O19594   8.752   1.392   2.928
 6451WAT     H119595   8.719   1.487   2.921
 6451WAT     H219596   8.689   1.331   2.881
 6452WAT      O19597   2.167   3.776   0.357
 6452WAT     H119598   2.093   3.760   0.291
 6452WAT     H219599   2.168   3.703   0.425
 6453WAT      O19600   0.010   6.953   0.155
 6453WAT     H119601  -0.053   6.999   0.217
 6453WAT     H219602   0.104   6.978   0.177
 6454WAT      O19603   8.407   4.392   5.691
 6454WAT     H119604   8.465   4.324   5.737
 6454WAT     H219605   8.413   4.479   5.740
 6455WAT      O19606   8.346   5.926   8.176
 6455WAT     H119607   8.314   6.013   8.139
 6455WAT     H219608   8.442   5.935   8.205
 6456WAT      O19609   6.070   6.027   3.343
 6456WAT     H119610   6.017   6.110   3.326
 6456WAT     H219611   6.046   5.991   3.433
 6457WAT      O19612   3.839   8.734   7.973
 6457WAT     H119613   3.936   8.730   7.945
 6457WAT     H219614   3.808   8.829   7.972
 6458WAT      O19615   0.498   0.132   1.969
 6458WAT     H119616   0.459   0.203   2.028
 6458WAT     H219617   0.424   0.077   1.931
 6459WAT      O19618   9.019   4.812   7.071
 6459WAT     H119619   9.098   4.843   7.018
 6459WAT     H219620   8.967   4.891   7.102
 6460WAT      O19621   0.245   1.151   5.149
 6460WAT     H119622   0.283   1.059   5.149
 6460WAT     H219623   0.150   1.148   5.177
 6461WAT      O19624   2.243   3.733   7.332
 6461WAT     H119625   2.205   3.670   7.263
 6461WAT     H219626   2.343   3.722   7.335
 6462WAT      O19627   1.687   0.880   1.149
 6462WAT     H119628   1.718   0.971   1.176
 6462WAT     H219629   1.587   0.881   1.137
 6463WAT      O19630   0.717   6.843   1.923
 6463WAT     H119631   0.658   6.916   1.887
 6463WAT     H219632   0.673   6.800   2.001
 6464WAT      O19633   9.564   3.771   7.233
 6464WAT     H119634   9.539   3.863   7.204
 6464WAT     H219635   9.496   3.736   7.297
 6465WAT      O19636   0.532   5.627   1.909
 6465WAT     H119637   0.469   5.695   1.945
 6465WAT     H219638   0.566   5.570   1.984
 6466WAT      O19639   8.157   1.426   4.255
 6466WAT     H119640   8.112   1.485   4.323
 6466WAT     H219641   8.251   1.407   4.284
 6467WAT      O19642   7.016   8.548   5.801
 6467WAT     H119643   7.003   8.613   5.727
 6467WAT     H219644   7.030   8.597   5.887
 6468WAT      O19645   2.138   2.892   6.204
 6468WAT     H119646   2.114   2.989   6.200
 6468WAT     H219647   2.191   2.868   6.122
 6469WAT      O19648   3.803   6.732   6.908
 6469WAT     H119649   3.773   6.639   6.924
 6469WAT     H219650   3.855   6.736   6.822
 6470WAT      O19651   6.992  -0.001   7.763
 6470WAT     H119652   7.065   0.028   7.702
 6470WAT     H219653   6.990   0.058   7.844
 6471WAT      O19654   1.000   1.255   9.390
 6471WAT     H119655   1.014   1.250   9.291
 6471WAT     H219656   0.920   1.200   9.416
 6472WAT      O19657   7.568   7.893   4.449
 6472WAT     H119658   7.601   7.952   4.523
 6472WAT     H219659   7.484   7.932   4.410
 6473WAT      O19660   6.484   8.175   4.045
 6473WAT     H119661   6.446   8.136   3.962
 6473WAT     H219662   6.415   8.174   4.117
 6474WAT      O19663   7.273   7.661   9.383
 6474WAT     H119664   7.178   7.672   9.409
 6474WAT     H219665   7.332   7.674   9.463
 6475WAT      O19666   9.503   6.696   3.332
 6475WAT     H119667   9.590   6.710   3.284
 6475WAT     H219668   9.428   6.718   3.270
 6476WAT      O19669   3.222   0.287   0.522
 6476WAT     H119670   3.220   0.187   0.526
 6476WAT     H219671   3.297   0.317   0.462
 6477WAT      O19672   6.745   7.061   3.481
 6477WAT     H119673   6.756   7.156   3.450
 6477WAT     H219674   6.791   7.000   3.417
 6478WAT      O19675   3.381   8.062   1.872
 6478WAT     H119676   3.323   8.143   1.887
 6478WAT     H219677   3.416   8.064   1.778
 6479WAT      O19678   0.921   2.076   9.810
 6479WAT     H119679   0.962   2.094   9.900
 6479WAT     H219680   0.989   2.031   9.752
 6480WAT      O19681   9.649   3.778   5.262
 6480WAT     H119682   9.602   3.785   5.174
 6480WAT     H219683   9.748   3.772   5.246
 6481WAT      O19684   5.516   7.528   6.766
 6481WAT     H119685   5.505   7.537   6.667
 6481WAT     H219686   5.486   7.437   6.794
 6482WAT      O19687   2.398   9.772   3.635
 6482WAT     H119688   2.489   9.804   3.609
 6482WAT     H219689   2.400   9.673   3.648
 6483WAT      O19690   3.334   0.613   8.053
 6483WAT     H119691   3.392   0.541   8.090
 6483WAT     H219692   3.384   0.663   7.982
 6484WAT      O19693   0.283   1.545   8.608
 6484WAT     H119694   0.217   1.485   8.652
 6484WAT     H219695   0.349   1.577   8.676
 6485WAT      O19696   9.507   3.983   2.961
 6485WAT     H119697   9.496   3.949   3.055
 6485WAT     H219698   9.420   3.971   2.912
 6486WAT      O19699   7.985   0.689   2.766
 6486WAT     H119700   8.067   0.644   2.802
 6486WAT     H219701   7.903   0.646   2.803
 6487WAT      O19702   8.389   4.007   4.567
 6487WAT     H119703   8.433   4.021   4.479
 6487WAT     H219704   8.452   3.961   4.629
 6488WAT      O19705   8.849   1.389   9.706
 6488WAT     H119706   8.800   1.463   9.751
 6488WAT     H219707   8.899   1.424   9.627
 6489WAT      O19708   5.775   1.721   2.646
 6489WAT     H119709   5.680   1.749   2.644
 6489WAT     H219710   5.785   1.639   2.703
 6490WAT      O19711   5.980   1.369   7.203
 6490WAT     H119712   6.061   1.331   7.159
 6490WAT     H219713   5.982   1.349   7.301
 6491WAT      O19714   1.609   3.156   2.359
 6491WAT     H119715   1.513   3.127   2.364
 6491WAT     H219716   1.614   3.254   2.340
 6492WAT      O19717   6.526   2.480   0.622
 6492WAT     H119718   6.563   2.460   0.532
 6492WAT     H219719   6.445   2.539   0.612
 6493WAT      O19720   9.540   5.880   7.457
 6493WAT     H119721   9.565   5.972   7.487
 6493WAT     H219722   9.533   5.878   7.358
 6494WAT      O19723   4.101   3.392   2.927
 6494WAT     H119724   4.015   3.352   2.959
 6494WAT     H219725   4.177   3.335   2.957
 6495WAT      O19726   2.129   7.525   6.474
 6495WAT     H119727   2.154   7.621   6.483
 6495WAT     H219728   2.167   7.474   6.551
 6496WAT      O19729   1.952   9.290   2.200
 6496WAT     H119730   1.868   9.274   2.252
 6496WAT     H219731   2.015   9.214   2.215
 6497WAT      O19732   6.679   9.552   5.650
 6497WAT     H119733   6.746   9.547   5.576
 6497WAT     H219734   6.725   9.576   5.735
 6498WAT      O19735   3.946   7.475   8.162
 6498WAT     H119736   4.020   7.410   8.143
 6498WAT     H219737   3.953   7.506   8.257
 6499WAT      O19738   7.999   6.978   7.336
 6499WAT     H119739   7.978   7.066   7.378
 6499WAT     H219740   8.036   6.916   7.405
 6500WAT      O19741   4.516   6.406   4.332
 6500WAT     H119742   4.479   6.437   4.420
 6500WAT     H219743   4.595   6.346   4.348
 6501WAT      O19744   6.526   5.266   6.982
 6501WAT     H119745   6.530   5.365   6.976
 6501WAT     H219746   6.593   5.226   6.919
 6502WAT      O19747   5.533   1.143   6.559
 6502WAT     H119748   5.484   1.228   6.545
 6502WAT     H219749   5.631   1.158   6.548
 6503WAT      O19750   0.507   9.807   0.594
 6503WAT     H119751   0.516   9.728   0.655
 6503WAT     H219752   0.430   9.792   0.531
 6504WAT      O19753   8.617   5.329   6.071
 6504WAT     H119754   8.688   5.360   6.135
 6504WAT     H219755   8.529   5.326   6.118
 6505WAT      O19756   4.347   2.086   2.645
 6505WAT     H119757   4.323   2.055   2.553
 6505WAT     H219758   4.267   2.077   2.705
 6506WAT      O19759   7.177   6.930   8.459
 6506WAT     H119760   7.140   6.962   8.546
 6506WAT     H219761   7.141   6.839   8.439
 6507WAT      O19762   2.091   1.441   0.281
 6507WAT     H119763   2.169   1.493   0.315
 6507WAT     H219764   2.096   1.434   0.182
 6508WAT      O19765   0.581   6.669   9.262
 6508WAT     H119766   0.569   6.636   9.168
 6508WAT     H219767   0.512   6.627   9.321
 6509WAT      O19768   2.484   7.838   5.707
 6509WAT     H119769   2.542   7.913   5.736
 6509WAT     H219770   2.484   7.832   5.607
 6510WAT      O19771   7.117   8.468   0.798
 6510WAT     H119772   7.045   8.484   0.729
 6510WAT     H219773   7.156   8.377   0.784
 6511WAT      O19774   3.408   4.361   9.531
 6511WAT     H119775   3.325   4.314   9.500
 6511WAT     H219776   3.430   4.332   9.624
 6512WAT      O19777   5.312   1.095   7.762
 6512WAT     H119778   5.395   1.119   7.812
 6512WAT     H219779   5.232   1.114   7.819
 6513WAT      O19780   0.355   7.993   3.327
 6513WAT     H119781   0.339   8.067   3.261
 6513WAT     H219782   0.373   8.032   3.417
 6514WAT      O19783   2.332   0.966   9.657
 6514WAT     H119784   2.313   0.890   9.719
 6514WAT     H219785   2.248   0.992   9.610
 6515WAT      O19786   7.551   5.681   8.342
 6515WAT     H119787   7.485   5.735   8.290
 6515WAT     H219788   7.601   5.620   8.280
 6516WAT      O19789   4.252   9.300   7.139
 6516WAT     H119790   4.180   9.364   7.165
 6516WAT     H219791   4.254   9.224   7.203
 6517WAT      O19792   3.490   5.163   6.973
 6517WAT     H119793   3.520   5.242   6.919
 6517WAT     H219794   3.554   5.087   6.960
 6518WAT      O19795   0.155   4.850   3.726
 6518WAT     H119796   0.127   4.756   3.707
 6518WAT     H219797   0.219   4.851   3.803
 6519WAT      O19798   1.563   3.612   5.029
 6519WAT     H119799   1.463   3.612   5.036
 6519WAT     H219800   1.592   3.675   4.957
 6520WAT      O19801   3.445   9.555   5.901
 6520WAT     H119802   3.390   9.473   5.891
 6520WAT     H219803   3.542   9.531   5.902
 6521WAT      O19804   8.598   0.498   9.383
 6521WAT     H119805   8.569   0.522   9.291
 6521WAT     H219806   8.670   0.428   9.378
 6522WAT      O19807   0.827   9.253   4.840
 6522WAT     H119808   0.768   9.297   4.771
 6522WAT     H219809   0.814   9.154   4.836
 6523WAT      O19810   4.204   6.876   3.729
 6523WAT     H119811   4.217   6.832   3.640
 6523WAT     H219812   4.289   6.872   3.781
 6524WAT      O19813   9.106   5.023   5.026
 6524WAT     H119814   9.189   5.074   5.002
 6524WAT     H219815   9.132   4.942   5.079
 6525WAT      O19816   1.736   9.536   8.019
 6525WAT     H119817   1.673   9.459   8.012
 6525WAT     H219818   1.736   9.570   8.113
 6526WAT      O19819   8.455   6.164   9.854
 6526WAT     H119820   8.455   6.111   9.769
 6526WAT     H219821   8.411   6.111   9.927
 6527WAT      O19822   7.337   2.662   2.252
 6527WAT     H119823   7.270   2.671   2.178
 6527WAT     H219824   7.377   2.571   2.249
 6528WAT      O19825   9.010   6.609   5.659
 6528WAT     H119826   9.050   6.625   5.750
 6528WAT     H219827   8.968   6.694   5.626
 6529WAT      O19828   0.246   3.108   2.564
 6529WAT     H119829   0.268   3.016   2.533
 6529WAT     H219830   0.152   3.131   2.538
 6530WAT      O19831   5.675   6.061   1.020
 6530WAT     H119832   5.759   6.066   0.967
 6530WAT     H219833   5.597   6.047   0.959
 6531WAT      O19834   0.537   7.279   3.155
 6531WAT     H119835   0.506   7.254   3.063
 6531WAT     H219836   0.510   7.373   3.175
 6532WAT      O19837   1.519   7.070   9.685
 6532WAT     H119838   1.582   7.122   9.743
 6532WAT     H219839   1.570   7.005   9.630
 6533WAT      O19840   5.128   8.399   5.943
 6533WAT     H119841   5.224   8.387   5.918
 6533WAT     H219842   5.115   8.490   5.983
 6534WAT      O19843   7.385   9.798   5.774
 6534WAT     H119844   7.442   9.716   5.784
 6534WAT     H219845   7.362   9.834   5.864
 6535WAT      O19846   8.654   1.490   0.511
 6535WAT     H119847   8.672   1.395   0.483
 6535WAT     H219848   8.729   1.523   0.567
 6536WAT      O19849   2.516   5.371   8.033
 6536WAT     H119850   2.523   5.470   8.027
 6536WAT     H219851   2.505   5.333   7.941
 6537WAT      O19852   3.181   2.737   8.567
 6537WAT     H119853   3.128   2.799   8.625
 6537WAT     H219854   3.141   2.646   8.571
 6538WAT      O19855   4.507   4.061   5.409
 6538WAT     H119856   4.411   4.035   5.419
 6538WAT     H219857   4.564   3.984   5.438
 6539WAT      O19858   9.227   4.384   2.764
 6539WAT     H119859   9.140   4.379   2.713
 6539WAT     H219860   9.293   4.437   2.711
 6540WAT      O19861   0.356   0.187   4.124
 6540WAT     H119862   0.348   0.207   4.026
 6540WAT     H219863   0.407   0.102   4.136
 6541WAT      O19864   3.541   1.069   1.069
 6541WAT     H119865   3.495   1.092   1.155
 6541WAT     H219866   3.558   1.153   1.018
 6542WAT      O19867   6.641   8.559   1.119
 6542WAT     H119868   6.726   8.534   1.073
 6542WAT     H219869   6.564   8.516   1.072
 6543WAT      O19870   4.857   3.112   7.894
 6543WAT     H119871   4.853   3.116   7.994
 6543WAT     H219872   4.765   3.116   7.856
 6544WAT      O19873   3.254   3.178   6.089
 6544WAT     H119874   3.155   3.170   6.076
 6544WAT     H219875   3.300   3.112   6.030
 6545WAT      O19876   1.227   5.912   5.920
 6545WAT     H119877   1.309   5.878   5.966
 6545WAT     H219878   1.148   5.857   5.947
 6546WAT      O19879   1.572   8.751   8.913
 6546WAT     H119880   1.497   8.731   8.851
 6546WAT     H219881   1.633   8.819   8.872
 6547WAT      O19882   4.300   4.182   1.497
 6547WAT     H119883   4.218   4.146   1.542
 6547WAT     H219884   4.372   4.113   1.499
 6548WAT      O19885   2.584   5.181   1.692
 6548WAT     H119886   2.514   5.217   1.630
 6548WAT     H219887   2.545   5.106   1.746
 6549WAT      O19888   6.712   3.196   5.996
 6549WAT     H119889   6.735   3.159   6.086
 6549WAT     H219890   6.617   3.178   5.975
 6550WAT      O19891   3.954   8.470   8.283
 6550WAT     H119892   3.957   8.391   8.222
 6550WAT     H219893   3.865   8.515   8.275
 6551WAT      O19894   8.626   1.107   3.658
 6551WAT     H119895   8.606   1.092   3.755
 6551WAT     H219896   8.705   1.167   3.650
 6552WAT      O19897   6.380   5.193   9.306
 6552WAT     H119898   6.385   5.203   9.405
 6552WAT     H219899   6.433   5.265   9.262
 6553WAT      O19900   7.550   7.668   3.477
 6553WAT     H119901   7.559   7.700   3.572
 6553WAT     H219902   7.519   7.573   3.477
 6554WAT      O19903   7.289   8.513   8.257
 6554WAT     H119904   7.250   8.596   8.297
 6554WAT     H219905   7.387   8.525   8.243
 6555WAT      O19906   8.161   2.726   4.822
 6555WAT     H119907   8.107   2.650   4.785
 6555WAT     H219908   8.247   2.733   4.773
 6556WAT      O19909   6.715   1.599   5.950
 6556WAT     H119910   6.661   1.660   5.891
 6556WAT     H219911   6.682   1.505   5.940
 6557WAT      O19912   5.789   9.540   4.852
 6557WAT     H119913   5.716   9.509   4.791
 6557WAT     H219914   5.874   9.550   4.800
 6558WAT      O19915   3.633   7.791   8.067
 6558WAT     H119916   3.543   7.745   8.068
 6558WAT     H219917   3.668   7.791   7.973
 6559WAT      O19918   1.941   7.049   1.758
 6559WAT     H119919   1.946   6.978   1.828
 6559WAT     H219920   1.993   7.021   1.678
 6560WAT      O19921   7.069   8.085   0.455
 6560WAT     H119922   7.125   8.028   0.515
 6560WAT     H219923   7.000   8.133   0.509
 6561WAT      O19924   8.135   2.307   8.762
 6561WAT     H119925   8.074   2.234   8.732
 6561WAT     H219926   8.229   2.273   8.766
 6562WAT      O19927   5.434   2.270   7.605
 6562WAT     H119928   5.372   2.195   7.631
 6562WAT     H219929   5.389   2.358   7.623
 6563WAT      O19930   7.755   6.837   2.070
 6563WAT     H119931   7.748   6.937   2.080
 6563WAT     H219932   7.710   6.809   1.985
 6564WAT      O19933   2.999   8.012   9.470
 6564WAT     H119934   3.021   7.999   9.373
 6564WAT     H219935   2.912   7.969   9.490
 6565WAT      O19936   1.917   9.574   5.079
 6565WAT     H119937   1.915   9.560   4.980
 6565WAT     H219938   1.912   9.486   5.126
 6566WAT      O19939   3.661   9.006   5.773
 6566WAT     H119940   3.612   9.082   5.816
 6566WAT     H219941   3.620   8.920   5.802
 6567WAT      O19942   4.904   9.582   2.472
 6567WAT     H119943   4.987   9.577   2.417
 6567WAT     H219944   4.829   9.538   2.422
 6568WAT      O19945   2.143   8.846   1.227
 6568WAT     H119946   2.060   8.901   1.233
 6568WAT     H219947   2.150   8.807   1.135
 6569WAT      O19948   1.602   5.181   7.807
 6569WAT     H119949   1.687   5.127   7.808
 6569WAT     H219950   1.589   5.221   7.716
 6570WAT      O19951   4.885   6.451   0.928
 6570WAT     H119952   4.811   6.417   0.870
 6570WAT     H219953   4.891   6.550   0.921
 6571WAT      O19954   4.928   9.278   7.411
 6571WAT     H119955   5.011   9.334   7.418
 6571WAT     H219956   4.944   9.203   7.347
 6572WAT      O19957   9.823   0.992   1.690
 6572WAT     H119958   9.864   1.075   1.728
 6572WAT     H219959   9.824   0.919   1.758
 6573WAT      O19960   3.002   0.237   6.806
 6573WAT     H119961   2.948   0.252   6.723
 6573WAT     H219962   2.954   0.173   6.866
 6574WAT      O19963   4.901   1.571   1.826
 6574WAT     H119964   4.996   1.568   1.795
 6574WAT     H219965   4.872   1.479   1.852
 6575WAT      O19966   7.381   1.211   9.358
 6575WAT     H119967   7.294   1.259   9.344
 6575WAT     H219968   7.385   1.176   9.451
 6576WAT      O19969   3.114   5.460   5.773
 6576WAT     H119970   3.044   5.389   5.765
 6576WAT     H219971   3.197   5.421   5.813
 6577WAT      O19972   6.383   1.278   9.057
 6577WAT     H119973   6.438   1.212   9.108
 6577WAT     H219974   6.420   1.370   9.071
 6578WAT      O19975   0.202   4.201   7.409
 6578WAT     H119976   0.171   4.206   7.504
 6578WAT     H219977   0.154   4.270   7.355
 6579WAT      O19978   2.478   2.210   4.702
 6579WAT     H119979   2.400   2.189   4.644
 6579WAT     H219980   2.546   2.137   4.694
 6580WAT      O19981   9.422   5.449   9.381
 6580WAT     H119982   9.397   5.415   9.290
 6580WAT     H219983   9.456   5.542   9.373
 6581WAT      O19984   3.250   3.662   2.806
 6581WAT     H119985   3.181   3.608   2.856
 6581WAT     H219986   3.239   3.758   2.829
 6582WAT      O19987   7.837   0.756   4.405
 6582WAT     H119988   7.928   0.735   4.441
 6582WAT     H219989   7.824   0.711   4.317
 6583WAT      O19990   1.461   1.770   4.873
 6583WAT     H119991   1.450   1.772   4.774
 6583WAT     H219992   1.539   1.827   4.899
 6584WAT      O19993   6.736   6.566   4.385
 6584WAT     H119994   6.701   6.650   4.428
 6584WAT     H219995   6.789   6.590   4.303
 6585WAT      O19996   1.454   8.024   9.349
 6585WAT     H119997   1.553   8.032   9.363
 6585WAT     H219998   1.429   8.063   9.261
 6586WAT      O19999   7.703   6.857   9.460
 6586WAT     H120000   7.652   6.942   9.474
 6586WAT     H220001   7.672   6.789   9.526
 6587WAT      O20002   7.604   8.298   9.606
 6587WAT     H120003   7.676   8.365   9.586
 6587WAT     H220004   7.528   8.314   9.543
 6588WAT      O20005   3.306   4.285   9.044
 6588WAT     H120006   3.338   4.375   9.013
 6588WAT     H220007   3.246   4.245   8.974
 6589WAT      O20008   3.241   5.464   4.922
 6589WAT     H120009   3.158   5.506   4.958
 6589WAT     H220010   3.280   5.523   4.851
 6590WAT      O20011   9.469   0.021   0.712
 6590WAT     H120012   9.515   0.017   0.623
 6590WAT     H220013   9.484  -0.064   0.762
 6591WAT      O20014   3.809   9.715   8.306
 6591WAT     H120015   3.715   9.747   8.300
 6591WAT     H220016   3.871   9.794   8.308
 6592WAT      O20017   2.334   2.228   0.619
 6592WAT     H120018   2.320   2.140   0.665
 6592WAT     H220019   2.262   2.242   0.552
 6593WAT      O20020   1.402   1.768   1.086
 6593WAT     H120021   1.338   1.740   1.158
 6593WAT     H220022   1.415   1.867   1.091
 6594WAT      O20023   8.394   0.078   0.757
 6594WAT     H120024   8.295   0.096   0.756
 6594WAT     H220025   8.430   0.092   0.849
 6595WAT      O20026   8.214   8.186   1.196
 6595WAT     H120027   8.289   8.123   1.210
 6595WAT     H220028   8.127   8.141   1.218
 6596WAT      O20029   5.252   0.780   1.790
 6596WAT     H120030   5.269   0.687   1.759
 6596WAT     H220031   5.307   0.844   1.737
 6597WAT      O20032   4.319   8.190   3.563
 6597WAT     H120033   4.242   8.126   3.574
 6597WAT     H220034   4.297   8.277   3.609
 6598WAT      O20035   8.339   4.540   3.279
 6598WAT     H120036   8.417   4.596   3.310
 6598WAT     H220037   8.372   4.463   3.226
 6599WAT      O20038   1.444   1.048   2.232
 6599WAT     H120039   1.527   0.993   2.239
 6599WAT     H220040   1.422   1.063   2.135
 6600WAT      O20041   9.890   0.129   8.288
 6600WAT     H120042   9.915   0.058   8.353
 6600WAT     H220043   9.828   0.194   8.331
 6601WAT      O20044   6.389   1.055   0.101
 6601WAT     H120045   6.364   0.971   0.054
 6601WAT     H220046   6.488   1.057   0.117
 6602WAT      O20047   3.067   0.170   1.816
 6602WAT     H120048   3.155   0.124   1.804
 6602WAT     H220049   3.022   0.135   1.898
 6603WAT      O20050   6.488   6.906   9.402
 6603WAT     H120051   6.496   6.806   9.407
 6603WAT     H220052   6.421   6.937   9.470
 6604WAT      O20053   8.830   6.592   5.033
 6604WAT     H120054   8.898   6.531   5.073
 6604WAT     H220055   8.741   6.545   5.029
 6605WAT      O20056   9.602   2.653   7.993
 6605WAT     H120057   9.663   2.633   7.917
 6605WAT     H220058   9.531   2.717   7.964
 6606WAT      O20059   8.407   2.904   8.840
 6606WAT     H120060   8.435   2.950   8.756
 6606WAT     H220061   8.424   2.806   8.831
 6607WAT      O20062   8.313   5.451   0.697
 6607WAT     H120063   8.306   5.375   0.632
 6607WAT     H220064   8.306   5.538   0.647
 6608WAT      O20065   9.157   4.034   2.370
 6608WAT     H120066   9.235   4.003   2.424
 6608WAT     H220067   9.072   4.004   2.412
 6609WAT      O20068   9.170   5.980   1.046
 6609WAT     H120069   9.255   5.928   1.036
 6609WAT     H220070   9.123   5.983   0.958
 6610WAT      O20071   8.928   7.491   3.525
 6610WAT     H120072   8.925   7.393   3.545
 6610WAT     H220073   8.836   7.524   3.505
 6611WAT      O20074   9.245   2.411   0.784
 6611WAT     H120075   9.313   2.417   0.711
 6611WAT     H220076   9.281   2.453   0.867
 6612WAT      O20077   7.195   7.625   2.086
 6612WAT     H120078   7.175   7.705   2.142
 6612WAT     H220079   7.162   7.641   1.993
 6613WAT      O20080   9.119   0.041   2.886
 6613WAT     H120081   9.203   0.063   2.936
 6613WAT     H220082   9.085   0.124   2.841
 6614WAT      O20083   4.839   1.856   6.813
 6614WAT     H120084   4.835   1.847   6.912
 6614WAT     H220085   4.850   1.766   6.771
 6615WAT      O20086   7.046   7.729   2.349
 6615WAT     H120087   7.017   7.635   2.328
 6615WAT     H220088   7.018   7.753   2.442
 6616WAT      O20089   2.753   9.343   8.751
 6616WAT     H120090   2.711   9.262   8.710
 6616WAT     H220091   2.757   9.417   8.684
 6617WAT      O20092   2.970   3.132   6.044
 6617WAT     H120093   2.994   3.211   5.986
 6617WAT     H220094   2.887   3.089   6.008
 6618WAT      O20095   0.169   0.295   3.489
 6618WAT     H120096   0.219   0.223   3.441
 6618WAT     H220097   0.161   0.375   3.430
 6619WAT      O20098   2.710   7.430   5.577
 6619WAT     H120099   2.713   7.508   5.639
 6619WAT     H220100   2.626   7.379   5.592
 6620WAT      O20101   9.055   7.598   2.907
 6620WAT     H120102   8.968   7.560   2.939
 6620WAT     H220103   9.116   7.611   2.985
 6621WAT      O20104   8.323   8.644   5.170
 6621WAT     H120105   8.361   8.724   5.215
 6621WAT     H220106   8.246   8.609   5.223
 6622WAT      O20107   9.654   2.622   3.609
 6622WAT     H120108   9.637   2.629   3.707
 6622WAT     H220109   9.675   2.526   3.586
 6623WAT      O20110   6.098   7.732   6.340
 6623WAT     H120111   6.146   7.755   6.425
 6623WAT     H220112   6.098   7.632   6.329
 6624WAT      O20113   1.531   1.172   3.021
 6624WAT     H120114   1.560   1.085   2.981
 6624WAT     H220115   1.558   1.247   2.961
 6625WAT      O20116   5.837   2.136   4.225
 6625WAT     H120117   5.843   2.171   4.132
 6625WAT     H220118   5.843   2.212   4.290
 6626WAT      O20119   5.246   6.779   7.088
 6626WAT     H120120   5.324   6.794   7.149
 6626WAT     H220121   5.230   6.681   7.078
 6627WAT      O20122   6.057   8.476   2.073
 6627WAT     H120123   6.117   8.508   2.147
 6627WAT     H220124   6.087   8.386   2.042
 6628WAT      O20125   6.858   2.577   3.132
 6628WAT     H120126   6.944   2.566   3.180
 6628WAT     H220127   6.782   2.577   3.198
 6629WAT      O20128   4.822   1.365   8.220
 6629WAT     H120129   4.748   1.412   8.268
 6629WAT     H220130   4.908   1.381   8.269
 6630WAT      O20131   8.291   4.701   7.905
 6630WAT     H120132   8.317   4.715   7.809
 6630WAT     H220133   8.195   4.728   7.917
 6631WAT      O20134   2.050   4.046   4.640
 6631WAT     H120135   2.104   3.963   4.627
 6631WAT     H220136   2.031   4.059   4.738
 6632WAT      O20137   7.389   0.874   3.254
 6632WAT     H120138   7.401   0.911   3.162
 6632WAT     H220139   7.311   0.812   3.255
 6633WAT      O20140   7.219   2.179   5.508
 6633WAT     H120141   7.301   2.127   5.485
 6633WAT     H220142   7.158   2.184   5.429
 6634WAT      O20143   9.299   3.700   6.926
 6634WAT     H120144   9.294   3.720   7.023
 6634WAT     H220145   9.363   3.763   6.881
 6635WAT      O20146   6.365   7.493   4.226
 6635WAT     H120147   6.382   7.533   4.136
 6635WAT     H220148   6.305   7.554   4.278
 6636WAT      O20149   0.979   1.856   8.861
 6636WAT     H120150   0.926   1.771   8.859
 6636WAT     H220151   1.008   1.880   8.768
 6637WAT      O20152   1.502   8.903   1.977
 6637WAT     H120153   1.576   8.965   2.006
 6637WAT     H220154   1.420   8.923   2.031
 6638WAT      O20155   1.916   1.286   0.440
 6638WAT     H120156   1.970   1.343   0.378
 6638WAT     H220157   1.835   1.337   0.470
 6639WAT      O20158   0.541   6.158   4.326
 6639WAT     H120159   0.543   6.071   4.375
 6639WAT     H220160   0.507   6.143   4.233
 6640WAT      O20161   4.782   0.415   4.584
 6640WAT     H120162   4.822   0.324   4.581
 6640WAT     H220163   4.740   0.435   4.495
 6641WAT      O20164   4.653   7.612   0.829
 6641WAT     H120165   4.570   7.556   0.832
 6641WAT     H220166   4.633   7.704   0.864
 6642WAT      O20167   2.196   2.993   7.835
 6642WAT     H120168   2.272   2.961   7.890
 6642WAT     H220169   2.222   3.077   7.787
 6643WAT      O20170   2.472   5.634   9.861
 6643WAT     H120171   2.458   5.614   9.764
 6643WAT     H220172   2.569   5.647   9.878
 6644WAT      O20173   3.610   2.029   6.968
 6644WAT     H120174   3.597   1.994   7.061
 6644WAT     H220175   3.707   2.026   6.945
 6645WAT      O20176   3.457   1.286   4.815
 6645WAT     H120177   3.436   1.198   4.858
 6645WAT     H220178   3.501   1.346   4.880
 6646WAT      O20179   1.597   1.638   4.066
 6646WAT     H120180   1.665   1.695   4.020
 6646WAT     H220181   1.508   1.652   4.023
 6647WAT      O20182   6.255   4.865   8.035
 6647WAT     H120183   6.315   4.788   8.015
 6647WAT     H220184   6.309   4.941   8.072
 6648WAT      O20185   7.939   2.395   5.314
 6648WAT     H120186   7.978   2.307   5.287
 6648WAT     H220187   7.905   2.444   5.234
 6649WAT      O20188   8.025   9.601   8.479
 6649WAT     H120189   8.002   9.634   8.571
 6649WAT     H220190   8.096   9.532   8.486
 6650WAT      O20191   7.166   6.554   3.220
 6650WAT     H120192   7.123   6.516   3.137
 6650WAT     H220193   7.152   6.491   3.296
 6651WAT      O20194   6.370   7.844   1.601
 6651WAT     H120195   6.448   7.784   1.620
 6651WAT     H220196   6.368   7.917   1.669
 6652WAT      O20197   9.256   9.628   0.309
 6652WAT     H120198   9.266   9.677   0.222
 6652WAT     H220199   9.168   9.582   0.311
 6653WAT      O20200   5.324   7.655   9.803
 6653WAT     H120201   5.227   7.642   9.785
 6653WAT     H220202   5.369   7.692   9.722
 6654WAT      O20203   0.059   4.040   9.884
 6654WAT     H120204   0.025   3.993   9.966
 6654WAT     H220205   0.044   4.139   9.894
 6655WAT      O20206   1.144   2.302   9.853
 6655WAT     H120207   1.052   2.298   9.891
 6655WAT     H220208   1.172   2.398   9.843
 6656WAT      O20209   6.066   3.259   3.127
 6656WAT     H120210   6.116   3.178   3.159
 6656WAT     H220211   5.985   3.230   3.077
 6657WAT      O20212   6.174   2.592   4.161
 6657WAT     H120213   6.110   2.597   4.084
 6657WAT     H220214   6.131   2.546   4.238
 6658WAT      O20215   2.131   6.756   8.711
 6658WAT     H120216   2.113   6.841   8.761
 6658WAT     H220217   2.053   6.694   8.721
 6659WAT      O20218   2.834   3.044   2.789
 6659WAT     H120219   2.789   2.970   2.739
 6659WAT     H220220   2.837   3.021   2.886
 6660WAT      O20221   0.348   8.090   5.084
 6660WAT     H120222   0.363   8.148   5.164
 6660WAT     H220223   0.415   8.016   5.084
 6661WAT      O20224   0.665   7.220   3.409
 6661WAT     H120225   0.620   7.253   3.326
 6661WAT     H220226   0.746   7.167   3.384
 6662WAT      O20227   5.126   0.881   0.535
 6662WAT     H120228   5.177   0.816   0.478
 6662WAT     H220229   5.063   0.830   0.594
 6663WAT      O20230   8.795   2.579   3.534
 6663WAT     H120231   8.851   2.579   3.451
 6663WAT     H220232   8.850   2.551   3.612
 6664WAT      O20233   1.894   0.931   4.435
 6664WAT     H120234   1.969   0.882   4.480
 6664WAT     H220235   1.859   0.875   4.360
 6665WAT      O20236   2.158   1.243   6.777
 6665WAT     H120237   2.092   1.265   6.849
 6665WAT     H220238   2.149   1.148   6.751
 6666WAT      O20239   1.345   6.833   9.353
 6666WAT     H120240   1.261   6.795   9.316
 6666WAT     H220241   1.334   6.932   9.366
 6667WAT      O20242   2.012   3.359   7.849
 6667WAT     H120243   1.918   3.394   7.845
 6667WAT     H220244   2.074   3.434   7.872
 6668WAT      O20245   6.535   4.581   0.054
 6668WAT     H120246   6.498   4.488   0.044
 6668WAT     H220247   6.494   4.625   0.134
 6669WAT      O20248   4.150   4.264   0.568
 6669WAT     H120249   4.183   4.338   0.627
 6669WAT     H220250   4.191   4.273   0.477
 6670WAT      O20251   2.141   1.847   5.385
 6670WAT     H120252   2.136   1.751   5.414
 6670WAT     H220253   2.174   1.851   5.291
 6671WAT      O20254   8.053   6.508   0.971
 6671WAT     H120255   8.005   6.551   0.894
 6671WAT     H220256   8.042   6.565   1.052
 6672WAT      O20257   6.029   3.687   8.192
 6672WAT     H120258   5.970   3.736   8.127
 6672WAT     H220259   6.114   3.738   8.204
 6673WAT      O20260   3.080   7.132   6.483
 6673WAT     H120261   3.118   7.118   6.575
 6673WAT     H220262   3.134   7.080   6.417
 6674WAT      O20263   3.466   6.741   0.533
 6674WAT     H120264   3.566   6.743   0.530
 6674WAT     H220265   3.434   6.742   0.627
 6675WAT      O20266   8.716   9.835   6.646
 6675WAT     H120267   8.697   9.911   6.584
 6675WAT     H220268   8.753   9.871   6.732
 6676WAT      O20269   6.180   8.330   6.440
 6676WAT     H120270   6.154   8.383   6.359
 6676WAT     H220271   6.213   8.392   6.511
 6677WAT      O20272   4.799   9.417   1.440
 6677WAT     H120273   4.729   9.345   1.440
 6677WAT     H220274   4.777   9.485   1.509
 6678WAT      O20275   0.621   5.023   6.929
 6678WAT     H120276   0.533   4.978   6.944
 6678WAT     H220277   0.689   4.985   6.991
 6679WAT      O20278   1.909   0.329   2.968
 6679WAT     H120279   1.911   0.420   3.010
 6679WAT     H220280   1.921   0.337   2.869
 6680WAT      O20281   6.470   5.538   2.431
 6680WAT     H120282   6.429   5.624   2.464
 6680WAT     H220283   6.555   5.521   2.481
 6681WAT      O20284   9.044   5.284   4.311
 6681WAT     H120285   9.111   5.358   4.308
 6681WAT     H220286   9.011   5.272   4.404
 6682WAT      O20287   8.413   0.704   9.404
 6682WAT     H120288   8.497   0.650   9.399
 6682WAT     H220289   8.435   0.797   9.435
 6683WAT      O20290   9.432   7.402   8.908
 6683WAT     H120291   9.486   7.454   8.974
 6683WAT     H220292   9.405   7.315   8.949
 6684WAT      O20293   0.384   0.696   5.467
 6684WAT     H120294   0.475   0.688   5.426
 6684WAT     H220295   0.381   0.775   5.527
 6685WAT      O20296   1.406   9.201   7.258
 6685WAT     H120297   1.325   9.230   7.206
 6685WAT     H220298   1.394   9.226   7.354
 6686WAT      O20299   6.132   7.661   7.795
 6686WAT     H120300   6.123   7.719   7.714
 6686WAT     H220301   6.047   7.609   7.809
 6687WAT      O20302   3.721   9.193   4.626
 6687WAT     H120303   3.668   9.185   4.542
 6687WAT     H220304   3.670   9.153   4.702
 6688WAT      O20305   8.925   2.963   0.278
 6688WAT     H120306   8.890   3.054   0.300
 6688WAT     H220307   9.023   2.969   0.260
 6689WAT      O20308   0.663   5.673   8.716
 6689WAT     H120309   0.683   5.591   8.663
 6689WAT     H220310   0.606   5.735   8.662
 6690WAT      O20311   8.530   1.502   0.230
 6690WAT     H120312   8.484   1.442   0.295
 6690WAT     H220313   8.623   1.469   0.215
 6691WAT      O20314   4.394   3.377   5.699
 6691WAT     H120315   4.423   3.390   5.604
 6691WAT     H220316   4.454   3.429   5.760
 6692WAT      O20317   9.722   0.786   2.261
 6692WAT     H120318   9.821   0.792   2.263
 6692WAT     H220319   9.683   0.878   2.256
 6693WAT      O20320   7.777   2.922   7.145
 6693WAT     H120321   7.858   2.865   7.129
 6693WAT     H220322   7.720   2.879   7.216
 6694WAT      O20323   5.239   9.672   3.586
 6694WAT     H120324   5.236   9.595   3.521
 6694WAT     H220325   5.316   9.660   3.648
 6695WAT      O20326   8.374   6.300   1.815
 6695WAT     H120327   8.429   6.374   1.853
 6695WAT     H220328   8.427   6.249   1.748
 6696WAT      O20329   1.721   0.964   3.757
 6696WAT     H120330   1.772   0.910   3.690
 6696WAT     H220331   1.785   1.004   3.822
 6697WAT      O20332   8.787   1.616   0.098
 6697WAT     H120333   8.758   1.698   0.147
 6697WAT     H220334   8.799   1.541   0.163
 6698WAT      O20335   1.314   1.565   8.660
 6698WAT     H120336   1.224   1.588   8.621
 6698WAT     H220337   1.340   1.634   8.727
 6699WAT      O20338   7.809   8.126   1.936
 6699WAT     H120339   7.740   8.056   1.920
 6699WAT     H220340   7.861   8.140   1.852
 6700WAT      O20341   1.970   1.682   2.801
 6700WAT     H120342   1.960   1.585   2.780
 6700WAT     H220343   1.958   1.696   2.900
 6701WAT      O20344   5.903   5.684   9.097
 6701WAT     H120345   5.813   5.641   9.098
 6701WAT     H220346   5.968   5.627   9.149
 6702WAT      O20347   1.597   7.692   7.615
 6702WAT     H120348   1.692   7.679   7.644
 6702WAT     H220349   1.540   7.713   7.695
 6703WAT      O20350   4.287   9.733   2.481
 6703WAT     H120351   4.362   9.730   2.415
 6703WAT     H220352   4.245   9.824   2.479
 6704WAT      O20353   3.468   0.235   3.223
 6704WAT     H120354   3.454   0.295   3.145
 6704WAT     H220355   3.392   0.170   3.229
 6705WAT      O20356   3.215   1.545   5.840
 6705WAT     H120357   3.130   1.494   5.856
 6705WAT     H220358   3.264   1.505   5.763
 6706WAT      O20359   2.415   0.551   5.689
 6706WAT     H120360   2.357   0.588   5.761
 6706WAT     H220361   2.372   0.567   5.600
 6707WAT      O20362   9.845   0.926   9.258
 6707WAT     H120363   9.750   0.911   9.231
 6707WAT     H220364   9.879   1.009   9.212
 6708WAT      O20365   3.644   1.648   0.238
 6708WAT     H120366   3.668   1.654   0.141
 6708WAT     H220367   3.619   1.554   0.260
 6709WAT      O20368   6.564   9.282   6.705
 6709WAT     H120369   6.512   9.300   6.788
 6709WAT     H220370   6.660   9.304   6.720
 6710WAT      O20371   2.987   5.652   4.881
 6710WAT     H120372   2.971   5.675   4.785
 6710WAT     H220373   3.023   5.731   4.930
 6711WAT      O20374   9.178   1.087   4.894
 6711WAT     H120375   9.233   1.095   4.977
 6711WAT     H220376   9.091   1.134   4.908
 6712WAT      O20377   2.548   8.691   4.793
 6712WAT     H120378   2.630   8.740   4.822
 6712WAT     H220379   2.468   8.730   4.839
 6713WAT      O20380   9.784   1.898   6.786
 6713WAT     H120381   9.882   1.906   6.806
 6713WAT     H220382   9.752   1.982   6.743
 6714WAT      O20383   4.855   0.991   4.232
 6714WAT     H120384   4.772   1.023   4.277
 6714WAT     H220385   4.900   1.068   4.186
 6715WAT      O20386   2.888   1.441   0.369
 6715WAT     H120387   2.878   1.433   0.270
 6715WAT     H220388   2.970   1.496   0.389
 6716WAT      O20389   4.757   8.171   4.427
 6716WAT     H120390   4.837   8.198   4.481
 6716WAT     H220391   4.778   8.180   4.330
 6717WAT      O20392   6.391   0.220   0.048
 6717WAT     H120393   6.341   0.276  -0.019
 6717WAT     H220394   6.457   0.277   0.097
 6718WAT      O20395   7.341   7.939   0.471
 6718WAT     H120396   7.405   7.867   0.442
 6718WAT     H220397   7.295   7.911   0.555
 6719WAT      O20398   6.260   6.092   1.471
 6719WAT     H120399   6.170   6.072   1.431
 6719WAT     H220400   6.248   6.137   1.559
 6720WAT      O20401   2.575   4.364   2.260
 6720WAT     H120402   2.600   4.385   2.165
 6720WAT     H220403   2.508   4.430   2.292
 6721WAT      O20404   4.854   4.051   6.552
 6721WAT     H120405   4.932   3.993   6.528
 6721WAT     H220406   4.812   4.018   6.637
 6722WAT      O20407   6.531   5.032   2.776
 6722WAT     H120408   6.544   5.065   2.869
 6722WAT     H220409   6.620   5.014   2.734
 6723WAT      O20410   0.014   3.533   0.628
 6723WAT     H120411   0.074   3.590   0.684
 6723WAT     H220412  -0.079   3.536   0.665
 6724WAT      O20413   1.722   3.301   0.859
 6724WAT     H120414   1.688   3.317   0.766
 6724WAT     H220415   1.820   3.283   0.855
 6725WAT      O20416   7.731   8.723   6.478
 6725WAT     H120417   7.788   8.798   6.511
 6725WAT     H220418   7.754   8.704   6.382
 6726WAT      O20419   4.492   9.799   1.890
 6726WAT     H120420   4.461   9.819   1.797
 6726WAT     H220421   4.485   9.700   1.906
 6727WAT      O20422   8.146   2.927   7.342
 6727WAT     H120423   8.169   2.890   7.432
 6727WAT     H220424   8.085   3.005   7.352
 6728WAT      O20425   8.724   5.642   3.799
 6728WAT     H120426   8.717   5.559   3.854
 6728WAT     H220427   8.803   5.634   3.738
 6729WAT      O20428   7.593   6.086   0.725
 6729WAT     H120429   7.543   6.062   0.808
 6729WAT     H220430   7.671   6.025   0.714
 6730WAT      O20431   9.838   2.204   1.220
 6730WAT     H120432   9.754   2.170   1.178
 6730WAT     H220433   9.907   2.132   1.220
 6731WAT      O20434   2.772   8.626   8.649
 6731WAT     H120435   2.843   8.556   8.653
 6731WAT     H220436   2.737   8.643   8.741
 6732WAT      O20437   0.611   3.869   7.819
 6732WAT     H120438   0.707   3.860   7.845
 6732WAT     H220439   0.594   3.815   7.737
 6733WAT      O20440   3.629   3.665   4.771
 6733WAT     H120441   3.568   3.602   4.723
 6733WAT     H220442   3.645   3.746   4.714
 6734WAT      O20443   8.799   0.278   5.270
 6734WAT     H120444   8.745   0.358   5.296
 6734WAT     H220445   8.753   0.228   5.197
 6735WAT      O20446   9.876   2.530   6.040
 6735WAT     H120447   9.826   2.479   5.970
 6735WAT     H220448   9.813   2.554   6.114
 6736WAT      O20449   3.643   2.753   0.760
 6736WAT     H120450   3.562   2.772   0.706
 6736WAT     H220451   3.688   2.670   0.725
 6737WAT      O20452   7.808   6.343   4.988
 6737WAT     H120453   7.837   6.277   4.918
 6737WAT     H220454   7.872   6.419   4.990
 6738WAT      O20455   4.384   8.683   5.608
 6738WAT     H120456   4.471   8.725   5.583
 6738WAT     H220457   4.344   8.638   5.529
 6739WAT      O20458   5.534   9.638   7.722
 6739WAT     H120459   5.474   9.718   7.720
 6739WAT     H220460   5.555   9.610   7.628
 6740WAT      O20461   2.844   5.018   7.989
 6740WAT     H120462   2.916   5.060   7.933
 6740WAT     H220463   2.850   4.919   7.982
 6741WAT      O20464   3.980   2.112   8.499
 6741WAT     H120465   4.039   2.046   8.545
 6741WAT     H220466   4.036   2.176   8.447
 6742WAT      O20467   0.056   3.851   0.770
 6742WAT     H120468   0.017   3.879   0.682
 6742WAT     H220469   0.137   3.795   0.754
 6743WAT      O20470   2.602   1.092   4.151
 6743WAT     H120471   2.597   1.189   4.176
 6743WAT     H220472   2.679   1.050   4.199
 6744WAT      O20473   4.648   7.965   8.264
 6744WAT     H120474   4.579   7.912   8.313
 6744WAT     H220475   4.702   8.019   8.329
 6745WAT      O20476   4.433   6.603   4.180
 6745WAT     H120477   4.460   6.529   4.243
 6745WAT     H220478   4.514   6.652   4.150
 6746WAT      O20479   2.254   5.715   3.741
 6746WAT     H120480   2.202   5.738   3.823
 6746WAT     H220481   2.192   5.703   3.664
 6747WAT      O20482   1.494   9.716   6.037
 6747WAT     H120483   1.526   9.723   5.943
 6747WAT     H220484   1.469   9.807   6.070
 6748WAT      O20485   1.303   4.096   3.356
 6748WAT     H120486   1.360   4.091   3.274
 6748WAT     H220487   1.259   4.186   3.361
 6749WAT      O20488   1.151   8.150   7.148
 6749WAT     H120489   1.190   8.242   7.143
 6749WAT     H220490   1.224   8.082   7.135
 6750WAT      O20491   4.360   2.134   3.388
 6750WAT     H120492   4.455   2.121   3.361
 6750WAT     H220493   4.301   2.118   3.309
 6751WAT      O20494   1.875   1.189   8.845
 6751WAT     H120495   1.778   1.210   8.850
 6751WAT     H220496   1.924   1.265   8.803
 6752WAT      O20497   5.470   8.584   9.502
 6752WAT     H120498   5.399   8.653   9.516
 6752WAT     H220499   5.467   8.551   9.408
 6753WAT      O20500   5.781   6.097   9.038
 6753WAT     H120501   5.742   6.179   8.997
 6753WAT     H220502   5.784   6.023   8.970
 6754WAT      O20503   5.587   3.310   4.594
 6754WAT     H120504   5.665   3.264   4.552
 6754WAT     H220505   5.510   3.310   4.529
 6755WAT      O20506   5.643   2.860   7.634
 6755WAT     H120507   5.701   2.913   7.572
 6755WAT     H220508   5.641   2.765   7.605
 6756WAT      O20509   4.465   0.001   2.991
 6756WAT     H120510   4.366   0.017   2.990
 6756WAT     H220511   4.512   0.088   3.007
 6757WAT      O20512   2.286   0.975   2.878
 6757WAT     H120513   2.275   0.947   2.783
 6757WAT     H220514   2.376   0.947   2.911
 6758WAT      O20515   8.053   2.377   2.925
 6758WAT     H120516   8.054   2.477   2.916
 6758WAT     H220517   7.967   2.348   2.966
 6759WAT      O20518   3.549   4.822   9.253
 6759WAT     H120519   3.585   4.804   9.345
 6759WAT     H220520   3.449   4.821   9.256
 6760WAT      O20521   2.745   2.447   5.628
 6760WAT     H120522   2.672   2.381   5.647
 6760WAT     H220523   2.718   2.503   5.549
 6761WAT      O20524   6.573   1.057   3.610
 6761WAT     H120525   6.580   1.093   3.703
 6761WAT     H220526   6.612   1.124   3.546
 6762WAT      O20527   5.275   5.360   9.187
 6762WAT     H120528   5.339   5.286   9.165
 6762WAT     H220529   5.315   5.418   9.258
 6763WAT      O20530   0.258   1.312   2.755
 6763WAT     H120531   0.215   1.378   2.693
 6763WAT     H220532   0.225   1.328   2.848
 6764WAT      O20533   7.445   7.702   1.038
 6764WAT     H120534   7.410   7.787   1.078
 6764WAT     H220535   7.436   7.628   1.105
 6765WAT      O20536   0.542   4.781   8.682
 6765WAT     H120537   0.572   4.828   8.765
 6765WAT     H220538   0.455   4.735   8.699
 6766WAT      O20539   0.914   5.352   2.543
 6766WAT     H120540   0.925   5.451   2.554
 6766WAT     H220541   0.870   5.333   2.455
 6767WAT      O20542   7.199   0.956   2.591
 6767WAT     H120543   7.285   0.919   2.557
 6767WAT     H220544   7.162   0.896   2.662
 6768WAT      O20545   4.514   9.553   0.216
 6768WAT     H120546   4.461   9.514   0.291
 6768WAT     H220547   4.589   9.492   0.192
 6769WAT      O20548   5.549   4.687   2.358
 6769WAT     H120549   5.509   4.610   2.407
 6769WAT     H220550   5.571   4.760   2.423
 6770WAT      O20551   3.994   4.023   9.214
 6770WAT     H120552   3.972   4.119   9.232
 6770WAT     H220553   4.091   4.008   9.231
 6771WAT      O20554   0.897   6.530   0.165
 6771WAT     H120555   0.919   6.501   0.259
 6771WAT     H220556   0.916   6.456   0.102
 6772WAT      O20557   0.904   9.083   7.385
 6772WAT     H120558   0.806   9.077   7.364
 6772WAT     H220559   0.952   9.124   7.308
 6773WAT      O20560   9.056   9.456   3.516
 6773WAT     H120561   8.963   9.426   3.536
 6773WAT     H220562   9.058   9.502   3.427
 6774WAT      O20563   9.485   5.345   1.595
 6774WAT     H120564   9.463   5.388   1.508
 6774WAT     H220565   9.427   5.265   1.609
 6775WAT      O20566   7.776   4.150   8.645
 6775WAT     H120567   7.750   4.245   8.661
 6775WAT     H220568   7.801   4.107   8.732
 6776WAT      O20569   9.414   4.226   3.709
 6776WAT     H120570   9.492   4.252   3.653
 6776WAT     H220571   9.439   4.147   3.765
 6777WAT      O20572   7.186   5.980   4.768
 6777WAT     H120573   7.147   5.891   4.790
 6777WAT     H220574   7.214   5.982   4.673
 6778WAT      O20575   4.459   6.441   7.920
 6778WAT     H120576   4.504   6.465   8.007
 6778WAT     H220577   4.484   6.347   7.895
 6779WAT      O20578   7.922   9.679   8.244
 6779WAT     H120579   7.970   9.664   8.330
 6779WAT     H220580   7.986   9.712   8.175
 6780WAT      O20581   5.964   9.071   3.661
 6780WAT     H120582   5.898   9.012   3.708
 6780WAT     H220583   6.027   9.014   3.607
 6781WAT      O20584   4.166   7.030   2.468
 6781WAT     H120585   4.138   6.941   2.432
 6781WAT     H220586   4.142   7.102   2.403
 6782WAT      O20587   0.010   3.119   1.387
 6782WAT     H120588  -0.075   3.066   1.386
 6782WAT     H220589   0.052   3.118   1.297
 6783WAT      O20590   3.950   9.733   3.382
 6783WAT     H120591   3.881   9.763   3.448
 6783WAT     H220592   3.944   9.788   3.299
 6784WAT      O20593   8.604   1.156   6.196
 6784WAT     H120594   8.581   1.069   6.240
 6784WAT     H220595   8.535   1.179   6.128
 6785WAT      O20596   2.573   8.635   7.882
 6785WAT     H120597   2.546   8.722   7.843
 6785WAT     H220598   2.612   8.650   7.973
 6786WAT      O20599   4.673   8.579   4.431
 6786WAT     H120600   4.662   8.501   4.370
 6786WAT     H220601   4.744   8.640   4.394
 6787WAT      O20602   8.576   0.944   7.763
 6787WAT     H120603   8.508   0.921   7.693
 6787WAT     H220604   8.568   1.042   7.785
 6788WAT      O20605   3.058   0.384   6.018
 6788WAT     H120606   3.108   0.464   5.983
 6788WAT     H220607   3.122   0.323   6.065
 6789WAT      O20608   7.538   7.836   7.374
 6789WAT     H120609   7.534   7.880   7.463
 6789WAT     H220610   7.449   7.844   7.328
 6790WAT      O20611   2.310   3.233   1.045
 6790WAT     H120612   2.278   3.210   1.137
 6790WAT     H220613   2.298   3.332   1.030
 6791WAT      O20614   3.866   7.367   5.575
 6791WAT     H120615   3.867   7.430   5.497
 6791WAT     H220616   3.854   7.273   5.542
 6792WAT      O20617   5.369   3.511   0.360
 6792WAT     H120618   5.362   3.451   0.439
 6792WAT     H220619   5.459   3.500   0.317
 6793WAT      O20620   0.227   6.028   6.964
 6793WAT     H120621   0.186   6.007   7.053
 6793WAT     H220622   0.282   6.112   6.972
 6794WAT      O20623   5.239   7.297   7.319
 6794WAT     H120624   5.238   7.391   7.284
 6794WAT     H220625   5.218   7.297   7.417
 6795WAT      O20626   2.174   1.189   7.463
 6795WAT     H120627   2.115   1.261   7.499
 6795WAT     H220628   2.185   1.118   7.532
 6796WAT      O20629   1.919   6.559   8.673
 6796WAT     H120630   1.925   6.487   8.604
 6796WAT     H220631   1.919   6.519   8.764
 6797WAT      O20632   5.829   4.569   4.483
 6797WAT     H120633   5.888   4.508   4.430
 6797WAT     H220634   5.746   4.589   4.431
 6798WAT      O20635   5.971   2.850   3.650
 6798WAT     H120636   5.888   2.841   3.705
 6798WAT     H220637   5.997   2.947   3.645
 6799WAT      O20638   6.329   0.408   9.745
 6799WAT     H120639   6.398   0.439   9.681
 6799WAT     H220640   6.247   0.465   9.737
 6800WAT      O20641   0.143   1.607   0.206
 6800WAT     H120642   0.101   1.671   0.141
 6800WAT     H220643   0.238   1.591   0.180
 6801WAT      O20644   1.247   7.410   7.529
 6801WAT     H120645   1.325   7.372   7.480
 6801WAT     H220646   1.228   7.503   7.497
 6802WAT      O20647   3.815   1.702   6.933
 6802WAT     H120648   3.855   1.637   6.868
 6802WAT     H220649   3.715   1.699   6.925
 6803WAT      O20650   0.296   1.096   9.391
 6803WAT     H120651   0.322   1.150   9.310
 6803WAT     H220652   0.202   1.063   9.379
 6804WAT      O20653   7.792   7.503   0.552
 6804WAT     H120654   7.785   7.493   0.452
 6804WAT     H220655   7.703   7.486   0.593
 6805WAT      O20656   9.184   7.073   0.035
 6805WAT     H120657   9.124   6.998   0.007
 6805WAT     H220658   9.180   7.146  -0.032
 6806WAT      O20659   8.162   8.817   6.106
 6806WAT     H120660   8.142   8.769   6.191
 6806WAT     H220661   8.246   8.870   6.116
 6807WAT      O20662   7.842   1.846   1.746
 6807WAT     H120663   7.803   1.872   1.834
 6807WAT     H220664   7.874   1.928   1.698
 6808WAT      O20665   2.727   3.358   1.814
 6808WAT     H120666   2.666   3.391   1.887
 6808WAT     H220667   2.693   3.391   1.726
 6809WAT      O20668   5.622   3.499   1.332
 6809WAT     H120669   5.710   3.460   1.306
 6809WAT     H220670   5.593   3.460   1.419
 6810WAT      O20671   3.029   9.061   8.693
 6810WAT     H120672   3.022   8.993   8.766
 6810WAT     H220673   2.975   9.031   8.615
 6811WAT      O20674   0.872   3.602   8.053
 6811WAT     H120675   0.862   3.535   7.979
 6811WAT     H220676   0.967   3.631   8.059
 6812WAT      O20677   3.191   7.859   2.587
 6812WAT     H120678   3.252   7.904   2.652
 6812WAT     H220679   3.104   7.838   2.631
 6813WAT      O20680   0.245   2.154   9.817
 6813WAT     H120681   0.167   2.195   9.864
 6813WAT     H220682   0.291   2.090   9.878
 6814WAT      O20683   5.075   5.357   4.155
 6814WAT     H120684   5.133   5.309   4.089
 6814WAT     H220685   5.012   5.293   4.198
 6815WAT      O20686   7.721   3.864   9.192
 6815WAT     H120687   7.701   3.907   9.280
 6815WAT     H220688   7.671   3.911   9.119
 6816WAT      O20689   1.114   7.327   2.280
 6816WAT     H120690   1.154   7.356   2.193
 6816WAT     H220691   1.186   7.288   2.338
 6817WAT      O20692   3.904   3.706   9.653
 6817WAT     H120693   3.859   3.761   9.723
 6817WAT     H220694   3.857   3.720   9.565
 6818WAT      O20695   9.613   6.486   2.282
 6818WAT     H120696   9.667   6.513   2.202
 6818WAT     H220697   9.602   6.564   2.343
 6819WAT      O20698   5.865   6.808   7.191
 6819WAT     H120699   5.930   6.830   7.264
 6819WAT     H220700   5.902   6.734   7.134
 6820WAT      O20701   7.728   0.157   8.464
 6820WAT     H120702   7.735   0.242   8.412
 6820WAT     H220703   7.650   0.163   8.527
 6821WAT      O20704   1.950   3.889   2.936
 6821WAT     H120705   2.033   3.899   2.991
 6821WAT     H220706   1.891   3.969   2.949
 6822WAT      O20707   2.191   6.725   1.740
 6822WAT     H120708   2.166   6.682   1.827
 6822WAT     H220709   2.289   6.717   1.726
 6823WAT      O20710   8.600   6.580   9.875
 6823WAT     H120711   8.547   6.512   9.824
 6823WAT     H220712   8.572   6.580   9.971
 6824WAT      O20713   9.294   4.762   3.991
 6824WAT     H120714   9.350   4.687   4.026
 6824WAT     H220715   9.335   4.798   3.907
 6825WAT      O20716   6.197   2.471   0.258
 6825WAT     H120717   6.263   2.396   0.263
 6825WAT     H220718   6.232   2.550   0.309
 6826WAT      O20719   5.536   5.226   8.658
 6826WAT     H120720   5.586   5.246   8.574
 6826WAT     H220721   5.485   5.141   8.648
 6827WAT      O20722   6.432   6.696   4.207
 6827WAT     H120723   6.437   6.788   4.246
 6827WAT     H220724   6.505   6.683   4.141
 6828WAT      O20725   3.587   1.933   4.655
 6828WAT     H120726   3.602   2.030   4.674
 6828WAT     H220727   3.593   1.882   4.740
 6829WAT      O20728   8.931   0.687   4.399
 6829WAT     H120729   8.894   0.629   4.471
 6829WAT     H220730   8.923   0.640   4.311
 6830WAT      O20731   2.732   9.794   7.240
 6830WAT     H120732   2.640   9.822   7.213
 6830WAT     H220733   2.731   9.697   7.266
 6831WAT      O20734   8.133   7.588   1.347
 6831WAT     H120735   8.137   7.642   1.431
 6831WAT     H220736   8.162   7.494   1.366
 6832WAT      O20737   6.176   1.877   2.197
 6832WAT     H120738   6.156   1.839   2.287
 6832WAT     H220739   6.195   1.803   2.132
 6833WAT      O20740   7.080   8.752   9.432
 6833WAT     H120741   7.163   8.734   9.379
 6833WAT     H220742   7.067   8.851   9.443
 6834WAT      O20743   5.469   9.339   9.323
 6834WAT     H120744   5.452   9.269   9.392
 6834WAT     H220745   5.535   9.305   9.256
 6835WAT      O20746   7.354   6.519   7.363
 6835WAT     H120747   7.265   6.480   7.338
 6835WAT     H220748   7.375   6.496   7.458
 6836WAT      O20749   9.156   5.131   9.266
 6836WAT     H120750   9.057   5.124   9.254
 6836WAT     H220751   9.191   5.051   9.314
 6837WAT      O20752   0.429   9.561   7.643
 6837WAT     H120753   0.390   9.584   7.732
 6837WAT     H220754   0.487   9.636   7.612
 6838WAT      O20755   7.780   3.864   0.247
 6838WAT     H120756   7.869   3.908   0.246
 6838WAT     H220757   7.787   3.774   0.290
 6839WAT      O20758   4.124   1.719   3.353
 6839WAT     H120759   4.086   1.791   3.296
 6839WAT     H220760   4.086   1.631   3.325
 6840WAT      O20761   4.676   1.079   3.896
 6840WAT     H120762   4.620   1.155   3.929
 6840WAT     H220763   4.772   1.107   3.894
 6841WAT      O20764   5.369   0.568   2.035
 6841WAT     H120765   5.359   0.666   2.053
 6841WAT     H220766   5.297   0.518   2.083
 6842WAT      O20767   2.277   4.096   1.977
 6842WAT     H120768   2.336   4.119   1.900
 6842WAT     H220769   2.318   4.022   2.030
 6843WAT      O20770   3.664   5.367   3.085
 6843WAT     H120771   3.718   5.450   3.080
 6843WAT     H220772   3.598   5.374   3.161
 6844WAT      O20773   0.434   4.343   7.033
 6844WAT     H120774   0.374   4.286   6.976
 6844WAT     H220775   0.446   4.300   7.122
 6845WAT      O20776   3.076   7.121   9.739
 6845WAT     H120777   3.120   7.110   9.650
 6845WAT     H220778   3.081   7.035   9.789
 6846WAT      O20779   7.505   7.297   1.691
 6846WAT     H120780   7.489   7.396   1.692
 6846WAT     H220781   7.587   7.277   1.637
 6847WAT      O20782   3.351   3.167   9.866
 6847WAT     H120783   3.323   3.224   9.788
 6847WAT     H220784   3.450   3.167   9.874
 6848WAT      O20785   3.094   8.844   1.633
 6848WAT     H120786   3.168   8.846   1.700
 6848WAT     H220787   3.132   8.851   1.541
 6849WAT      O20788   0.706   7.413   4.475
 6849WAT     H120789   0.662   7.357   4.405
 6849WAT     H220790   0.754   7.354   4.540
 6850WAT      O20791   4.519   1.248   2.997
 6850WAT     H120792   4.459   1.325   3.019
 6850WAT     H220793   4.497   1.170   3.056
 6851WAT      O20794   8.980   7.811   5.480
 6851WAT     H120795   9.016   7.900   5.509
 6851WAT     H220796   9.052   7.759   5.433
 6852WAT      O20797   2.394   8.066   9.588
 6852WAT     H120798   2.458   8.075   9.664
 6852WAT     H220799   2.340   8.150   9.579
 6853WAT      O20800   0.230   7.962   7.899
 6853WAT     H120801   0.255   8.040   7.843
 6853WAT     H220802   0.261   7.976   7.993
 6854WAT      O20803   0.603   7.358   7.176
 6854WAT     H120804   0.693   7.315   7.170
 6854WAT     H220805   0.603   7.443   7.124
 6855WAT      O20806   0.215   0.990   4.897
 6855WAT     H120807   0.201   1.085   4.925
 6855WAT     H220808   0.200   0.982   4.799
 6856WAT      O20809   9.268   6.940   3.474
 6856WAT     H120810   9.213   6.978   3.399
 6856WAT     H220811   9.350   6.996   3.487
 6857WAT      O20812   3.158   7.638   8.559
 6857WAT     H120813   3.197   7.546   8.552
 6857WAT     H220814   3.075   7.643   8.504
 6858WAT      O20815   4.678   4.140   2.974
 6858WAT     H120816   4.686   4.198   2.893
 6858WAT     H220817   4.745   4.066   2.969
 6859WAT      O20818   6.149   6.441   6.358
 6859WAT     H120819   6.179   6.372   6.424
 6859WAT     H220820   6.125   6.397   6.272
 6860WAT      O20821   9.163   6.475   1.703
 6860WAT     H120822   9.159   6.390   1.755
 6860WAT     H220823   9.139   6.552   1.762
 6861WAT      O20824   0.079   4.609   3.055
 6861WAT     H120825   0.091   4.688   3.114
 6861WAT     H220826   0.030   4.637   2.972
 6862WAT      O20827   2.775   5.559   8.736
 6862WAT     H120828   2.796   5.650   8.699
 6862WAT     H220829   2.790   5.559   8.834
 6863WAT      O20830   5.805   4.891   3.685
 6863WAT     H120831   5.894   4.937   3.692
 6863WAT     H220832   5.777   4.887   3.589
 6864WAT      O20833   1.674   0.614   7.165
 6864WAT     H120834   1.637   0.643   7.253
 6864WAT     H220835   1.605   0.626   7.094
 6865WAT      O20836   6.395   0.421   6.182
 6865WAT     H120837   6.403   0.513   6.221
 6865WAT     H220838   6.320   0.372   6.228
 6866WAT      O20839   7.792   3.306   0.052
 6866WAT     H120840   7.728   3.382   0.066
 6866WAT     H220841   7.844   3.291   0.137
 6867WAT      O20842   5.994   7.266   7.217
 6867WAT     H120843   5.993   7.265   7.117
 6867WAT     H220844   6.073   7.318   7.249
 6868WAT      O20845   0.396   2.846   0.427
 6868WAT     H120846   0.480   2.802   0.397
 6868WAT     H220847   0.404   2.874   0.522
 6869WAT      O20848   4.237   0.216   7.291
 6869WAT     H120849   4.220   0.160   7.373
 6869WAT     H220850   4.326   0.261   7.300
 6870WAT      O20851   6.998   5.127   9.696
 6870WAT     H120852   6.977   5.092   9.604
 6870WAT     H220853   6.967   5.061   9.764
 6871WAT      O20854   9.030   8.952   1.135
 6871WAT     H120855   8.995   9.046   1.138
 6871WAT     H220856   9.011   8.912   1.046
 6872WAT      O20857   5.952   2.137   7.599
 6872WAT     H120858   5.992   2.067   7.540
 6872WAT     H220859   5.853   2.142   7.583
 6873WAT      O20860   1.632   7.122   1.852
 6873WAT     H120861   1.698   7.087   1.918
 6873WAT     H220862   1.680   7.148   1.768
 6874WAT      O20863   4.524   7.626   3.238
 6874WAT     H120864   4.507   7.724   3.226
 6874WAT     H220865   4.569   7.590   3.156
 6875WAT      O20866   6.830   1.637   4.203
 6875WAT     H120867   6.765   1.699   4.248
 6875WAT     H220868   6.780   1.565   4.155
 6876WAT      O20869   5.129   0.850   4.078
 6876WAT     H120870   5.142   0.780   4.148
 6876WAT     H220871   5.182   0.931   4.102
 6877WAT      O20872   3.603   2.318   4.308
 6877WAT     H120873   3.636   2.390   4.368
 6877WAT     H220874   3.598   2.352   4.214
 6878WAT      O20875   4.218   3.446   3.312
 6878WAT     H120876   4.312   3.427   3.284
 6878WAT     H220877   4.219   3.514   3.386
 6879WAT      O20878   5.010   1.710   2.687
 6879WAT     H120879   5.002   1.648   2.609
 6879WAT     H220880   5.041   1.660   2.767
 6880WAT      O20881   4.739   8.227   0.336
 6880WAT     H120882   4.820   8.221   0.278
 6880WAT     H220883   4.658   8.242   0.280
 6881WAT      O20884   0.027   8.319   0.499
 6881WAT     H120885   0.102   8.252   0.495
 6881WAT     H220886   0.049   8.397   0.440
 6882WAT      O20887   5.862   3.958   4.278
 6882WAT     H120888   5.776   3.990   4.317
 6882WAT     H220889   5.905   3.893   4.340
 6883WAT      O20890   7.565   7.627   5.053
 6883WAT     H120891   7.471   7.635   5.020
 6883WAT     H220892   7.586   7.702   5.115
 6884WAT      O20893   2.279   3.898   4.578
 6884WAT     H120894   2.348   3.841   4.623
 6884WAT     H220895   2.240   3.847   4.501
 6885WAT      O20896   9.401   6.170   3.563
 6885WAT     H120897   9.353   6.255   3.586
 6885WAT     H220898   9.424   6.121   3.647
 6886WAT      O20899   5.299   3.859   0.913
 6886WAT     H120900   5.312   3.779   0.854
 6886WAT     H220901   5.368   3.928   0.893
 6887WAT      O20902   7.778   1.285   7.556
 6887WAT     H120903   7.844   1.321   7.491
 6887WAT     H220904   7.710   1.231   7.507
 6888WAT      O20905   3.396   8.674   3.974
 6888WAT     H120906   3.415   8.706   4.067
 6888WAT     H220907   3.303   8.637   3.971
 6889WAT      O20908   2.670   2.626   8.393
 6889WAT     H120909   2.605   2.589   8.327
 6889WAT     H220910   2.635   2.612   8.485
 6890WAT      O20911   1.401   3.410   0.369
 6890WAT     H120912   1.433   3.450   0.455
 6890WAT     H220913   1.335   3.472   0.327
 6891WAT      O20914   3.691   2.414   9.136
 6891WAT     H120915   3.719   2.509   9.122
 6891WAT     H220916   3.655   2.403   9.228
 6892WAT      O20917   5.144   4.602   9.815
 6892WAT     H120918   5.061   4.575   9.864
 6892WAT     H220919   5.119   4.653   9.733
 6893WAT      O20920   7.117   5.201   1.268
 6893WAT     H120921   7.199   5.147   1.254
 6893WAT     H220922   7.036   5.141   1.261
 6894WAT      O20923   4.860   6.498   2.815
 6894WAT     H120924   4.849   6.490   2.914
 6894WAT     H220925   4.948   6.543   2.796
 6895WAT      O20926   5.737   6.645   4.618
 6895WAT     H120927   5.701   6.586   4.690
 6895WAT     H220928   5.807   6.595   4.566
 6896WAT      O20929   0.203   2.882   9.116
 6896WAT     H120930   0.232   2.832   9.034
 6896WAT     H220931   0.176   2.975   9.091
 6897WAT      O20932   0.332   3.113   7.308
 6897WAT     H120933   0.359   3.170   7.231
 6897WAT     H220934   0.412   3.067   7.345
 6898WAT      O20935   6.649   9.831   4.618
 6898WAT     H120936   6.551   9.848   4.609
 6898WAT     H220937   6.699   9.892   4.556
 6899WAT      O20938   1.325   1.127   1.992
 6899WAT     H120939   1.324   1.225   2.007
 6899WAT     H220940   1.307   1.107   1.895
 6900WAT      O20941   1.276   8.280   3.027
 6900WAT     H120942   1.271   8.219   3.105
 6900WAT     H220943   1.361   8.263   2.977
 6901WAT      O20944   7.096   7.413   2.889
 6901WAT     H120945   6.998   7.427   2.872
 6901WAT     H220946   7.129   7.486   2.949
 6902WAT      O20947   4.251   7.063   6.790
 6902WAT     H120948   4.339   7.050   6.743
 6902WAT     H220949   4.246   7.156   6.825
 6903WAT      O20950   6.046   2.264   1.496
 6903WAT     H120951   6.136   2.252   1.454
 6903WAT     H220952   6.023   2.362   1.498
 6904WAT      O20953   0.021   9.194   4.767
 6904WAT     H120954   0.066   9.173   4.680
 6904WAT     H220955  -0.020   9.285   4.763
 6905WAT      O20956   3.709   4.005   2.057
 6905WAT     H120957   3.808   4.016   2.048
 6905WAT     H220958   3.663   4.046   1.978
 6906WAT      O20959   2.807   8.638   9.531
 6906WAT     H120960   2.879   8.659   9.598
 6906WAT     H220961   2.825   8.689   9.447
 6907WAT      O20962   3.550   4.193   0.608
 6907WAT     H120963   3.584   4.231   0.522
 6907WAT     H220964   3.487   4.117   0.588
 6908WAT      O20965   7.931   4.766   2.171
 6908WAT     H120966   7.888   4.693   2.119
 6908WAT     H220967   7.861   4.832   2.200
 6909WAT      O20968   5.513   8.613   0.239
 6909WAT     H120969   5.462   8.632   0.155
 6909WAT     H220970   5.507   8.515   0.260
 6910WAT      O20971   9.880   9.806   5.150
 6910WAT     H120972   9.824   9.798   5.233
 6910WAT     H220973   9.865   9.896   5.108
 6911WAT      O20974   9.573   2.699   6.547
 6911WAT     H120975   9.583   2.713   6.645
 6911WAT     H220976   9.663   2.707   6.503
 6912WAT      O20977   6.820   8.459   6.384
 6912WAT     H120978   6.768   8.519   6.445
 6912WAT     H220979   6.878   8.399   6.438
 6913WAT      O20980   6.657   4.358   8.886
 6913WAT     H120981   6.586   4.416   8.924
 6913WAT     H220982   6.721   4.331   8.958
 6914WAT      O20983   4.869   2.438   5.535
 6914WAT     H120984   4.817   2.353   5.532
 6914WAT     H220985   4.834   2.500   5.464
 6915WAT      O20986   4.859   3.631   7.080
 6915WAT     H120987   4.907   3.543   7.080
 6915WAT     H220988   4.763   3.616   7.106
 6916WAT      O20989   0.277   0.721   6.936
 6916WAT     H120990   0.292   0.643   6.876
 6916WAT     H220991   0.237   0.796   6.882
 6917WAT      O20992   8.530   3.137   0.324
 6917WAT     H120993   8.571   3.141   0.415
 6917WAT     H220994   8.453   3.073   0.324
 6918WAT      O20995   3.587   8.077   0.982
 6918WAT     H120996   3.491   8.092   1.004
 6918WAT     H220997   3.633   8.165   0.970
 6919WAT      O20998   8.961   0.240   2.745
 6919WAT     H120999   8.897   0.164   2.749
 6919WAT     H221000   8.952   0.296   2.828
 6920WAT      O21001   1.592   8.834   2.757
 6920WAT     H121002   1.645   8.900   2.703
 6920WAT     H221003   1.643   8.810   2.839
 6921WAT      O21004   4.445   5.084   8.178
 6921WAT     H121005   4.356   5.045   8.202
 6921WAT     H221006   4.492   5.023   8.114
 6922WAT      O21007   3.889   8.308   3.218
 6922WAT     H121008   3.811   8.303   3.155
 6922WAT     H221009   3.969   8.265   3.176
 6923WAT      O21010   0.163   7.836   8.740
 6923WAT     H121011   0.105   7.873   8.812
 6923WAT     H221012   0.192   7.743   8.765
 6924WAT      O21013   8.979   9.107   9.530
 6924WAT     H121014   8.959   9.031   9.592
 6924WAT     H221015   8.912   9.109   9.456
 6925WAT      O21016   5.633   7.742   5.146
 6925WAT     H121017   5.630   7.751   5.245
 6925WAT     H221018   5.553   7.788   5.106
 6926WAT      O21019   1.325   1.428   4.795
 6926WAT     H121020   1.359   1.398   4.706
 6926WAT     H221021   1.396   1.480   4.842
 6927WAT      O21022   4.157   7.389   3.805
 6927WAT     H121023   4.207   7.303   3.796
 6927WAT     H221024   4.060   7.373   3.791
 6928WAT      O21025   8.744   9.756   4.819
 6928WAT     H121026   8.803   9.826   4.856
 6928WAT     H221027   8.700   9.706   4.893
 6929WAT      O21028   7.430   6.072   8.001
 6929WAT     H121029   7.344   6.083   7.952
 6929WAT     H221030   7.493   6.017   7.946
 6930WAT      O21031   8.282   0.636   2.642
 6930WAT     H121032   8.223   0.717   2.635
 6930WAT     H221033   8.278   0.600   2.736
 6931WAT      O21034   7.226   7.877   4.006
 6931WAT     H121035   7.246   7.784   4.036
 6931WAT     H221036   7.297   7.907   3.942
 6932WAT      O21037   8.034   6.454   3.324
 6932WAT     H121038   7.952   6.502   3.290
 6932WAT     H221039   8.031   6.359   3.296
 6933WAT      O21040   5.258   5.269   5.958
 6933WAT     H121041   5.308   5.192   5.918
 6933WAT     H221042   5.189   5.301   5.893
 6934WAT      O21043   1.561   7.548   8.182
 6934WAT     H121044   1.539   7.555   8.279
 6934WAT     H221045   1.660   7.558   8.170
 6935WAT      O21046   9.439   8.308   6.391
 6935WAT     H121047   9.396   8.398   6.383
 6935WAT     H221048   9.396   8.257   6.465
 6936WAT      O21049   6.333   1.099   3.913
 6936WAT     H121050   6.284   1.022   3.954
 6936WAT     H221051   6.396   1.138   3.981
 6937WAT      O21052   6.004   3.743   0.293
 6937WAT     H121053   6.028   3.773   0.386
 6937WAT     H221054   5.950   3.814   0.248
 6938WAT      O21055   8.183   5.548   4.002
 6938WAT     H121056   8.227   5.581   4.085
 6938WAT     H221057   8.239   5.573   3.923
 6939WAT      O21058   1.227   6.315   7.456
 6939WAT     H121059   1.261   6.223   7.436
 6939WAT     H221060   1.291   6.383   7.421
 6940WAT      O21061   7.769   1.005   9.177
 6940WAT     H121062   7.846   1.067   9.194
 6940WAT     H221063   7.703   1.050   9.117
 6941WAT      O21064   0.221   8.480   7.168
 6941WAT     H121065   0.172   8.567   7.160
 6941WAT     H221066   0.272   8.463   7.083
 6942WAT      O21067   1.016   1.143   7.093
 6942WAT     H121068   0.991   1.088   7.013
 6942WAT     H221069   1.115   1.160   7.092
 6943WAT      O21070   3.672   5.124   1.234
 6943WAT     H121071   3.688   5.192   1.162
 6943WAT     H221072   3.666   5.033   1.193
 6944WAT      O21073   9.504   7.045   9.162
 6944WAT     H121074   9.569   7.101   9.214
 6944WAT     H221075   9.533   6.949   9.165
 6945WAT      O21076   0.390   5.997   0.979
 6945WAT     H121077   0.388   5.899   0.999
 6945WAT     H221078   0.459   6.015   0.909
 6946WAT      O21079   7.372   6.247   5.024
 6946WAT     H121080   7.462   6.214   5.054
 6946WAT     H221081   7.377   6.345   5.005
 6947WAT      O21082   0.319   7.392   2.389
 6947WAT     H121083   0.336   7.330   2.313
 6947WAT     H221084   0.402   7.444   2.408
 6948WAT      O21085   6.448   5.739   1.984
 6948WAT     H121086   6.483   5.822   1.940
 6948WAT     H221087   6.429   5.670   1.915
 6949WAT      O21088   4.650   1.611   4.436
 6949WAT     H121089   4.639   1.619   4.536
 6949WAT     H221090   4.648   1.702   4.395
 6950WAT      O21091   6.767   0.614   0.859
 6950WAT     H121092   6.849   0.663   0.831
 6950WAT     H221093   6.688   0.675   0.854
 6951WAT      O21094   5.262   5.375   6.602
 6951WAT     H121095   5.234   5.416   6.689
 6951WAT     H221096   5.315   5.293   6.619
 6952WAT      O21097   6.137   3.800   9.066
 6952WAT     H121098   6.040   3.826   9.074
 6952WAT     H221099   6.191   3.851   9.133
 6953WAT      O21100   1.764   1.753   0.203
 6953WAT     H121101   1.746   1.765   0.301
 6953WAT     H221102   1.725   1.666   0.172
 6954WAT      O21103   8.407   1.837   1.874
 6954WAT     H121104   8.339   1.794   1.933
 6954WAT     H221105   8.405   1.936   1.887
 6955WAT      O21106   1.997   2.193   1.864
 6955WAT     H121107   2.007   2.161   1.769
 6955WAT     H221108   1.986   2.292   1.864
 6956WAT      O21109   4.790   4.655   1.546
 6956WAT     H121110   4.788   4.733   1.483
 6956WAT     H221111   4.866   4.666   1.610
 6957WAT      O21112   5.644   4.506   0.957
 6957WAT     H121113   5.614   4.418   0.994
 6957WAT     H221114   5.675   4.564   1.032
 6958WAT      O21115   7.616   5.735   7.362
 6958WAT     H121116   7.544   5.674   7.393
 6958WAT     H221117   7.665   5.774   7.440
 6959WAT      O21118   2.814   7.659   5.745
 6959WAT     H121119   2.763   7.634   5.828
 6959WAT     H221120   2.912   7.655   5.763
 6960WAT      O21121   8.289   8.637   4.901
 6960WAT     H121122   8.308   8.628   4.999
 6960WAT     H221123   8.254   8.550   4.866
 6961WAT      O21124   5.298   5.984   5.911
 6961WAT     H121125   5.276   6.034   5.995
 6961WAT     H221126   5.296   5.885   5.930
 6962WAT      O21127   8.287   0.014   6.571
 6962WAT     H121128   8.347   0.090   6.595
 6962WAT     H221129   8.301  -0.010   6.475
 6963WAT      O21130   1.929   7.337   3.127
 6963WAT     H121131   1.947   7.257   3.184
 6963WAT     H221132   1.970   7.324   3.037
 6964WAT      O21133   1.559   8.242   5.203
 6964WAT     H121134   1.485   8.247   5.136
 6964WAT     H221135   1.633   8.185   5.167
 6965WAT      O21136   0.139   3.597   7.947
 6965WAT     H121137   0.091   3.515   7.979
 6965WAT     H221138   0.152   3.660   8.024
 6966WAT      O21139   3.600   7.000   1.019
 6966WAT     H121140   3.656   6.931   0.974
 6966WAT     H221141   3.560   6.961   1.102
 6967WAT      O21142   5.790   6.993   5.109
 6967WAT     H121143   5.843   6.908   5.099
 6967WAT     H221144   5.698   6.978   5.072
 6968WAT      O21145   6.899   0.573   5.436
 6968WAT     H121146   6.865   0.609   5.349
 6968WAT     H221147   6.877   0.476   5.442
 6969WAT      O21148   3.896   4.220   2.703
 6969WAT     H121149   3.883   4.307   2.656
 6969WAT     H221150   3.970   4.229   2.770
 6970WAT      O21151   8.037   0.154   6.239
 6970WAT     H121152   8.090   0.071   6.226
 6970WAT     H221153   7.965   0.160   6.170
 6971WAT      O21154   1.111   5.710   4.259
 6971WAT     H121155   1.194   5.766   4.267
 6971WAT     H221156   1.071   5.698   4.350
 6972WAT      O21157   2.755   4.159   8.288
 6972WAT     H121158   2.739   4.193   8.381
 6972WAT     H221159   2.819   4.219   8.240
 6973WAT      O21160   1.709   4.037   4.807
 6973WAT     H121161   1.808   4.045   4.807
 6973WAT     H221162   1.667   4.125   4.784
 6974WAT      O21163   2.604   3.535   1.610
 6974WAT     H121164   2.640   3.597   1.679
 6974WAT     H221165   2.622   3.573   1.519
 6975WAT      O21166   4.827   4.338   0.724
 6975WAT     H121167   4.892   4.357   0.651
 6975WAT     H221168   4.860   4.379   0.809
 6976WAT      O21169   3.995   0.258   6.386
 6976WAT     H121170   3.931   0.198   6.434
 6976WAT     H221171   3.996   0.234   6.289
 6977WAT      O21172   5.138   8.979   3.200
 6977WAT     H121173   5.120   9.071   3.166
 6977WAT     H221174   5.095   8.967   3.289
 6978WAT      O21175   2.895   9.043   0.897
 6978WAT     H121176   2.960   9.084   0.832
 6978WAT     H221177   2.801   9.062   0.866
 6979WAT      O21178   2.214   6.954   0.290
 6979WAT     H121179   2.171   7.023   0.348
 6979WAT     H221180   2.209   6.865   0.335
 6980WAT      O21181   9.324   5.450   2.468
 6980WAT     H121182   9.241   5.427   2.519
 6980WAT     H221183   9.365   5.367   2.431
 6981WAT      O21184   4.033   3.338   0.563
 6981WAT     H121185   4.062   3.244   0.583
 6981WAT     H221186   4.048   3.395   0.644
 6982WAT      O21187   5.257   9.649   1.242
 6982WAT     H121188   5.229   9.726   1.185
 6982WAT     H221189   5.176   9.600   1.276
 6983WAT      O21190   4.604   1.147   2.458
 6983WAT     H121191   4.599   1.118   2.362
 6983WAT     H221192   4.526   1.208   2.478
 6984WAT      O21193   6.014   8.454   0.523
 6984WAT     H121194   5.951   8.410   0.587
 6984WAT     H221195   6.106   8.456   0.563
 6985WAT      O21196   8.660   3.872   3.691
 6985WAT     H121197   8.644   3.853   3.788
 6985WAT     H221198   8.755   3.851   3.668
 6986WAT      O21199   8.780   7.289   6.755
 6986WAT     H121200   8.850   7.331   6.811
 6986WAT     H221201   8.822   7.220   6.695
 6987WAT      O21202   9.181   0.321   7.376
 6987WAT     H121203   9.129   0.236   7.369
 6987WAT     H221204   9.124   0.392   7.417
 6988WAT      O21205   6.290   5.918   9.889
 6988WAT     H121206   6.317   5.999   9.836
 6988WAT     H221207   6.365   5.851   9.888
 6989WAT      O21208   5.793   6.385   3.697
 6989WAT     H121209   5.773   6.289   3.677
 6989WAT     H221210   5.877   6.392   3.751
 6990WAT      O21211   6.436   9.151   5.290
 6990WAT     H121212   6.435   9.198   5.202
 6990WAT     H221213   6.486   9.065   5.282
 6991WAT      O21214   7.687   1.509   8.471
 6991WAT     H121215   7.629   1.586   8.445
 6991WAT     H221216   7.682   1.495   8.570
 6992WAT      O21217   3.906   9.451   9.387
 6992WAT     H121218   3.941   9.502   9.465
 6992WAT     H221219   3.811   9.425   9.404
 6993WAT      O21220   6.650   1.557   0.608
 6993WAT     H121221   6.720   1.536   0.541
 6993WAT     H221222   6.600   1.474   0.632
 6994WAT      O21223   6.183   4.871   0.925
 6994WAT     H121224   6.240   4.807   0.977
 6994WAT     H221225   6.154   4.827   0.840
 6995WAT      O21226   8.769   1.099   1.201
 6995WAT     H121227   8.671   1.090   1.187
 6995WAT     H221228   8.795   1.195   1.190
 6996WAT      O21229   7.261   9.756   9.342
 6996WAT     H121230   7.203   9.724   9.267
 6996WAT     H221231   7.250   9.696   9.420
 6997WAT      O21232   9.181   4.800   9.077
 6997WAT     H121233   9.118   4.857   9.129
 6997WAT     H221234   9.130   4.727   9.032
 6998WAT      O21235   1.355   2.986   1.937
 6998WAT     H121236   1.402   2.955   1.854
 6998WAT     H221237   1.268   3.027   1.912
 6999WAT      O21238   8.681   5.148   7.733
 6999WAT     H121239   8.715   5.115   7.821
 6999WAT     H221240   8.700   5.246   7.725
 7000WAT      O21241   5.684   7.773   5.403
 7000WAT     H121242   5.703   7.869   5.426
 7000WAT     H221243   5.760   7.716   5.434
 7001WAT      O21244   2.636   8.644   8.156
 7001WAT     H121245   2.724   8.692   8.150
 7001WAT     H221246   2.643   8.570   8.223
 7002WAT      O21247   0.594   3.366   7.600
 7002WAT     H121248   0.584   3.432   7.675
 7002WAT     H221249   0.674   3.308   7.616
 7003WAT      O21250   5.222   1.412   2.530
 7003WAT     H121251   5.133   1.457   2.523
 7003WAT     H221252   5.242   1.362   2.446
 7004WAT      O21253   4.813   6.946   6.430
 7004WAT     H121254   4.817   6.866   6.490
 7004WAT     H221255   4.725   6.948   6.383
 7005WAT      O21256   1.979   5.026   4.838
 7005WAT     H121257   1.983   5.109   4.784
 7005WAT     H221258   1.908   5.035   4.908
 7006WAT      O21259   9.546   6.293   0.833
 7006WAT     H121260   9.458   6.273   0.790
 7006WAT     H221261   9.618   6.241   0.786
 7007WAT      O21262   6.616   4.544   6.415
 7007WAT     H121263   6.664   4.512   6.497
 7007WAT     H221264   6.560   4.469   6.378
 7008WAT      O21265   2.643   8.631   6.909
 7008WAT     H121266   2.584   8.696   6.860
 7008WAT     H221267   2.688   8.570   6.843
 7009WAT      O21268   0.574   5.177   8.152
 7009WAT     H121269   0.602   5.082   8.145
 7009WAT     H221270   0.485   5.189   8.107
 7010WAT      O21271   3.582   6.262   8.671
 7010WAT     H121272   3.558   6.239   8.766
 7010WAT     H221273   3.677   6.237   8.654
 7011WAT      O21274   7.531   9.647   9.877
 7011WAT     H121275   7.491   9.557   9.862
 7011WAT     H221276   7.482   9.694   9.950
 7012WAT      O21277   0.562   8.825   2.520
 7012WAT     H121278   0.541   8.864   2.431
 7012WAT     H221279   0.504   8.745   2.536
 7013WAT      O21280   9.155   8.140   9.845
 7013WAT     H121281   9.118   8.169   9.757
 7013WAT     H221282   9.157   8.218   9.908
 7014WAT      O21283   8.620   7.352   8.819
 7014WAT     H121284   8.657   7.345   8.911
 7014WAT     H221285   8.599   7.448   8.799
 7015WAT      O21286   5.145   8.635   1.882
 7015WAT     H121287   5.218   8.573   1.913
 7015WAT     H221288   5.165   8.665   1.788
 7016WAT      O21289   5.649   9.731   6.649
 7016WAT     H121290   5.611   9.677   6.724
 7016WAT     H221291   5.745   9.750   6.667
 7017WAT      O21292   0.126   9.069   1.798
 7017WAT     H121293   0.176   9.113   1.724
 7017WAT     H221294   0.088   9.140   1.859
 7018WAT      O21295   4.421   7.761   7.733
 7018WAT     H121296   4.490   7.824   7.697
 7018WAT     H221297   4.349   7.747   7.666
 7019WAT      O21298   2.098   0.867   2.089
 7019WAT     H121299   2.057   0.867   1.998
 7019WAT     H221300   2.136   0.776   2.107
 7020WAT      O21301   5.867   3.367   8.090
 7020WAT     H121302   5.903   3.337   8.002
 7020WAT     H221303   5.784   3.420   8.075
 7021WAT      O21304   3.455   8.814   9.479
 7021WAT     H121305   3.368   8.823   9.527
 7021WAT     H221306   3.450   8.738   9.415
 7022WAT      O21307   4.566   1.680   9.746
 7022WAT     H121308   4.662   1.706   9.735
 7022WAT     H221309   4.561   1.583   9.773
 7023WAT      O21310   7.756   8.806   9.752
 7023WAT     H121311   7.716   8.886   9.796
 7023WAT     H221312   7.773   8.826   9.656
 7024WAT      O21313   8.601   2.134   2.230
 7024WAT     H121314   8.619   2.181   2.143
 7024WAT     H221315   8.641   2.042   2.227
 7025WAT      O21316   1.240   4.057   2.201
 7025WAT     H121317   1.328   4.104   2.199
 7025WAT     H221318   1.201   4.061   2.292
 7026WAT      O21319   3.571   2.537   1.851
 7026WAT     H121320   3.660   2.569   1.884
 7026WAT     H221321   3.502   2.550   1.922
 7027WAT      O21322   4.487   3.398   0.466
 7027WAT     H121323   4.556   3.455   0.422
 7027WAT     H221324   4.531   3.333   0.528
 7028WAT      O21325   7.733   8.660   9.311
 7028WAT     H121326   7.780   8.709   9.384
 7028WAT     H221327   7.797   8.640   9.237
 7029WAT      O21328   0.454   9.012   9.530
 7029WAT     H121329   0.525   9.059   9.477
 7029WAT     H221330   0.372   9.001   9.473
 7030WAT      O21331   7.079   8.954   0.152
 7030WAT     H121332   7.123   8.906   0.076
 7030WAT     H221333   7.121   9.044   0.164
 7031WAT      O21334   6.504   1.404   9.741
 7031WAT     H121335   6.426   1.359   9.784
 7031WAT     H221336   6.566   1.439   9.812
 7032WAT      O21337   7.608   4.226   3.247
 7032WAT     H121338   7.544   4.303   3.251
 7032WAT     H221339   7.696   4.258   3.212
 7033WAT      O21340   3.477   9.842   8.048
 7033WAT     H121341   3.548   9.806   7.987
 7033WAT     H221342   3.432   9.767   8.095
 7034WAT      O21343   5.601   0.987   4.659
 7034WAT     H121344   5.677   1.017   4.716
 7034WAT     H221345   5.517   0.988   4.713
 7035WAT      O21346   4.081   1.905   5.960
 7035WAT     H121347   4.079   1.866   6.051
 7035WAT     H221348   4.126   1.995   5.963
 7036WAT      O21349   5.987   0.643   3.136
 7036WAT     H121350   5.931   0.618   3.215
 7036WAT     H221351   6.014   0.561   3.086
 7037WAT      O21352   4.561   2.611   7.923
 7037WAT     H121353   4.604   2.695   7.891
 7037WAT     H221354   4.631   2.540   7.936
 7038WAT      O21355   6.095   6.890   2.571
 7038WAT     H121356   6.040   6.810   2.597
 7038WAT     H221357   6.036   6.957   2.527
 7039WAT      O21358   8.228   6.641   1.540
 7039WAT     H121359   8.221   6.542   1.545
 7039WAT     H221360   8.161   6.676   1.474
 7040WAT      O21361   7.542   8.180   7.529
 7040WAT     H121362   7.489   8.096   7.546
 7040WAT     H221363   7.639   8.160   7.538
 7041WAT      O21364   6.020   8.095   3.891
 7041WAT     H121365   5.929   8.089   3.932
 7041WAT     H221366   6.020   8.164   3.819
 7042WAT      O21367   4.979   0.647   2.701
 7042WAT     H121368   5.010   0.729   2.750
 7042WAT     H221369   4.920   0.594   2.761
 7043WAT      O21370   9.849   5.745   7.570
 7043WAT     H121371   9.815   5.748   7.664
 7043WAT     H221372   9.945   5.716   7.570
 7044WAT      O21373   8.245   6.369   7.126
 7044WAT     H121374   8.307   6.340   7.199
 7044WAT     H221375   8.169   6.421   7.165
 7045WAT      O21376   4.737   8.621   2.605
 7045WAT     H121377   4.810   8.635   2.538
 7045WAT     H221378   4.773   8.568   2.683
 7046WAT      O21379   7.321   4.845   2.441
 7046WAT     H121380   7.265   4.772   2.402
 7046WAT     H221381   7.336   4.829   2.538
 7047WAT      O21382   6.682   9.205   4.103
 7047WAT     H121383   6.610   9.164   4.047
 7047WAT     H221384   6.644   9.281   4.155
 7048WAT      O21385   0.001   1.999   0.603
 7048WAT     H121386   0.083   1.946   0.582
 7048WAT     H221387  -0.002   2.080   0.545
 7049WAT      O21388   2.224   4.622   5.244
 7049WAT     H121389   2.142   4.671   5.216
 7049WAT     H221390   2.277   4.597   5.163
 7050WAT      O21391   9.254   5.407   9.581
 7050WAT     H121392   9.163   5.378   9.553
 7050WAT     H221393   9.309   5.427   9.500
 7051WAT      O21394   0.579   9.220   1.313
 7051WAT     H121395   0.553   9.155   1.385
 7051WAT     H221396   0.588   9.170   1.226
 7052WAT      O21397   0.013   0.392   0.979
 7052WAT     H121398  -0.066   0.399   1.040
 7052WAT     H221399   0.067   0.476   0.986
 7053WAT      O21400   2.376   5.473   0.416
 7053WAT     H121401   2.384   5.559   0.366
 7053WAT     H221402   2.358   5.399   0.352
 7054WAT      O21403   4.071   3.835   5.971
 7054WAT     H121404   4.042   3.825   5.876
 7054WAT     H221405   4.005   3.893   6.020
 7055WAT      O21406   0.690   8.394   4.278
 7055WAT     H121407   0.632   8.342   4.341
 7055WAT     H221408   0.784   8.358   4.282
 7056WAT      O21409   6.500   0.475   2.659
 7056WAT     H121410   6.438   0.435   2.592
 7056WAT     H221411   6.477   0.572   2.673
 7057WAT      O21412   4.060   1.286   4.686
 7057WAT     H121413   3.991   1.308   4.755
 7057WAT     H221414   4.045   1.193   4.654
 7058WAT      O21415   4.951   5.442   9.544
 7058WAT     H121416   4.866   5.491   9.558
 7058WAT     H221417   4.943   5.383   9.464
 7059WAT      O21418   3.848   8.326   9.673
 7059WAT     H121419   3.799   8.255   9.724
 7059WAT     H221420   3.785   8.371   9.610
 7060WAT      O21421   1.394   8.734   1.523
 7060WAT     H121422   1.411   8.809   1.587
 7060WAT     H221423   1.480   8.709   1.478
 7061WAT      O21424   8.706   4.195   9.069
 7061WAT     H121425   8.685   4.253   9.147
 7061WAT     H221426   8.748   4.110   9.101
 7062WAT      O21427   6.669   0.480   7.020
 7062WAT     H121428   6.713   0.436   6.942
 7062WAT     H221429   6.570   0.462   7.016
 7063WAT      O21430   1.720   7.262   6.864
 7063WAT     H121431   1.661   7.332   6.825
 7063WAT     H221432   1.800   7.304   6.907
 7064WAT      O21433   2.123   6.702   2.760
 7064WAT     H121434   2.165   6.778   2.710
 7064WAT     H221435   2.037   6.677   2.716
 7065WAT      O21436   0.986   8.894   6.676
 7065WAT     H121437   1.041   8.839   6.614
 7065WAT     H221438   1.001   8.991   6.658
 7066WAT      O21439   9.722   6.199   1.955
 7066WAT     H121440   9.684   6.287   1.926
 7066WAT     H221441   9.686   6.126   1.898
 7067WAT      O21442   4.979   2.639   0.313
 7067WAT     H121443   5.005   2.734   0.330
 7067WAT     H221444   4.906   2.637   0.245
 7068WAT      O21445   1.299   3.536   4.964
 7068WAT     H121446   1.264   3.447   4.993
 7068WAT     H221447   1.256   3.609   5.017
 7069WAT      O21448   2.096   6.500   1.914
 7069WAT     H121449   2.125   6.456   1.999
 7069WAT     H221450   2.166   6.490   1.844
 7070WAT      O21451   5.265   1.574   6.830
 7070WAT     H121452   5.236   1.539   6.741
 7070WAT     H221453   5.240   1.670   6.838
 7071WAT      O21454   5.919   9.604   7.451
 7071WAT     H121455   5.820   9.598   7.442
 7071WAT     H221456   5.960   9.513   7.443
 7072WAT      O21457   9.595   3.445   2.850
 7072WAT     H121458   9.523   3.391   2.893
 7072WAT     H221459   9.618   3.523   2.909
 7073WAT      O21460   8.531   5.812   9.708
 7073WAT     H121461   8.627   5.785   9.699
 7073WAT     H221462   8.517   5.901   9.664
 7074WAT      O21463   7.027   2.398   4.793
 7074WAT     H121464   6.965   2.320   4.795
 7074WAT     H221465   7.113   2.371   4.748
 7075WAT      O21466   8.435   6.007   5.469
 7075WAT     H121467   8.436   5.982   5.566
 7075WAT     H221468   8.354   6.061   5.448
 7076WAT      O21469   1.941   0.122   3.129
 7076WAT     H121470   1.950   0.149   3.225
 7076WAT     H221471   1.946   0.203   3.071
 7077WAT      O21472   9.478   2.744   8.351
 7077WAT     H121473   9.540   2.820   8.332
 7077WAT     H221474   9.530   2.661   8.368
 7078WAT      O21475   4.056   7.113   2.204
 7078WAT     H121476   3.958   7.122   2.220
 7078WAT     H221477   4.073   7.035   2.144
 7079WAT      O21478   9.597   1.081   0.934
 7079WAT     H121479   9.653   1.044   0.859
 7079WAT     H221480   9.545   1.008   0.976
 7080WAT      O21481   6.004   8.362   8.320
 7080WAT     H121482   5.921   8.307   8.332
 7080WAT     H221483   5.979   8.458   8.308
 7081WAT      O21484   5.999   1.763   0.053
 7081WAT     H121485   5.967   1.794   0.142
 7081WAT     H221486   6.086   1.714   0.064
 7082WAT      O21487   2.401   3.405   6.068
 7082WAT     H121488   2.489   3.359   6.059
 7082WAT     H221489   2.334   3.343   6.110
 7083WAT      O21490   3.798   6.005   7.049
 7083WAT     H121491   3.780   5.909   7.070
 7083WAT     H221492   3.714   6.047   7.015
 7084WAT      O21493   9.049   6.749   9.185
 7084WAT     H121494   9.020   6.707   9.099
 7084WAT     H221495   9.020   6.845   9.187
 7085WAT      O21496   2.151   7.020   3.942
 7085WAT     H121497   2.071   7.079   3.926
 7085WAT     H221498   2.189   7.040   4.033
 7086WAT      O21499   9.247   3.465   5.201
 7086WAT     H121500   9.272   3.438   5.107
 7086WAT     H221501   9.303   3.413   5.266
 7087WAT      O21502   7.061   3.787   3.258
 7087WAT     H121503   7.107   3.705   3.224
 7087WAT     H221504   6.987   3.812   3.196
 7088WAT      O21505   1.453   1.077   0.380
 7088WAT     H121506   1.537   1.052   0.332
 7088WAT     H221507   1.433   1.008   0.450
 7089WAT      O21508   0.958   4.599   1.388
 7089WAT     H121509   0.959   4.674   1.322
 7089WAT     H221510   0.996   4.517   1.345
 7090WAT      O21511   4.101   6.224   1.888
 7090WAT     H121512   4.095   6.324   1.891
 7090WAT     H221513   4.116   6.189   1.981
 7091WAT      O21514   3.878   2.625   4.150
 7091WAT     H121515   3.966   2.643   4.105
 7091WAT     H221516   3.886   2.541   4.204
 7092WAT      O21517   1.375   5.369   4.888
 7092WAT     H121518   1.403   5.461   4.912
 7092WAT     H221519   1.275   5.362   4.891
 7093WAT      O21520   0.173   5.105   4.257
 7093WAT     H121521   0.271   5.123   4.244
 7093WAT     H221522   0.147   5.129   4.350
 7094WAT      O21523   8.951   8.608   0.570
 7094WAT     H121524   8.855   8.617   0.597
 7094WAT     H221525   8.977   8.512   0.572
 7095WAT      O21526   1.865   0.892   5.790
 7095WAT     H121527   1.866   0.796   5.816
 7095WAT     H221528   1.792   0.908   5.724
 7096WAT      O21529   1.830   5.009   6.341
 7096WAT     H121530   1.742   4.986   6.300
 7096WAT     H221531   1.900   5.014   6.269
 7097WAT      O21532   7.588   6.673   4.291
 7097WAT     H121533   7.646   6.628   4.223
 7097WAT     H221534   7.577   6.769   4.266
 7098WAT      O21535   7.904   2.459   4.894
 7098WAT     H121536   7.939   2.370   4.924
 7098WAT     H221537   7.958   2.491   4.815
 7099WAT      O21538   1.588   2.700   3.445
 7099WAT     H121539   1.516   2.643   3.405
 7099WAT     H221540   1.600   2.782   3.389
 7100WAT      O21541   5.355   7.013   7.666
 7100WAT     H121542   5.443   7.058   7.646
 7100WAT     H221543   5.371   6.915   7.679
 7101WAT      O21544   2.448   3.734   9.345
 7101WAT     H121545   2.512   3.683   9.289
 7101WAT     H221546   2.430   3.823   9.303
 7102WAT      O21547   2.148   0.305   3.446
 7102WAT     H121548   2.088   0.379   3.414
 7102WAT     H221549   2.229   0.345   3.489
 7103WAT      O21550   7.956   6.454   2.322
 7103WAT     H121551   7.903   6.496   2.249
 7103WAT     H221552   7.917   6.479   2.411
 7104WAT      O21553   3.608   4.322   2.450
 7104WAT     H121554   3.558   4.288   2.530
 7104WAT     H221555   3.691   4.368   2.480
 7105WAT      O21556   6.484   2.242   7.706
 7105WAT     H121557   6.574   2.203   7.727
 7105WAT     H221558   6.417   2.208   7.773
 7106WAT      O21559   7.802   3.885   1.980
 7106WAT     H121560   7.881   3.850   1.931
 7106WAT     H221561   7.784   3.829   2.061
 7107WAT      O21562   3.273   6.160   8.260
 7107WAT     H121563   3.303   6.147   8.354
 7107WAT     H221564   3.182   6.121   8.248
 7108WAT      O21565   7.293   6.971   7.242
 7108WAT     H121566   7.362   6.950   7.173
 7108WAT     H221567   7.338   6.982   7.331
 7109WAT      O21568   3.574   4.171   0.003
 7109WAT     H121569   3.492   4.202  -0.045
 7109WAT     H221570   3.557   4.171   0.102
 7110WAT      O21571   0.241   6.062   0.788
 7110WAT     H121572   0.154   6.068   0.836
 7110WAT     H221573   0.304   6.004   0.840
 7111WAT      O21574   7.626   9.728   3.493
 7111WAT     H121575   7.688   9.776   3.432
 7111WAT     H221576   7.568   9.794   3.541
 7112WAT      O21577   6.497   3.875   9.054
 7112WAT     H121578   6.515   3.953   8.994
 7112WAT     H221579   6.583   3.835   9.084
 7113WAT      O21580   1.208   9.242   4.091
 7113WAT     H121581   1.276   9.169   4.085
 7113WAT     H221582   1.142   9.233   4.017
 7114WAT      O21583   8.775   3.786   1.574
 7114WAT     H121584   8.868   3.820   1.583
 7114WAT     H221585   8.715   3.834   1.638
 7115WAT      O21586   0.926   6.017   8.879
 7115WAT     H121587   1.021   6.044   8.865
 7115WAT     H221588   0.916   5.920   8.859
 7116WAT      O21589   5.400   2.118   0.926
 7116WAT     H121590   5.315   2.136   0.975
 7116WAT     H221591   5.474   2.169   0.969
 7117WAT      O21592   2.354   0.992   4.191
 7117WAT     H121593   2.294   1.011   4.113
 7117WAT     H221594   2.441   1.041   4.177
 7118WAT      O21595   7.335   1.704   1.019
 7118WAT     H121596   7.323   1.791   1.066
 7118WAT     H221597   7.369   1.720   0.926
 7119WAT      O21598   3.921   4.519   8.908
 7119WAT     H121599   3.960   4.525   8.999
 7119WAT     H221600   3.935   4.426   8.872
 7120WAT      O21601   0.846   0.252   6.703
 7120WAT     H121602   0.905   0.195   6.647
 7120WAT     H221603   0.758   0.205   6.716
 7121WAT      O21604   2.455   6.774   6.485
 7121WAT     H121605   2.404   6.815   6.410
 7121WAT     H221606   2.426   6.816   6.571
 7122WAT      O21607   8.715   3.019   7.003
 7122WAT     H121608   8.679   3.043   6.913
 7122WAT     H221609   8.767   2.934   6.998
 7123WAT      O21610   2.119   6.783   9.024
 7123WAT     H121611   2.164   6.693   9.031
 7123WAT     H221612   2.178   6.846   8.974
 7124WAT      O21613   0.000   7.740   9.459
 7124WAT     H121614  -0.054   7.823   9.473
 7124WAT     H221615   0.091   7.765   9.424
 7125WAT      O21616   4.817   9.739   8.871
 7125WAT     H121617   4.872   9.782   8.942
 7125WAT     H221618   4.759   9.807   8.827
 7126WAT      O21619   3.402   6.744   0.797
 7126WAT     H121620   3.366   6.827   0.839
 7126WAT     H221621   3.444   6.686   0.868
 7127WAT      O21622   8.219   7.235   0.816
 7127WAT     H121623   8.174   7.280   0.738
 7127WAT     H221624   8.185   7.275   0.901
 7128WAT      O21625   0.790   0.147   9.756
 7128WAT     H121626   0.769   0.217   9.824
 7128WAT     H221627   0.720   0.148   9.685
 7129WAT      O21628   6.246   4.288   7.233
 7129WAT     H121629   6.256   4.320   7.139
 7129WAT     H221630   6.197   4.201   7.234
 7130WAT      O21631   4.367   9.784   4.473
 7130WAT     H121632   4.376   9.709   4.538
 7130WAT     H221633   4.449   9.842   4.478
 7131WAT      O21634   4.270   4.154   0.885
 7131WAT     H121635   4.366   4.128   0.897
 7131WAT     H221636   4.265   4.250   0.859
 7132WAT      O21637   2.004   1.970   6.037
 7132WAT     H121638   2.031   1.900   5.970
 7132WAT     H221639   2.045   2.057   6.012
 7133WAT      O21640   1.214   0.717   0.776
 7133WAT     H121641   1.142   0.713   0.706
 7133WAT     H221642   1.282   0.785   0.750
 7134WAT      O21643   2.938   3.293   1.963
 7134WAT     H121644   2.991   3.221   1.918
 7134WAT     H221645   2.878   3.337   1.896
 7135WAT      O21646   7.086   0.122   8.422
 7135WAT     H121647   7.065   0.029   8.391
 7135WAT     H221648   7.017   0.185   8.385
 7136WAT      O21649   3.524   4.821   8.569
 7136WAT     H121650   3.463   4.892   8.534
 7136WAT     H221651   3.574   4.780   8.493
 7137WAT      O21652   3.183   8.305   4.364
 7137WAT     H121653   3.116   8.361   4.413
 7137WAT     H221654   3.206   8.225   4.420
 7138WAT      O21655   5.026   4.454   7.063
 7138WAT     H121656   5.094   4.507   7.112
 7138WAT     H221657   5.039   4.356   7.082
 7139WAT      O21658   8.912   9.069   8.144
 7139WAT     H121659   8.838   9.033   8.088
 7139WAT     H221660   8.996   9.074   8.090
 7140WAT      O21661   1.714   2.878   6.157
 7140WAT     H121662   1.686   2.789   6.120
 7140WAT     H221663   1.633   2.936   6.168
 7141WAT      O21664   8.685   5.945   7.717
 7141WAT     H121665   8.783   5.934   7.731
 7141WAT     H221666   8.636   5.868   7.759
 7142WAT      O21667   2.672   2.321   4.344
 7142WAT     H121668   2.717   2.367   4.421
 7142WAT     H221669   2.678   2.379   4.263
 7143WAT      O21670   2.947   0.643   9.830
 7143WAT     H121671   2.883   0.717   9.849
 7143WAT     H221672   2.903   0.576   9.770
 7144WAT      O21673   2.750   2.820   1.975
 7144WAT     H121674   2.802   2.777   2.049
 7144WAT     H221675   2.812   2.874   1.918
 7145WAT      O21676   4.031   8.457   2.619
 7145WAT     H121677   4.081   8.384   2.571
 7145WAT     H221678   4.093   8.532   2.641
 7146WAT      O21679   9.301   5.944   0.125
 7146WAT     H121680   9.201   5.956   0.128
 7146WAT     H221681   9.324   5.877   0.054
 7147WAT      O21682   2.421   0.414   6.962
 7147WAT     H121683   2.503   0.460   6.929
 7147WAT     H221684   2.340   0.462   6.930
 7148WAT      O21685   7.521   1.257   3.927
 7148WAT     H121686   7.583   1.258   3.849
 7148WAT     H221687   7.573   1.241   4.011
 7149WAT      O21688   5.808   6.303   8.570
 7149WAT     H121689   5.873   6.267   8.504
 7149WAT     H221690   5.714   6.285   8.540
 7150WAT      O21691   5.016   5.782   8.022
 7150WAT     H121692   5.062   5.860   8.065
 7150WAT     H221693   4.947   5.815   7.958
 7151WAT      O21694   8.027   5.085   9.027
 7151WAT     H121695   7.969   5.007   9.050
 7151WAT     H221696   8.093   5.058   8.958
 7152WAT      O21697   4.043   1.946   3.221
 7152WAT     H121698   4.039   2.042   3.249
 7152WAT     H221699   3.953   1.904   3.233
 7153WAT      O21700   6.353   1.475   5.680
 7153WAT     H121701   6.310   1.550   5.730
 7153WAT     H221702   6.339   1.389   5.730
 7154WAT      O21703   8.196   8.669   5.607
 7154WAT     H121704   8.146   8.587   5.634
 7154WAT     H221705   8.278   8.643   5.556
 7155WAT      O21706   7.232   8.896   3.488
 7155WAT     H121707   7.254   8.843   3.406
 7155WAT     H221708   7.136   8.881   3.512
 7156WAT      O21709   8.656   7.594   2.348
 7156WAT     H121710   8.633   7.691   2.351
 7156WAT     H221711   8.573   7.540   2.366
 7157WAT      O21712   1.039   0.535   1.291
 7157WAT     H121713   1.072   0.447   1.258
 7157WAT     H221714   1.020   0.595   1.213
 7158WAT      O21715   9.346   0.738   2.228
 7158WAT     H121716   9.366   0.825   2.273
 7158WAT     H221717   9.366   0.746   2.130
 7159WAT      O21718   1.624   0.152   0.338
 7159WAT     H121719   1.558   0.142   0.412
 7159WAT     H221720   1.584   0.119   0.253
 7160WAT      O21721   3.380   9.555   7.229
 7160WAT     H121722   3.338   9.633   7.274
 7160WAT     H221723   3.464   9.584   7.183
 7161WAT      O21724   5.390   7.077   6.058
 7161WAT     H121725   5.332   7.157   6.042
 7161WAT     H221726   5.448   7.093   6.139
 7162WAT      O21727   2.413   1.882   6.948
 7162WAT     H121728   2.470   1.958   6.979
 7162WAT     H221729   2.471   1.805   6.922
 7163WAT      O21730   4.578   2.384   3.268
 7163WAT     H121731   4.500   2.407   3.209
 7163WAT     H221732   4.650   2.342   3.214
 7164WAT      O21733   9.664   8.323   8.777
 7164WAT     H121734   9.632   8.418   8.772
 7164WAT     H221735   9.663   8.283   8.686
 7165WAT      O21736   1.802   1.399   6.151
 7165WAT     H121737   1.833   1.437   6.064
 7165WAT     H221738   1.872   1.417   6.221
 7166WAT      O21739   5.024   2.818   8.476
 7166WAT     H121740   5.003   2.824   8.573
 7166WAT     H221741   5.106   2.761   8.463
 7167WAT      O21742   3.616   8.520   1.177
 7167WAT     H121743   3.672   8.453   1.225
 7167WAT     H221744   3.629   8.611   1.218
 7168WAT      O21745   4.176   3.410   1.708
 7168WAT     H121746   4.079   3.415   1.733
 7168WAT     H221747   4.209   3.317   1.723
 7169WAT      O21748   4.409   8.791   6.231
 7169WAT     H121749   4.335   8.742   6.185
 7169WAT     H221750   4.496   8.769   6.187
 7170WAT      O21751   8.328   2.952   6.354
 7170WAT     H121752   8.416   2.956   6.400
 7170WAT     H221753   8.341   2.935   6.257
 7171WAT      O21754   5.709   8.363   8.144
 7171WAT     H121755   5.696   8.440   8.081
 7171WAT     H221756   5.694   8.277   8.096
 7172WAT      O21757   0.925   1.916   4.104
 7172WAT     H121758   1.003   1.878   4.153
 7172WAT     H221759   0.957   1.983   4.037
 7173WAT      O21760   3.416   2.468   6.802
 7173WAT     H121761   3.425   2.376   6.840
 7173WAT     H221762   3.326   2.505   6.824
 7174WAT      O21763   3.336   2.605   3.560
 7174WAT     H121764   3.411   2.589   3.496
 7174WAT     H221765   3.372   2.645   3.644
 7175WAT      O21766   7.604   6.133   3.686
 7175WAT     H121767   7.524   6.074   3.702
 7175WAT     H221768   7.579   6.228   3.703
 7176WAT      O21769   8.361   3.088   1.042
 7176WAT     H121770   8.416   3.169   1.063
 7176WAT     H221771   8.379   3.017   1.111
 7177WAT      O21772   5.344   8.123   8.075
 7177WAT     H121773   5.371   8.090   8.166
 7177WAT     H221774   5.285   8.204   8.086
 7178WAT      O21775   1.191   4.736   2.568
 7178WAT     H121776   1.252   4.673   2.616
 7178WAT     H221777   1.243   4.783   2.496
 7179WAT      O21778   9.243   5.558   4.827
 7179WAT     H121779   9.275   5.516   4.742
 7179WAT     H221780   9.174   5.500   4.870
 7180WAT      O21781   9.381   9.313   9.057
 7180WAT     H121782   9.421   9.326   8.967
 7180WAT     H221783   9.351   9.401   9.094
 7181WAT      O21784   3.577   3.208   8.418
 7181WAT     H121785   3.577   3.304   8.388
 7181WAT     H221786   3.633   3.154   8.356
 7182WAT      O21787   6.372   3.300   1.684
 7182WAT     H121788   6.467   3.329   1.686
 7182WAT     H221789   6.343   3.273   1.776
 7183WAT      O21790   1.192   7.510   3.620
 7183WAT     H121791   1.152   7.469   3.702
 7183WAT     H221792   1.231   7.437   3.563
 7184WAT      O21793   2.818   3.434   3.213
 7184WAT     H121794   2.790   3.461   3.121
 7184WAT     H221795   2.774   3.348   3.237
 7185WAT      O21796   7.156   8.118   8.914
 7185WAT     H121797   7.248   8.143   8.945
 7185WAT     H221798   7.154   8.020   8.893
 7186WAT      O21799   7.387   5.603   5.660
 7186WAT     H121800   7.426   5.513   5.678
 7186WAT     H221801   7.460   5.666   5.636
 7187WAT      O21802   6.266   2.236   1.344
 7187WAT     H121803   6.308   2.150   1.316
 7187WAT     H221804   6.238   2.288   1.263
 7188WAT      O21805   6.983   2.896   7.969
 7188WAT     H121806   6.966   2.800   7.993
 7188WAT     H221807   7.078   2.906   7.940
 7189WAT      O21808   7.587   5.360   7.578
 7189WAT     H121809   7.655   5.286   7.589
 7189WAT     H221810   7.626   5.445   7.614
 7190WAT      O21811   8.516   0.300   0.168
 7190WAT     H121812   8.479   0.350   0.246
 7190WAT     H221813   8.442   0.269   0.110
 7191WAT      O21814   4.495   2.034   5.442
 7191WAT     H121815   4.485   2.029   5.343
 7191WAT     H221816   4.454   1.953   5.484
 7192WAT      O21817   4.647   0.895   1.647
 7192WAT     H121818   4.593   0.874   1.729
 7192WAT     H221819   4.608   0.846   1.569
 7193WAT      O21820   1.094   6.998   8.590
 7193WAT     H121821   1.152   7.002   8.672
 7193WAT     H221822   1.084   6.903   8.561
 7194WAT      O21823   8.523   7.454   5.878
 7194WAT     H121824   8.557   7.490   5.791
 7194WAT     H221825   8.553   7.359   5.889
 7195WAT      O21826   6.948   5.704   4.778
 7195WAT     H121827   6.938   5.612   4.817
 7195WAT     H221828   6.881   5.715   4.704
 7196WAT      O21829   3.358   9.648   2.673
 7196WAT     H121830   3.359   9.735   2.624
 7196WAT     H221831   3.287   9.589   2.635
 7197WAT      O21832   8.208   6.173   8.114
 7197WAT     H121833   8.123   6.199   8.069
 7197WAT     H221834   8.285   6.201   8.057
 7198WAT      O21835   4.623   0.790   9.889
 7198WAT     H121836   4.628   0.703   9.841
 7198WAT     H221837   4.715   0.820   9.915
 7199WAT      O21838   1.681   9.761   3.226
 7199WAT     H121839   1.706   9.803   3.314
 7199WAT     H221840   1.737   9.679   3.211
 7200WAT      O21841   1.304   0.122   8.976
 7200WAT     H121842   1.393   0.118   8.929
 7200WAT     H221843   1.283   0.032   9.015
 7201WAT      O21844   6.474   0.933   7.015
 7201WAT     H121845   6.463   0.855   7.077
 7201WAT     H221846   6.535   0.908   6.941
 7202WAT      O21847   3.448   0.067   6.449
 7202WAT     H121848   3.477   0.042   6.357
 7202WAT     H221849   3.427   0.165   6.451
 7203WAT      O21850   4.154   0.244   1.431
 7203WAT     H121851   4.181   0.169   1.492
 7203WAT     H221852   4.068   0.283   1.462
 7204WAT      O21853   2.441   1.522   1.813
 7204WAT     H121854   2.347   1.555   1.813
 7204WAT     H221855   2.444   1.429   1.851
 7205WAT      O21856   6.251   0.745   9.262
 7205WAT     H121857   6.216   0.656   9.232
 7205WAT     H221858   6.240   0.811   9.188
 7206WAT      O21859   0.457   8.456   8.948
 7206WAT     H121860   0.378   8.518   8.945
 7206WAT     H221861   0.425   8.363   8.965
 7207WAT      O21862   1.864   8.536   1.328
 7207WAT     H121863   1.921   8.480   1.388
 7207WAT     H221864   1.820   8.477   1.260
 7208WAT      O21865   4.391   2.017   6.479
 7208WAT     H121866   4.357   2.110   6.495
 7208WAT     H221867   4.417   1.976   6.567
 7209WAT      O21868   3.919   3.745   5.742
 7209WAT     H121869   3.887   3.747   5.647
 7209WAT     H221870   3.880   3.666   5.789
 7210WAT      O21871   7.281   1.288   1.115
 7210WAT     H121872   7.227   1.262   1.195
 7210WAT     H221873   7.308   1.205   1.065
 7211WAT      O21874   4.223   5.479   7.002
 7211WAT     H121875   4.275   5.507   7.083
 7211WAT     H221876   4.137   5.530   6.999
 7212WAT      O21877   6.587   7.498   3.590
 7212WAT     H121878   6.536   7.579   3.562
 7212WAT     H221879   6.682   7.523   3.608
 7213WAT      O21880   7.602   4.580   7.538
 7213WAT     H121881   7.670   4.517   7.500
 7213WAT     H221882   7.527   4.592   7.473
 7214WAT      O21883   6.864   9.598   8.484
 7214WAT     H121884   6.829   9.505   8.469
 7214WAT     H221885   6.898   9.606   8.577
 7215WAT      O21886   2.236   5.225   6.440
 7215WAT     H121887   2.306   5.292   6.417
 7215WAT     H221888   2.147   5.270   6.447
 7216WAT      O21889   4.749   1.921   2.268
 7216WAT     H121890   4.685   1.899   2.194
 7216WAT     H221891   4.710   1.893   2.356
 7217WAT      O21892   0.213   3.067   6.941
 7217WAT     H121893   0.304   3.027   6.930
 7217WAT     H221894   0.221   3.167   6.938
 7218WAT      O21895   8.749   3.259   1.286
 7218WAT     H121896   8.742   3.259   1.385
 7218WAT     H221897   8.821   3.322   1.257
 7219WAT      O21898   0.222   8.756   2.142
 7219WAT     H121899   0.238   8.814   2.062
 7219WAT     H221900   0.135   8.781   2.184
 7220WAT      O21901   0.491   6.789   3.438
 7220WAT     H121902   0.563   6.746   3.492
 7220WAT     H221903   0.530   6.862   3.382
 7221WAT      O21904   7.264   4.121   3.682
 7221WAT     H121905   7.354   4.091   3.650
 7221WAT     H221906   7.208   4.149   3.604
 7222WAT      O21907   0.745   6.434   9.347
 7222WAT     H121908   0.716   6.470   9.436
 7222WAT     H221909   0.715   6.496   9.275
 7223WAT      O21910   1.343   0.746   7.359
 7223WAT     H121911   1.408   0.823   7.365
 7223WAT     H221912   1.393   0.660   7.361
 7224WAT      O21913   0.020   8.349   6.929
 7224WAT     H121914   0.070   8.267   6.957
 7224WAT     H221915   0.067   8.430   6.965
 7225WAT      O21916   5.829   1.727   8.219
 7225WAT     H121917   5.834   1.799   8.151
 7225WAT     H221918   5.812   1.639   8.174
 7226WAT      O21919   0.355   1.853   8.705
 7226WAT     H121920   0.428   1.805   8.754
 7226WAT     H221921   0.394   1.901   8.625
 7227WAT      O21922   5.766   8.623   9.580
 7227WAT     H121923   5.667   8.621   9.565
 7227WAT     H221924   5.813   8.605   9.493
 7228WAT      O21925   6.296   1.102   7.213
 7228WAT     H121926   6.252   1.013   7.202
 7228WAT     H221927   6.375   1.108   7.153
 7229WAT      O21928   4.742   0.233   1.796
 7229WAT     H121929   4.724   0.319   1.749
 7229WAT     H221930   4.766   0.163   1.730
 7230WAT      O21931   2.180   9.257   3.790
 7230WAT     H121932   2.228   9.228   3.873
 7230WAT     H221933   2.160   9.355   3.796
 7231WAT      O21934   2.669   6.693   0.085
 7231WAT     H121935   2.672   6.775   0.028
 7231WAT     H221936   2.580   6.685   0.129
 7232WAT      O21937   1.982   3.448   3.392
 7232WAT     H121938   1.908   3.461   3.326
 7232WAT     H221939   1.970   3.359   3.437
 7233WAT      O21940   9.287   9.477   0.694
 7233WAT     H121941   9.295   9.381   0.718
 7233WAT     H221942   9.199   9.513   0.725
 7234WAT      O21943   0.439   9.677   2.602
 7234WAT     H121944   0.433   9.701   2.505
 7234WAT     H221945   0.417   9.580   2.613
 7235WAT      O21946   9.868   2.933   3.541
 7235WAT     H121947   9.842   2.962   3.633
 7235WAT     H221948   9.826   2.994   3.474
 7236WAT      O21949   2.445   8.132   5.476
 7236WAT     H121950   2.506   8.095   5.406
 7236WAT     H221951   2.489   8.127   5.565
 7237WAT      O21952   5.887   8.266   4.794
 7237WAT     H121953   5.926   8.333   4.857
 7237WAT     H221954   5.914   8.289   4.701
 7238WAT      O21955   4.307   2.177   7.986
 7238WAT     H121956   4.216   2.142   7.964
 7238WAT     H221957   4.345   2.124   8.062
 7239WAT      O21958   6.728   7.305   0.246
 7239WAT     H121959   6.790   7.369   0.200
 7239WAT     H221960   6.772   7.271   0.330
 7240WAT      O21961   5.943   0.822   1.143
 7240WAT     H121962   5.877   0.774   1.200
 7240WAT     H221963   6.019   0.854   1.201
 7241WAT      O21964   1.333   6.239   4.931
 7241WAT     H121965   1.303   6.278   5.018
 7241WAT     H221966   1.393   6.161   4.949
 7242WAT      O21967   7.711   3.553   2.606
 7242WAT     H121968   7.702   3.605   2.691
 7242WAT     H221969   7.635   3.488   2.598
 7243WAT      O21970   5.597   8.935   9.159
 7243WAT     H121971   5.667   8.902   9.223
 7243WAT     H221972   5.608   8.890   9.071
 7244WAT      O21973   4.227   6.826   6.933
 7244WAT     H121974   4.223   6.917   6.892
 7244WAT     H221975   4.212   6.833   7.031
 7245WAT      O21976   4.019   4.436   9.541
 7245WAT     H121977   4.051   4.530   9.551
 7245WAT     H221978   3.921   4.432   9.559
 7246WAT      O21979   9.271   6.515   0.454
 7246WAT     H121980   9.284   6.559   0.365
 7246WAT     H221981   9.185   6.547   0.495
 7247WAT      O21982   9.809   9.029   2.822
 7247WAT     H121983   9.760   9.116   2.834
 7247WAT     H221984   9.873   9.016   2.898
 7248WAT      O21985   2.326   2.331   6.826
 7248WAT     H121986   2.272   2.304   6.906
 7248WAT     H221987   2.352   2.250   6.775
 7249WAT      O21988   7.611   1.400   7.763
 7249WAT     H121989   7.512   1.396   7.750
 7249WAT     H221990   7.656   1.347   7.690
 7250WAT      O21991   0.907   5.555   9.360
 7250WAT     H121992   0.893   5.574   9.263
 7250WAT     H221993   0.828   5.506   9.397
 7251WAT      O21994   9.651   1.279   2.238
 7251WAT     H121995   9.746   1.275   2.207
 7251WAT     H221996   9.648   1.290   2.337
 7252WAT      O21997   3.286   0.475   6.522
 7252WAT     H121998   3.303   0.570   6.494
 7252WAT     H221999   3.361   0.444   6.581
 7253WAT      O22000   8.452   8.447   0.098
 7253WAT     H122001   8.376   8.420   0.157
 7253WAT     H222002   8.451   8.547   0.087
 7254WAT      O22003   9.745   6.280   2.437
 7254WAT     H122004   9.672   6.339   2.403
 7254WAT     H222005   9.779   6.223   2.362
 7255WAT      O22006   8.292   1.168   7.754
 7255WAT     H122007   8.213   1.110   7.772
 7255WAT     H222008   8.302   1.181   7.655
 7256WAT      O22009   3.821   6.584   6.645
 7256WAT     H122010   3.774   6.609   6.560
 7256WAT     H222011   3.758   6.539   6.707
 7257WAT      O22012   2.093   6.291   6.255
 7257WAT     H122013   2.052   6.326   6.171
 7257WAT     H222014   2.190   6.275   6.240
 7258WAT      O22015   3.378   0.085   0.806
 7258WAT     H122016   3.326   0.169   0.791
 7258WAT     H222017   3.454   0.081   0.742
 7259WAT      O22018   8.337   4.559   2.702
 7259WAT     H122019   8.368   4.642   2.655
 7259WAT     H222020   8.415   4.497   2.715
 7260WAT      O22021   4.236   7.835   3.359
 7260WAT     H122022   4.247   7.839   3.260
 7260WAT     H222023   4.197   7.920   3.391
 7261WAT      O22024   7.742   7.230   2.702
 7261WAT     H122025   7.686   7.277   2.634
 7261WAT     H222026   7.731   7.274   2.791
 7262WAT      O22027   8.497   3.970   5.641
 7262WAT     H122028   8.411   3.996   5.598
 7262WAT     H222029   8.565   3.949   5.570
 7263WAT      O22030   0.979   1.299   2.269
 7263WAT     H122031   1.062   1.314   2.324
 7263WAT     H222032   1.003   1.250   2.185
 7264WAT      O22033   5.702   0.656   8.920
 7264WAT     H122034   5.687   0.727   8.989
 7264WAT     H222035   5.689   0.695   8.829
 7265WAT      O22036   6.391   9.806   0.363
 7265WAT     H122037   6.429   9.809   0.271
 7265WAT     H222038   6.435   9.876   0.420
 7266WAT      O22039   5.448   1.803   9.434
 7266WAT     H122040   5.472   1.736   9.504
 7266WAT     H222041   5.354   1.785   9.402
 7267WAT      O22042   2.597   7.841   3.048
 7267WAT     H122043   2.546   7.874   3.127
 7267WAT     H222044   2.551   7.869   2.964
 7268WAT      O22045   0.718   5.698   5.690
 7268WAT     H122046   0.747   5.771   5.751
 7268WAT     H222047   0.619   5.706   5.673
 7269WAT      O22048   0.959   0.684   2.640
 7269WAT     H122049   0.947   0.593   2.600
 7269WAT     H222050   1.054   0.714   2.626
 7270WAT      O22051   2.395   9.508   1.367
 7270WAT     H122052   2.399   9.592   1.313
 7270WAT     H222053   2.411   9.430   1.307
 7271WAT      O22054   7.444   2.511   3.672
 7271WAT     H122055   7.360   2.536   3.623
 7271WAT     H222056   7.424   2.503   3.769
 7272WAT      O22057   8.750   3.162   7.668
 7272WAT     H122058   8.814   3.238   7.681
 7272WAT     H222059   8.703   3.144   7.754
 7273WAT      O22060   6.958   1.871   8.798
 7273WAT     H122061   6.922   1.964   8.784
 7273WAT     H222062   7.054   1.877   8.824
 7274WAT      O22063   1.092   4.469   3.771
 7274WAT     H122064   1.151   4.415   3.712
 7274WAT     H222065   1.007   4.489   3.723
 7275WAT      O22066   6.682   7.826   6.122
 7275WAT     H122067   6.595   7.842   6.168
 7275WAT     H222068   6.743   7.904   6.137
 7276WAT      O22069   0.690   5.472   0.692
 7276WAT     H122070   0.753   5.470   0.770
 7276WAT     H222071   0.689   5.383   0.647
 7277WAT      O22072   6.702   9.463   5.166
 7277WAT     H122073   6.742   9.396   5.228
 7277WAT     H222074   6.645   9.527   5.218
 7278WAT      O22075   4.403   9.092   0.931
 7278WAT     H122076   4.434   8.997   0.940
 7278WAT     H222077   4.372   9.108   0.837
 7279WAT      O22078   9.711   0.817   6.375
 7279WAT     H122079   9.650   0.742   6.349
 7279WAT     H222080   9.699   0.837   6.472
 7280WAT      O22081   5.282   5.802   3.373
 7280WAT     H122082   5.217   5.820   3.299
 7280WAT     H222083   5.232   5.788   3.458
 7281WAT      O22084   6.040   8.261   3.663
 7281WAT     H122085   5.980   8.231   3.588
 7281WAT     H222086   6.113   8.318   3.626
 7282WAT      O22087   0.018   2.034   3.361
 7282WAT     H122088  -0.027   1.954   3.401
 7282WAT     H222089   0.113   2.012   3.340
 7283WAT      O22090   6.553   1.825   3.312
 7283WAT     H122091   6.551   1.764   3.391
 7283WAT     H222092   6.575   1.918   3.342
 7284WAT      O22093   5.254   4.789   3.666
 7284WAT     H122094   5.319   4.863   3.681
 7284WAT     H222095   5.285   4.732   3.590
 7285WAT      O22096   4.229   7.241   8.729
 7285WAT     H122097   4.203   7.333   8.700
 7285WAT     H222098   4.198   7.226   8.823
 7286WAT      O22099   8.285   2.096   4.270
 7286WAT     H122100   8.205   2.153   4.290
 7286WAT     H222101   8.257   2.000   4.269
 7287WAT      O22102   8.474   8.127   0.517
 7287WAT     H122103   8.505   8.167   0.430
 7287WAT     H222104   8.384   8.087   0.505
 7288WAT      O22105   4.580   7.883   3.873
 7288WAT     H122106   4.568   7.784   3.872
 7288WAT     H222107   4.574   7.918   3.779
 7289WAT      O22108   5.807   5.885   8.862
 7289WAT     H122109   5.896   5.859   8.900
 7289WAT     H222110   5.755   5.803   8.839
 7290WAT      O22111   9.501   9.400   8.832
 7290WAT     H122112   9.462   9.441   8.750
 7290WAT     H222113   9.585   9.448   8.857
 7291WAT      O22114   4.068   8.572   3.211
 7291WAT     H122115   4.113   8.499   3.262
 7291WAT     H222116   3.984   8.598   3.258
 7292WAT      O22117   6.664   1.269   1.279
 7292WAT     H122118   6.728   1.343   1.299
 7292WAT     H222119   6.599   1.261   1.355
 7293WAT      O22120   4.121   1.957   3.765
 7293WAT     H122121   4.112   1.884   3.697
 7293WAT     H222122   4.030   1.983   3.797
 7294WAT      O22123   1.099   4.332   7.076
 7294WAT     H122124   1.165   4.259   7.060
 7294WAT     H222125   1.129   4.387   7.154
 7295WAT      O22126   5.427   8.045   8.334
 7295WAT     H122127   5.393   8.118   8.393
 7295WAT     H222128   5.376   7.961   8.352
 7296WAT      O22129   5.586   6.615   7.369
 7296WAT     H122130   5.513   6.563   7.412
 7296WAT     H222131   5.616   6.569   7.286
 7297WAT      O22132   9.723   1.514   9.835
 7297WAT     H122133   9.781   1.591   9.862
 7297WAT     H222134   9.743   1.490   9.740
 7298WAT      O22135   6.117   3.270   2.824
 7298WAT     H122136   6.134   3.184   2.873
 7298WAT     H222137   6.059   3.329   2.881
 7299WAT      O22138   0.815   4.076   8.493
 7299WAT     H122139   0.796   4.001   8.556
 7299WAT     H222140   0.875   4.044   8.420
 7300WAT      O22141   6.249   1.897   9.425
 7300WAT     H122142   6.200   1.939   9.501
 7300WAT     H222143   6.199   1.818   9.391
 7301WAT      O22144   1.883   3.056   4.000
 7301WAT     H122145   1.941   3.137   3.999
 7301WAT     H222146   1.933   2.978   3.961
 7302WAT      O22147   6.385   3.898   2.236
 7302WAT     H122148   6.332   3.981   2.250
 7302WAT     H222149   6.344   3.844   2.162
 7303WAT      O22150   9.301   5.727   1.871
 7303WAT     H122151   9.324   5.632   1.894
 7303WAT     H222152   9.346   5.752   1.785
 7304WAT      O22153   5.391   7.978   2.019
 7304WAT     H122154   5.407   7.894   1.967
 7304WAT     H222155   5.477   8.013   2.054
 7305WAT      O22156   2.406   1.304   4.013
 7305WAT     H122157   2.334   1.372   4.023
 7305WAT     H222158   2.495   1.346   4.030
 7306WAT      O22159   4.791   1.995   6.429
 7306WAT     H122160   4.869   1.943   6.465
 7306WAT     H222161   4.725   2.012   6.502
 7307WAT      O22162   5.910   7.536   7.868
 7307WAT     H122163   5.846   7.488   7.808
 7307WAT     H222164   5.897   7.505   7.962
 7308WAT      O22165   5.119   9.799   8.773
 7308WAT     H122166   5.158   9.890   8.786
 7308WAT     H222167   5.130   9.746   8.858
 7309WAT      O22168   4.645   0.845   6.717
 7309WAT     H122169   4.552   0.809   6.718
 7309WAT     H222170   4.668   0.882   6.807
 7310WAT      O22171   1.169   4.209   6.739
 7310WAT     H122172   1.184   4.134   6.675
 7310WAT     H222173   1.255   4.259   6.752
 7311WAT      O22174   4.717   9.145   3.750
 7311WAT     H122175   4.676   9.208   3.683
 7311WAT     H222176   4.645   9.090   3.793
 7312WAT      O22177   7.183   9.206   0.113
 7312WAT     H122178   7.131   9.198   0.028
 7312WAT     H222179   7.185   9.302   0.143
 7313WAT      O22180   4.812   1.050   2.927
 7313WAT     H122181   4.780   0.991   3.001
 7313WAT     H222182   4.823   1.143   2.962
 7314WAT      O22183   1.875   7.863   4.530
 7314WAT     H122184   1.856   7.961   4.540
 7314WAT     H222185   1.888   7.822   4.620
 7315WAT      O22186   1.502   7.841   4.907
 7315WAT     H122187   1.454   7.773   4.851
 7315WAT     H222188   1.435   7.898   4.954
 7316WAT      O22189   7.946   0.452   9.093
 7316WAT     H122190   8.040   0.479   9.074
 7316WAT     H222191   7.918   0.379   9.031
 7317WAT      O22192   6.983   5.030   6.567
 7317WAT     H122193   7.007   5.057   6.474
 7317WAT     H222194   6.896   4.981   6.566
 7318WAT      O22195   6.355   0.416   4.406
 7318WAT     H122196   6.373   0.373   4.318
 7318WAT     H222197   6.265   0.460   4.404
 7319WAT      O22198   2.119   5.129   0.302
 7319WAT     H122199   2.149   5.044   0.347
 7319WAT     H222200   2.098   5.197   0.372
 7320WAT      O22201   7.887   1.106   4.239
 7320WAT     H122202   7.850   1.034   4.180
 7320WAT     H222203   7.895   1.072   4.333
 7321WAT      O22204   1.641   2.630   8.900
 7321WAT     H122205   1.720   2.689   8.880
 7321WAT     H222206   1.646   2.599   8.995
 7322WAT      O22207   9.644   1.882   9.120
 7322WAT     H122208   9.653   1.956   9.054
 7322WAT     H222209   9.631   1.920   9.212
 7323WAT      O22210   8.003   3.667   8.495
 7323WAT     H122211   7.957   3.694   8.410
 7323WAT     H222212   7.992   3.739   8.563
 7324WAT      O22213   9.113   4.927   4.131
 7324WAT     H122214   9.187   4.884   4.079
 7324WAT     H222215   9.097   4.875   4.216
 7325WAT      O22216   5.943   6.274   5.238
 7325WAT     H122217   5.850   6.311   5.234
 7325WAT     H222218   5.980   6.288   5.330
 7326WAT      O22219   5.408   5.982   5.120
 7326WAT     H122220   5.424   5.907   5.056
 7326WAT     H222221   5.309   5.996   5.131
 7327WAT      O22222   5.209   0.807   6.353
 7327WAT     H122223   5.192   0.854   6.440
 7327WAT     H222224   5.139   0.737   6.339
 7328WAT      O22225   0.373   4.637   5.523
 7328WAT     H122226   0.314   4.649   5.443
 7328WAT     H222227   0.316   4.621   5.604
 7329WAT      O22228   5.882   6.842   1.626
 7329WAT     H122229   5.789   6.878   1.634
 7329WAT     H222230   5.880   6.742   1.629
 7330WAT      O22231   4.710   4.233   1.044
 7330WAT     H122232   4.760   4.310   1.004
 7330WAT     H222233   4.688   4.253   1.139
 7331WAT      O22234   0.282   3.364   6.633
 7331WAT     H122235   0.326   3.292   6.686
 7331WAT     H222236   0.282   3.339   6.536
 7332WAT      O22237   5.968   9.230   8.533
 7332WAT     H122238   5.929   9.260   8.446
 7332WAT     H222239   5.927   9.284   8.608
 7333WAT      O22240   4.906   0.537   5.428
 7333WAT     H122241   4.985   0.542   5.368
 7333WAT     H222242   4.936   0.527   5.523
 7334WAT      O22243   1.949   9.046   1.222
 7334WAT     H122244   1.879   9.046   1.151
 7334WAT     H222245   2.014   9.120   1.205
 7335WAT      O22246   0.732   2.521   5.560
 7335WAT     H122247   0.762   2.473   5.477
 7335WAT     H222248   0.672   2.596   5.534
 7336WAT      O22249   0.897   7.772   5.452
 7336WAT     H122250   0.904   7.869   5.429
 7336WAT     H222251   0.904   7.761   5.551
 7337WAT      O22252   6.855   5.389   2.318
 7337WAT     H122253   6.877   5.461   2.384
 7337WAT     H222254   6.889   5.301   2.353
 7338WAT      O22255   2.910   6.898   9.210
 7338WAT     H122256   2.921   6.900   9.310
 7338WAT     H222257   2.873   6.985   9.179
 7339WAT      O22258   5.923   6.580   9.619
 7339WAT     H122259   5.876   6.658   9.577
 7339WAT     H222260   6.022   6.592   9.612
 7340WAT      O22261   5.774   0.259   0.298
 7340WAT     H122262   5.733   0.168   0.308
 7340WAT     H222263   5.827   0.280   0.380
 7341WAT      O22264   2.949   0.879   7.055
 7341WAT     H122265   2.951   0.796   6.999
 7341WAT     H222266   2.868   0.878   7.113
 7342WAT      O22267   7.620   7.875   4.191
 7342WAT     H122268   7.637   7.971   4.170
 7342WAT     H222269   7.603   7.864   4.289
 7343WAT      O22270   6.367   3.244   0.861
 7343WAT     H122271   6.284   3.253   0.917
 7343WAT     H222272   6.400   3.150   0.866
 7344WAT      O22273   3.300   7.055   5.556
 7344WAT     H122274   3.247   6.989   5.609
 7344WAT     H222275   3.253   7.143   5.557
 7345WAT      O22276   7.074   1.322   5.005
 7345WAT     H122277   7.135   1.346   4.930
 7345WAT     H222278   6.990   1.376   4.997
 7346WAT      O22279   7.658   6.348   3.379
 7346WAT     H122280   7.732   6.297   3.423
 7346WAT     H222281   7.661   6.443   3.407
 7347WAT      O22282   2.042   0.950   8.221
 7347WAT     H122283   2.022   0.920   8.128
 7347WAT     H222284   1.957   0.976   8.267
 7348WAT      O22285   9.308   4.927   6.636
 7348WAT     H122286   9.331   4.902   6.542
 7348WAT     H222287   9.228   4.986   6.636
 7349WAT      O22288   5.606   6.367   9.506
 7349WAT     H122289   5.686   6.323   9.547
 7349WAT     H222290   5.524   6.315   9.527
 7350WAT      O22291   3.403   6.324   7.588
 7350WAT     H122292   3.441   6.340   7.679
 7350WAT     H222293   3.466   6.359   7.518
 7351WAT      O22294   5.384   7.831   5.135
 7351WAT     H122295   5.320   7.764   5.172
 7351WAT     H222296   5.355   7.923   5.161
 7352WAT      O22297   2.446   0.693   2.498
 7352WAT     H122298   2.521   0.699   2.564
 7352WAT     H222299   2.480   0.724   2.408
 7353WAT      O22300   3.684   7.068   5.759
 7353WAT     H122301   3.595   7.108   5.737
 7353WAT     H222302   3.673   7.000   5.832
 7354WAT      O22303   1.914   7.579   2.099
 7354WAT     H122304   1.932   7.631   2.016
 7354WAT     H222305   1.972   7.497   2.101
 7355WAT      O22306   2.579   4.446   1.985
 7355WAT     H122307   2.563   4.538   1.947
 7355WAT     H222308   2.672   4.418   1.965
 7356WAT      O22309   4.564   3.768   4.337
 7356WAT     H122310   4.508   3.686   4.324
 7356WAT     H222311   4.552   3.801   4.430
 7357WAT      O22312   8.657   7.533   3.501
 7357WAT     H122313   8.627   7.489   3.416
 7357WAT     H222314   8.594   7.511   3.575
 7358WAT      O22315   6.976   8.752   0.584
 7358WAT     H122316   6.945   8.833   0.533
 7358WAT     H222317   6.941   8.670   0.539
 7359WAT      O22318   7.740   4.793   5.586
 7359WAT     H122319   7.643   4.809   5.568
 7359WAT     H222320   7.750   4.709   5.639
 7360WAT      O22321   0.755   6.475   1.391
 7360WAT     H122322   0.845   6.492   1.350
 7360WAT     H222323   0.752   6.516   1.482
 7361WAT      O22324   1.003   1.863   4.835
 7361WAT     H122325   1.015   1.857   4.934
 7361WAT     H222326   1.090   1.882   4.791
 7362WAT      O22327   8.183   5.959   6.282
 7362WAT     H122328   8.092   5.944   6.321
 7362WAT     H222329   8.197   6.057   6.268
 7363WAT      O22330   5.956   2.225   9.767
 7363WAT     H122331   5.972   2.127   9.778
 7363WAT     H222332   6.023   2.276   9.821
 7364WAT      O22333   2.940   9.047   9.600
 7364WAT     H122334   2.848   9.021   9.629
 7364WAT     H222335   2.971   9.124   9.656
 7365WAT      O22336   8.828   8.921   4.957
 7365WAT     H122337   8.741   8.912   5.005
 7365WAT     H222338   8.899   8.870   5.006
 7366WAT      O22339   9.481   0.441   6.549
 7366WAT     H122340   9.400   0.499   6.558
 7366WAT     H222341   9.456   0.355   6.506
 7367WAT      O22342   5.671   0.311   1.745
 7367WAT     H122343   5.768   0.291   1.759
 7367WAT     H222344   5.618   0.227   1.749
 7368WAT      O22345   6.271   7.784   5.286
 7368WAT     H122346   6.297   7.698   5.330
 7368WAT     H222347   6.349   7.819   5.234
 7369WAT      O22348   2.798   5.731   4.274
 7369WAT     H122349   2.755   5.643   4.292
 7369WAT     H222350   2.896   5.724   4.288
 7370WAT      O22351   4.452   0.248   0.595
 7370WAT     H122352   4.457   0.331   0.540
 7370WAT     H222353   4.364   0.203   0.580
 7371WAT      O22354   5.975   0.753   8.850
 7371WAT     H122355   6.023   0.761   8.937
 7371WAT     H222356   5.882   0.720   8.866
 7372WAT      O22357   2.150   8.826   3.974
 7372WAT     H122358   2.098   8.889   3.916
 7372WAT     H222359   2.107   8.736   3.972
 7373WAT      O22360   9.528   0.547   9.243
 7373WAT     H122361   9.444   0.596   9.262
 7373WAT     H222362   9.583   0.540   9.326
 7374WAT      O22363   6.574   4.621   6.785
 7374WAT     H122364   6.512   4.557   6.831
 7374WAT     H222365   6.663   4.577   6.771
 7375WAT      O22366   9.499   4.276   8.734
 7375WAT     H122367   9.555   4.348   8.694
 7375WAT     H222368   9.427   4.250   8.670
 7376WAT      O22369   3.290   8.131   5.292
 7376WAT     H122370   3.256   8.218   5.257
 7376WAT     H222371   3.355   8.148   5.366
 7377WAT      O22372   6.265   2.535   3.101
 7377WAT     H122373   6.180   2.558   3.054
 7377WAT     H222374   6.259   2.442   3.139
 7378WAT      O22375   0.230   3.674   5.412
 7378WAT     H122376   0.191   3.581   5.411
 7378WAT     H222377   0.329   3.669   5.422
 7379WAT      O22378   9.864   2.107   7.855
 7379WAT     H122379   9.936   2.060   7.906
 7379WAT     H222380   9.858   2.202   7.884
 7380WAT      O22381   8.803   8.946   7.685
 7380WAT     H122382   8.863   8.941   7.605
 7380WAT     H222383   8.707   8.951   7.654
 7381WAT      O22384   2.414   1.032   4.816
 7381WAT     H122385   2.367   0.980   4.887
 7381WAT     H222386   2.478   1.097   4.859
 7382WAT      O22387   4.446   5.746   4.681
 7382WAT     H122388   4.533   5.779   4.644
 7382WAT     H222389   4.371   5.804   4.648
 7383WAT      O22390   9.163   8.081   4.072
 7383WAT     H122391   9.181   7.983   4.062
 7383WAT     H222392   9.250   8.131   4.073
 7384WAT      O22393   4.276   9.418   1.166
 7384WAT     H122394   4.179   9.425   1.189
 7384WAT     H222395   4.331   9.455   1.241
 7385WAT      O22396   0.231   8.144   2.047
 7385WAT     H122397   0.168   8.177   2.117
 7385WAT     H222398   0.230   8.044   2.046
 7386WAT      O22399   1.271   1.462   1.943
 7386WAT     H122400   1.292   1.558   1.961
 7386WAT     H222401   1.181   1.455   1.901
 7387WAT      O22402   1.063   5.136   8.710
 7387WAT     H122403   1.033   5.223   8.671
 7387WAT     H222404   1.120   5.154   8.791
 7388WAT      O22405   5.095   6.846   9.103
 7388WAT     H122406   5.049   6.905   9.170
 7388WAT     H222407   5.174   6.895   9.065
 7389WAT      O22408   5.572   8.054   9.599
 7389WAT     H122409   5.549   8.145   9.634
 7389WAT     H222410   5.637   8.010   9.661
 7390WAT      O22411   4.705   8.173   9.744
 7390WAT     H122412   4.727   8.249   9.682
 7390WAT     H222413   4.609   8.179   9.771
 7391WAT      O22414   2.187   1.626   1.256
 7391WAT     H122415   2.260   1.671   1.308
 7391WAT     H222416   2.222   1.540   1.218
 7392WAT      O22417   7.752   3.853   8.505
 7392WAT     H122418   7.695   3.835   8.586
 7392WAT     H222419   7.780   3.949   8.505
 7393WAT      O22420   1.650   1.265   3.887
 7393WAT     H122421   1.640   1.289   3.983
 7393WAT     H222422   1.593   1.326   3.831
 7394WAT      O22423   8.708   8.291   1.492
 7394WAT     H122424   8.705   8.361   1.564
 7394WAT     H222425   8.802   8.258   1.482
 7395WAT      O22426   3.241   8.307   7.327
 7395WAT     H122427   3.336   8.335   7.343
 7395WAT     H222428   3.239   8.210   7.303
 7396WAT      O22429   6.941   7.046   2.958
 7396WAT     H122430   6.887   7.127   2.983
 7396WAT     H222431   6.978   7.059   2.866
 7397WAT      O22432   2.232   4.141   7.273
 7397WAT     H122433   2.146   4.103   7.307
 7397WAT     H222434   2.235   4.239   7.293
 7398WAT      O22435   3.466   9.254   9.696
 7398WAT     H122436   3.532   9.265   9.770
 7398WAT     H222437   3.398   9.185   9.722
 7399WAT      O22438   3.111   3.152   1.826
 7399WAT     H122439   3.204   3.171   1.855
 7399WAT     H222440   3.099   3.179   1.731
 7400WAT      O22441   3.962   5.483   2.724
 7400WAT     H122442   4.023   5.547   2.770
 7400WAT     H222443   3.874   5.527   2.705
 7401WAT      O22444   3.819   5.301   8.488
 7401WAT     H122445   3.734   5.251   8.476
 7401WAT     H222446   3.807   5.395   8.456
 7402WAT      O22447   9.673   8.333   7.106
 7402WAT     H122448   9.626   8.420   7.094
 7402WAT     H222449   9.745   8.324   7.037
 7403WAT      O22450   9.799   6.183   9.295
 7403WAT     H122451   9.835   6.196   9.388
 7403WAT     H222452   9.704   6.216   9.291
 7404WAT      O22453   9.537   2.659   6.091
 7404WAT     H122454   9.605   2.683   6.021
 7404WAT     H222455   9.540   2.727   6.164
 7405WAT      O22456   1.697   0.246   7.267
 7405WAT     H122457   1.761   0.316   7.299
 7405WAT     H222458   1.643   0.283   7.191
 7406WAT      O22459   4.251   7.575   8.021
 7406WAT     H122460   4.270   7.544   7.928
 7406WAT     H222461   4.174   7.640   8.019
 7407WAT      O22462   4.722   8.491   6.149
 7407WAT     H122463   4.737   8.408   6.095
 7407WAT     H222464   4.761   8.478   6.241
 7408WAT      O22465   7.702   0.271   2.881
 7408WAT     H122466   7.614   0.314   2.859
 7408WAT     H222467   7.689   0.201   2.951
 7409WAT      O22468   3.753   8.972   6.084
 7409WAT     H122469   3.708   8.903   6.028
 7409WAT     H222470   3.705   9.059   6.075
 7410WAT      O22471   5.264   6.004   4.293
 7410WAT     H122472   5.278   6.101   4.274
 7410WAT     H222473   5.170   5.989   4.323
 7411WAT      O22474   5.758   6.091   5.846
 7411WAT     H122475   5.696   6.089   5.768
 7411WAT     H222476   5.853   6.093   5.813
 7412WAT      O22477   8.702   1.339   3.371
 7412WAT     H122478   8.765   1.268   3.406
 7412WAT     H222479   8.616   1.335   3.423
 7413WAT      O22480   8.990   2.005   2.367
 7413WAT     H122481   8.996   1.930   2.300
 7413WAT     H222482   8.979   2.091   2.318
 7414WAT      O22483   8.358   2.693   7.760
 7414WAT     H122484   8.340   2.748   7.841
 7414WAT     H222485   8.375   2.598   7.787
 7415WAT      O22486   0.387   1.268   6.088
 7415WAT     H122487   0.325   1.344   6.108
 7415WAT     H222488   0.412   1.271   5.991
 7416WAT      O22489   9.854   9.545   8.732
 7416WAT     H122490   9.927   9.587   8.786
 7416WAT     H222491   9.785   9.506   8.794
 7417WAT      O22492   1.286   3.477   5.347
 7417WAT     H122493   1.339   3.398   5.318
 7417WAT     H222494   1.322   3.512   5.434
 7418WAT      O22495   5.116   3.280   8.015
 7418WAT     H122496   5.020   3.263   7.994
 7418WAT     H222497   5.167   3.294   7.931
 7419WAT      O22498   5.723   0.534   7.690
 7419WAT     H122499   5.804   0.569   7.642
 7419WAT     H222500   5.643   0.587   7.661
 7420WAT      O22501   8.664   4.662   6.200
 7420WAT     H122502   8.637   4.754   6.173
 7420WAT     H222503   8.585   4.613   6.237
 7421WAT      O22504   5.289   7.233   4.611
 7421WAT     H122505   5.349   7.301   4.652
 7421WAT     H222506   5.334   7.144   4.609
 7422WAT      O22507   3.437   3.057   7.447
 7422WAT     H122508   3.392   3.144   7.425
 7422WAT     H222509   3.495   3.029   7.370
 7423WAT      O22510   2.046   1.157   9.294
 7423WAT     H122511   2.011   1.113   9.212
 7423WAT     H222512   2.132   1.204   9.274
 7424WAT      O22513   7.307   6.187   7.232
 7424WAT     H122514   7.340   6.151   7.319
 7424WAT     H222515   7.212   6.217   7.243
 7425WAT      O22516   2.628   3.091   5.620
 7425WAT     H122517   2.544   3.102   5.567
 7425WAT     H222518   2.685   3.021   5.577
 7426WAT      O22519   1.061   1.809   0.106
 7426WAT     H122520   1.129   1.844   0.170
 7426WAT     H222521   1.091   1.829   0.012
 7427WAT      O22522   5.752   2.326   7.754
 7427WAT     H122523   5.752   2.266   7.674
 7427WAT     H222524   5.719   2.276   7.834
 7428WAT      O22525   1.668   2.557   7.482
 7428WAT     H122526   1.661   2.472   7.428
 7428WAT     H222527   1.647   2.536   7.578
 7429WAT      O22528   5.598   1.798   2.293
 7429WAT     H122529   5.563   1.708   2.320
 7429WAT     H222530   5.597   1.859   2.373
 7430WAT      O22531   6.245   8.199   3.164
 7430WAT     H122532   6.299   8.137   3.107
 7430WAT     H222533   6.209   8.148   3.243
 7431WAT      O22534   3.184   7.131   9.431
 7431WAT     H122535   3.116   7.192   9.389
 7431WAT     H222536   3.224   7.072   9.361
 7432WAT      O22537   4.611   5.230   0.188
 7432WAT     H122538   4.625   5.284   0.105
 7432WAT     H222539   4.572   5.141   0.164
 7433WAT      O22540   5.696   3.231   2.022
 7433WAT     H122541   5.783   3.237   2.072
 7433WAT     H222542   5.714   3.230   1.924
 7434WAT      O22543   0.517   3.048   6.944
 7434WAT     H122544   0.565   2.970   6.906
 7434WAT     H222545   0.571   3.089   7.017
 7435WAT      O22546   1.781   7.449   4.236
 7435WAT     H122547   1.743   7.538   4.210
 7435WAT     H222548   1.833   7.412   4.159
 7436WAT      O22549   9.255   9.384   7.326
 7436WAT     H122550   9.240   9.476   7.290
 7436WAT     H222551   9.173   9.353   7.375
 7437WAT      O22552   2.419   5.377   7.329
 7437WAT     H122553   2.503   5.376   7.276
 7437WAT     H222554   2.386   5.284   7.342
 7438WAT      O22555   8.659   3.686   1.351
 7438WAT     H122556   8.695   3.723   1.436
 7438WAT     H222557   8.735   3.663   1.290
 7439WAT      O22558   5.343   7.872   4.843
 7439WAT     H122559   5.349   7.817   4.927
 7439WAT     H222560   5.266   7.935   4.849
 7440WAT      O22561   4.675   7.568   8.125
 7440WAT     H122562   4.651   7.568   8.028
 7440WAT     H222563   4.742   7.496   8.143
 7441WAT      O22564   2.801   2.114   6.208
 7441WAT     H122565   2.778   2.018   6.227
 7441WAT     H222566   2.806   2.164   6.294
 7442WAT      O22567   3.727   3.491   2.673
 7442WAT     H122568   3.820   3.462   2.696
 7442WAT     H222569   3.669   3.410   2.662
 7443WAT      O22570   6.544   3.042   2.657
 7443WAT     H122571   6.574   3.136   2.674
 7443WAT     H222572   6.582   3.010   2.570
 7444WAT      O22573   8.481   3.422   6.283
 7444WAT     H122574   8.406   3.431   6.348
 7444WAT     H222575   8.446   3.427   6.190
 7445WAT      O22576   6.914   6.088   1.915
 7445WAT     H122577   6.904   6.179   1.955
 7445WAT     H222578   6.874   6.087   1.823
 7446WAT      O22579   2.136   6.860   4.982
 7446WAT     H122580   2.211   6.794   4.987
 7446WAT     H222581   2.173   6.952   4.975
 7447WAT      O22582   9.248   6.663   3.551
 7447WAT     H122583   9.263   6.759   3.525
 7447WAT     H222584   9.240   6.656   3.650
 7448WAT      O22585   1.829   7.297   9.399
 7448WAT     H122586   1.771   7.300   9.480
 7448WAT     H222587   1.831   7.204   9.362
 7449WAT      O22588   1.486   2.054   4.221
 7449WAT     H122589   1.513   1.958   4.227
 7449WAT     H222590   1.475   2.091   4.314
 7450WAT      O22591   4.137   2.854   6.367
 7450WAT     H122592   4.233   2.833   6.345
 7450WAT     H222593   4.081   2.840   6.286
 7451WAT      O22594   1.861   4.997   3.094
 7451WAT     H122595   1.856   4.918   3.155
 7451WAT     H222596   1.951   5.039   3.101
 7452WAT      O22597   6.830   0.010   1.137
 7452WAT     H122598   6.795   0.104   1.136
 7452WAT     H222599   6.930   0.012   1.145
 7453WAT      O22600   2.626   7.543   5.926
 7453WAT     H122601   2.585   7.491   6.001
 7453WAT     H222602   2.565   7.541   5.847
 7454WAT      O22603   1.838   8.365   4.208
 7454WAT     H122604   1.877   8.273   4.207
 7454WAT     H222605   1.903   8.428   4.250
 7455WAT      O22606   2.015   7.148   9.077
 7455WAT     H122607   1.943   7.084   9.103
 7455WAT     H222608   1.980   7.242   9.086
 7456WAT      O22609   7.834   5.198   6.639
 7456WAT     H122610   7.841   5.200   6.539
 7456WAT     H222611   7.907   5.254   6.678
 7457WAT      O22612   5.858   1.817   0.282
 7457WAT     H122613   5.759   1.826   0.277
 7457WAT     H222614   5.891   1.863   0.365
 7458WAT      O22615   1.434   3.306   9.439
 7458WAT     H122616   1.464   3.225   9.488
 7458WAT     H222617   1.370   3.280   9.367
 7459WAT      O22618   0.145   9.015   3.005
 7459WAT     H122619   0.235   9.015   3.049
 7459WAT     H222620   0.078   8.973   3.066
 7460WAT      O22621   3.892   0.427   3.054
 7460WAT     H122622   3.964   0.408   3.120
 7460WAT     H222623   3.901   0.365   2.976
 7461WAT      O22624   7.356   2.590   5.734
 7461WAT     H122625   7.293   2.512   5.733
 7461WAT     H222626   7.319   2.661   5.794
 7462WAT      O22627   2.699   9.127   3.788
 7462WAT     H122628   2.628   9.124   3.858
 7462WAT     H222629   2.680   9.202   3.725
 7463WAT      O22630   8.633   6.755   1.892
 7463WAT     H122631   8.596   6.752   1.799
 7463WAT     H222632   8.681   6.841   1.906
 7464WAT      O22633   5.220   1.425   6.008
 7464WAT     H122634   5.245   1.366   5.931
 7464WAT     H222635   5.192   1.515   5.973
 7465WAT      O22636   1.843   6.979   4.625
 7465WAT     H122637   1.800   6.981   4.534
 7465WAT     H222638   1.774   7.001   4.694
 7466WAT      O22639   7.597   0.849   4.521
 7466WAT     H122640   7.537   0.786   4.569
 7466WAT     H222641   7.674   0.798   4.482
 7467WAT      O22642   4.269   6.504   9.065
 7467WAT     H122643   4.188   6.562   9.072
 7467WAT     H222644   4.328   6.519   9.144
 7468WAT      O22645   8.431   0.469   9.687
 7468WAT     H122646   8.356   0.495   9.626
 7468WAT     H222647   8.434   0.370   9.694
 7469WAT      O22648   4.519   4.080   0.947
 7469WAT     H122649   4.564   4.036   0.870
 7469WAT     H222650   4.582   4.145   0.990
 7470WAT      O22651   2.650   7.515   2.986
 7470WAT     H122652   2.607   7.592   3.033
 7470WAT     H222653   2.746   7.509   3.015
 7471WAT      O22654   9.296   9.277   2.811
 7471WAT     H122655   9.251   9.195   2.776
 7471WAT     H222656   9.270   9.356   2.756
 7472WAT      O22657   3.920   5.705   5.690
 7472WAT     H122658   3.981   5.677   5.764
 7472WAT     H222659   3.840   5.646   5.689
 7473WAT      O22660   5.445   1.966   6.560
 7473WAT     H122661   5.500   1.933   6.637
 7473WAT     H222662   5.354   1.924   6.563
 7474WAT      O22663   2.056   4.887   4.613
 7474WAT     H122664   2.030   4.932   4.698
 7474WAT     H222665   2.153   4.904   4.594
 7475WAT      O22666   7.167   6.262   4.798
 7475WAT     H122667   7.150   6.167   4.771
 7475WAT     H222668   7.232   6.263   4.875
 7476WAT      O22669   1.743   3.910   0.184
 7476WAT     H122670   1.696   3.888   0.098
 7476WAT     H222671   1.768   4.007   0.185
 7477WAT      O22672   3.257   3.402   4.663
 7477WAT     H122673   3.271   3.452   4.577
 7477WAT     H222674   3.173   3.349   4.657
 7478WAT      O22675   5.240   3.013   9.678
 7478WAT     H122676   5.261   3.070   9.758
 7478WAT     H222677   5.204   2.925   9.709
 7479WAT      O22678   4.909   0.819   1.626
 7479WAT     H122679   4.953   0.821   1.536
 7479WAT     H222680   4.819   0.862   1.619
 7480WAT      O22681   6.511   5.034   3.995
 7480WAT     H122682   6.421   5.078   3.992
 7480WAT     H222683   6.582   5.104   4.004
 7481WAT      O22684   9.550   2.148   1.803
 7481WAT     H122685   9.565   2.083   1.878
 7481WAT     H222686   9.473   2.207   1.824
 7482WAT      O22687   0.974   1.015   8.493
 7482WAT     H122688   0.922   1.037   8.575
 7482WAT     H222689   0.969   0.916   8.476
 7483WAT      O22690   8.112   6.260   2.936
 7483WAT     H122691   8.020   6.294   2.915
 7483WAT     H222692   8.146   6.305   3.018
 7484WAT      O22693   0.349   0.980   3.097
 7484WAT     H122694   0.354   1.078   3.113
 7484WAT     H222695   0.303   0.936   3.173
 7485WAT      O22696   6.197   0.060   5.532
 7485WAT     H122697   6.286   0.103   5.517
 7485WAT     H222698   6.201  -0.035   5.501
 7486WAT      O22699   3.552   2.954   0.987
 7486WAT     H122700   3.589   2.935   0.896
 7486WAT     H222701   3.452   2.959   0.982
 7487WAT      O22702   8.866   7.908   0.391
 7487WAT     H122703   8.823   7.956   0.467
 7487WAT     H222704   8.886   7.814   0.419
 7488WAT      O22705   0.398   5.050   1.067
 7488WAT     H122706   0.394   5.122   1.137
 7488WAT     H222707   0.311   5.048   1.018
 7489WAT      O22708   5.984   7.120   9.744
 7489WAT     H122709   6.039   7.127   9.828
 7489WAT     H222710   5.923   7.198   9.738
 7490WAT      O22711   6.006   2.254   8.674
 7490WAT     H122712   5.963   2.331   8.722
 7490WAT     H222713   6.037   2.186   8.740
 7491WAT      O22714   3.890   1.729   3.977
 7491WAT     H122715   3.820   1.738   4.047
 7491WAT     H222716   3.979   1.716   4.021
 7492WAT      O22717   2.937   3.580   8.346
 7492WAT     H122718   3.034   3.581   8.323
 7492WAT     H222719   2.896   3.494   8.316
 7493WAT      O22720   2.956   5.887   1.889
 7493WAT     H122721   2.858   5.901   1.881
 7493WAT     H222722   2.975   5.820   1.961
 7494WAT      O22723   6.466   7.512   0.938
 7494WAT     H122724   6.543   7.559   0.981
 7494WAT     H222725   6.466   7.531   0.840
 7495WAT      O22726   2.852   8.306   5.123
 7495WAT     H122727   2.860   8.327   5.220
 7495WAT     H222728   2.915   8.363   5.071
 7496WAT      O22729   3.866   6.151   8.821
 7496WAT     H122730   3.865   6.162   8.721
 7496WAT     H222731   3.773   6.130   8.853
 7497WAT      O22732   2.880   1.645   6.398
 7497WAT     H122733   2.927   1.734   6.392
 7497WAT     H222734   2.927   1.587   6.464
 7498WAT      O22735   3.919   3.506   1.314
 7498WAT     H122736   3.934   3.577   1.382
 7498WAT     H222737   3.936   3.416   1.354
 7499WAT      O22738   0.463   9.023   7.747
 7499WAT     H122739   0.559   9.014   7.723
 7499WAT     H222740   0.423   9.099   7.696
 7500WAT      O22741   6.639   6.883   0.084
 7500WAT     H122742   6.638   6.981   0.063
 7500WAT     H222743   6.628   6.830   0.000
 7501WAT      O22744   7.332   6.495   2.380
 7501WAT     H122745   7.424   6.493   2.418
 7501WAT     H222746   7.312   6.408   2.335
 7502WAT      O22747   9.512   3.819   7.964
 7502WAT     H122748   9.526   3.897   8.026
 7502WAT     H222749   9.541   3.735   8.008
 7503WAT      O22750   9.570   1.111   9.841
 7503WAT     H122751   9.613   1.063   9.917
 7503WAT     H222752   9.635   1.116   9.764
 7504WAT      O22753   2.887   1.373   4.197
 7504WAT     H122754   2.960   1.426   4.153
 7504WAT     H222755   2.922   1.331   4.281
 7505WAT      O22756   1.847   8.998   0.449
 7505WAT     H122757   1.834   9.043   0.537
 7505WAT     H222758   1.916   9.048   0.396
 7506WAT      O22759   4.652   1.515   1.769
 7506WAT     H122760   4.668   1.461   1.686
 7506WAT     H222761   4.736   1.561   1.795
 7507WAT      O22762   4.845   7.871   9.331
 7507WAT     H122763   4.790   7.948   9.363
 7507WAT     H222764   4.801   7.830   9.250
 7508WAT      O22765   8.743   1.662   4.005
 7508WAT     H122766   8.809   1.591   3.982
 7508WAT     H222767   8.652   1.622   4.012
 7509WAT      O22768   5.013   1.972   4.481
 7509WAT     H122769   5.049   1.885   4.449
 7509WAT     H222770   4.921   1.959   4.518
 7510WAT      O22771   7.174   3.492   9.839
 7510WAT     H122772   7.128   3.534   9.761
 7510WAT     H222773   7.167   3.553   9.918
 7511WAT      O22774   8.023   0.947   7.499
 7511WAT     H122775   8.053   1.042   7.487
 7511WAT     H222776   8.050   0.893   7.419
 7512WAT      O22777   8.311   8.680   8.509
 7512WAT     H122778   8.395   8.667   8.456
 7512WAT     H222779   8.327   8.653   8.604
 7513WAT      O22780   0.473   1.538   8.805
 7513WAT     H122781   0.541   1.605   8.778
 7513WAT     H222782   0.497   1.500   8.894
 7514WAT      O22783   0.728   5.780   7.990
 7514WAT     H122784   0.797   5.825   7.933
 7514WAT     H222785   0.706   5.838   8.068
 7515WAT      O22786   6.470   4.368   2.820
 7515WAT     H122787   6.489   4.333   2.912
 7515WAT     H222788   6.488   4.467   2.818
 7516WAT      O22789   7.290   0.940   9.800
 7516WAT     H122790   7.340   0.944   9.886
 7516WAT     H222791   7.214   1.005   9.802
 7517WAT      O22792   9.346   6.555   2.952
 7517WAT     H122793   9.364   6.504   2.867
 7517WAT     H222794   9.431   6.596   2.985
 7518WAT      O22795   4.370   9.582   6.546
 7518WAT     H122796   4.447   9.635   6.581
 7518WAT     H222797   4.290   9.642   6.539
 7519WAT      O22798   3.390   4.564   0.398
 7519WAT     H122799   3.295   4.579   0.426
 7519WAT     H222800   3.392   4.502   0.319
 7520WAT      O22801   0.409   4.740   0.549
 7520WAT     H122802   0.434   4.837   0.550
 7520WAT     H222803   0.316   4.730   0.514
 7521WAT      O22804   0.485   7.875   3.641
 7521WAT     H122805   0.574   7.836   3.618
 7521WAT     H222806   0.422   7.801   3.667
 7522WAT      O22807   3.057   2.461   2.348
 7522WAT     H122808   3.089   2.367   2.352
 7522WAT     H222809   2.996   2.472   2.269
 7523WAT      O22810   9.413   6.849   8.907
 7523WAT     H122811   9.459   6.909   8.841
 7523WAT     H222812   9.469   6.840   8.989
 7524WAT      O22813   7.681   1.846   0.930
 7524WAT     H122814   7.709   1.812   1.019
 7524WAT     H222815   7.646   1.940   0.940
 7525WAT      O22816   6.111   6.934   5.328
 7525WAT     H122817   6.023   6.975   5.352
 7525WAT     H222818   6.103   6.834   5.332
 7526WAT      O22819   2.929   7.304   8.527
 7526WAT     H122820   2.924   7.263   8.618
 7526WAT     H222821   3.025   7.320   8.504
 7527WAT      O22822   5.851   0.175   7.288
 7527WAT     H122823   5.928   0.112   7.278
 7527WAT     H222824   5.802   0.182   7.201
 7528WAT      O22825   4.872   8.490   2.797
 7528WAT     H122826   4.951   8.542   2.827
 7528WAT     H222827   4.832   8.442   2.875
 7529WAT      O22828   4.689   2.540   9.432
 7529WAT     H122829   4.640   2.625   9.446
 7529WAT     H222830   4.626   2.470   9.399
 7530WAT      O22831   7.260   0.577   6.805
 7530WAT     H122832   7.311   0.570   6.890
 7530WAT     H222833   7.323   0.599   6.730
 7531WAT      O22834   4.888   2.910   4.288
 7531WAT     H122835   4.817   2.934   4.222
 7531WAT     H222836   4.872   2.817   4.321
 7532WAT      O22837   4.762   0.876   4.638
 7532WAT     H122838   4.678   0.850   4.589
 7532WAT     H222839   4.767   0.976   4.644
 7533WAT      O22840   5.902   4.117   9.649
 7533WAT     H122841   5.835   4.064   9.597
 7533WAT     H222842   5.987   4.123   9.598
 7534WAT      O22843   2.024   5.704   6.402
 7534WAT     H122844   2.075   5.786   6.426
 7534WAT     H222845   1.930   5.728   6.379
 7535WAT      O22846   6.614   8.988   5.076
 7535WAT     H122847   6.613   9.087   5.063
 7535WAT     H222848   6.542   8.946   5.020
 7536WAT      O22849   1.029   2.514   3.312
 7536WAT     H122850   0.971   2.472   3.242
 7536WAT     H222851   1.094   2.576   3.269
 7537WAT      O22852   7.163   6.907   3.090
 7537WAT     H122853   7.107   6.989   3.081
 7537WAT     H222854   7.148   6.867   3.180
 7538WAT      O22855   7.940   7.537   6.053
 7538WAT     H122856   8.022   7.487   6.079
 7538WAT     H222857   7.860   7.491   6.091
 7539WAT      O22858   3.592   8.669   2.568
 7539WAT     H122859   3.524   8.647   2.637
 7539WAT     H222860   3.632   8.759   2.586
 7540WAT      O22861   1.728   9.762   7.868
 7540WAT     H122862   1.746   9.678   7.920
 7540WAT     H222863   1.801   9.777   7.802
 7541WAT      O22864   7.477   1.021   6.381
 7541WAT     H122865   7.427   0.998   6.464
 7541WAT     H222866   7.414   1.058   6.313
 7542WAT      O22867   2.855   5.898   5.481
 7542WAT     H122868   2.759   5.874   5.474
 7542WAT     H222869   2.906   5.823   5.523
 7543WAT      O22870   9.437   3.828   6.611
 7543WAT     H122871   9.487   3.898   6.560
 7543WAT     H222872   9.497   3.751   6.629
 7544WAT      O22873   2.718   2.848   6.230
 7544WAT     H122874   2.626   2.846   6.269
 7544WAT     H222875   2.768   2.766   6.259
 7545WAT      O22876   2.598   7.773   9.300
 7545WAT     H122877   2.697   7.782   9.305
 7545WAT     H222878   2.575   7.684   9.259
 7546WAT      O22879   9.824   0.279   2.578
 7546WAT     H122880   9.916   0.290   2.616
 7546WAT     H222881   9.761   0.343   2.623
 7547WAT      O22882   0.069   6.893   1.867
 7547WAT     H122883   0.163   6.926   1.871
 7547WAT     H222884   0.017   6.947   1.801
 7548WAT      O22885   7.470   3.968   5.940
 7548WAT     H122886   7.512   4.039   5.883
 7548WAT     H222887   7.380   3.945   5.904
 7549WAT      O22888   3.550   5.119   9.396
 7549WAT     H122889   3.566   5.180   9.319
 7549WAT     H222890   3.479   5.053   9.372
 7550WAT      O22891   3.372   6.850   1.534
 7550WAT     H122892   3.465   6.813   1.541
 7550WAT     H222893   3.355   6.910   1.613
 7551WAT      O22894   6.570   1.105   6.530
 7551WAT     H122895   6.501   1.079   6.462
 7551WAT     H222896   6.525   1.126   6.617
 7552WAT      O22897   8.549   4.613   0.942
 7552WAT     H122898   8.512   4.520   0.940
 7552WAT     H222899   8.546   4.651   0.850
 7553WAT      O22900   2.734   9.729   0.486
 7553WAT     H122901   2.671   9.651   0.491
 7553WAT     H222902   2.699   9.795   0.420
 7554WAT      O22903   4.085   6.456   3.919
 7554WAT     H122904   4.143   6.534   3.944
 7554WAT     H222905   4.018   6.485   3.850
 7555WAT      O22906   4.680   8.260   2.992
 7555WAT     H122907   4.775   8.262   3.024
 7555WAT     H222908   4.678   8.237   2.895
 7556WAT      O22909   2.562   1.571   1.267
 7556WAT     H122910   2.504   1.601   1.343
 7556WAT     H222911   2.643   1.629   1.261
 7557WAT      O22912   7.669   4.270   4.033
 7557WAT     H122913   7.659   4.224   4.121
 7557WAT     H222914   7.622   4.359   4.036
 7558WAT      O22915   6.196   7.462   6.994
 7558WAT     H122916   6.125   7.398   6.964
 7558WAT     H222917   6.161   7.555   6.990
 7559WAT      O22918   8.796   0.390   5.666
 7559WAT     H122919   8.837   0.306   5.632
 7559WAT     H222920   8.801   0.461   5.596
 7560WAT      O22921   2.822   0.781   7.508
 7560WAT     H122922   2.801   0.801   7.603
 7560WAT     H222923   2.889   0.708   7.503
 7561WAT      O22924   1.959   3.601   1.076
 7561WAT     H122925   1.965   3.598   0.976
 7561WAT     H222926   1.930   3.692   1.105
 7562WAT      O22927   7.544   8.384   0.365
 7562WAT     H122928   7.573   8.414   0.274
 7562WAT     H222929   7.555   8.285   0.372
 7563WAT      O22930   5.819   0.012   8.506
 7563WAT     H122931   5.812   0.111   8.515
 7563WAT     H222932   5.730  -0.030   8.521
 7564WAT      O22933   8.302   9.608   1.074
 7564WAT     H122934   8.283   9.706   1.080
 7564WAT     H222935   8.400   9.595   1.058
 7565WAT      O22936   8.560   5.102   5.691
 7565WAT     H122937   8.464   5.096   5.666
 7565WAT     H222938   8.617   5.101   5.608
 7566WAT      O22939   0.709   7.399   0.273
 7566WAT     H122940   0.699   7.387   0.372
 7566WAT     H222941   0.621   7.380   0.229
 7567WAT      O22942   1.788   6.897   2.273
 7567WAT     H122943   1.829   6.987   2.289
 7567WAT     H222944   1.772   6.885   2.175
 7568WAT      O22945   9.865   2.991   5.828
 7568WAT     H122946   9.803   3.050   5.777
 7568WAT     H222947   9.934   3.047   5.874
 7569WAT      O22948   5.947   1.396   0.179
 7569WAT     H122949   6.046   1.380   0.189
 7569WAT     H222950   5.928   1.422   0.084
 7570WAT      O22951   3.085   7.373   3.513
 7570WAT     H122952   3.129   7.451   3.558
 7570WAT     H222953   3.008   7.342   3.569
 7571WAT      O22954   2.181   0.633   7.338
 7571WAT     H122955   2.227   0.665   7.420
 7571WAT     H222956   2.230   0.555   7.300
 7572WAT      O22957   2.014   1.900   4.338
 7572WAT     H122958   2.083   1.946   4.393
 7572WAT     H222959   1.948   1.855   4.398
 7573WAT      O22960   9.191   4.052   4.419
 7573WAT     H122961   9.282   4.066   4.381
 7573WAT     H222962   9.123   4.098   4.362
 7574WAT      O22963   7.745   8.102   6.567
 7574WAT     H122964   7.734   8.077   6.471
 7574WAT     H222965   7.761   8.200   6.573
 7575WAT      O22966   5.483   1.338   1.944
 7575WAT     H122967   5.428   1.405   1.995
 7575WAT     H222968   5.465   1.347   1.846
 7576WAT      O22969   8.832   7.446   7.476
 7576WAT     H122970   8.902   7.479   7.539
 7576WAT     H222971   8.741   7.473   7.510
 7577WAT      O22972   2.244   6.939   4.336
 7577WAT     H122973   2.214   6.883   4.413
 7577WAT     H222974   2.172   7.005   4.313
 7578WAT      O22975   9.604   0.913   1.562
 7578WAT     H122976   9.676   0.962   1.612
 7578WAT     H222977   9.628   0.816   1.556
 7579WAT      O22978   0.889   5.821   0.750
 7579WAT     H122979   0.862   5.888   0.681
 7579WAT     H222980   0.837   5.837   0.835
 7580WAT      O22981   0.132   7.792   3.220
 7580WAT     H122982   0.153   7.803   3.123
 7580WAT     H222983   0.135   7.695   3.245
 7581WAT      O22984   8.583   7.707   1.141
 7581WAT     H122985   8.499   7.737   1.186
 7581WAT     H222986   8.619   7.627   1.189
 7582WAT      O22987   8.617   9.735   3.829
 7582WAT     H122988   8.690   9.685   3.783
 7582WAT     H222989   8.535   9.678   3.833
 7583WAT      O22990   4.719   3.758   8.706
 7583WAT     H122991   4.802   3.779   8.654
 7583WAT     H222992   4.743   3.746   8.803
 7584WAT      O22993   8.981   6.747   7.134
 7584WAT     H122994   9.051   6.728   7.064
 7584WAT     H222995   8.973   6.846   7.146
 7585WAT      O22996   2.728   8.205   2.437
 7585WAT     H122997   2.662   8.266   2.392
 7585WAT     H222998   2.689   8.113   2.443
 7586WAT      O22999   1.314   7.331   3.041
 7586WAT     H123000   1.221   7.367   3.045
 7586WAT     H223001   1.373   7.383   3.102
 7587WAT      O23002   9.275   9.631   3.100
 7587WAT     H123003   9.342   9.679   3.043
 7587WAT     H223004   9.294   9.533   3.097
 7588WAT      O23005   1.239   5.470   8.713
 7588WAT     H123006   1.307   5.499   8.781
 7588WAT     H223007   1.275   5.394   8.660
 7589WAT      O23008   2.443   7.058   0.485
 7589WAT     H123009   2.350   7.060   0.521
 7589WAT     H223010   2.503   7.013   0.551
 7590WAT      O23011   3.936   2.551   2.993
 7590WAT     H123012   3.864   2.550   2.924
 7590WAT     H223013   4.017   2.597   2.957
 7591WAT      O23014   0.917   4.923   8.617
 7591WAT     H123015   0.969   5.005   8.641
 7591WAT     H223016   0.980   4.848   8.594
 7592WAT      O23017   8.010   3.470   9.252
 7592WAT     H123018   7.982   3.565   9.265
 7592WAT     H223019   8.095   3.467   9.201
 7593WAT      O23020   4.967   3.574   1.707
 7593WAT     H123021   4.930   3.655   1.753
 7593WAT     H223022   4.897   3.535   1.647
 7594WAT      O23023   9.653   4.664   0.906
 7594WAT     H123024   9.733   4.635   0.959
 7594WAT     H223025   9.606   4.738   0.954
 7595WAT      O23026   0.013   2.322   0.797
 7595WAT     H123027   0.050   2.343   0.706
 7595WAT     H223028  -0.011   2.225   0.802
 7596WAT      O23029   1.623   4.178   5.520
 7596WAT     H123030   1.618   4.181   5.619
 7596WAT     H223031   1.596   4.267   5.482
 7597WAT      O23032   9.102   5.977   7.463
 7597WAT     H123033   9.191   6.022   7.455
 7597WAT     H223034   9.073   5.976   7.559
 7598WAT      O23035   4.051   1.353   9.436
 7598WAT     H123036   3.970   1.295   9.442
 7598WAT     H223037   4.047   1.423   9.507
 7599WAT      O23038   5.030   8.431   7.365
 7599WAT     H123039   4.971   8.352   7.382
 7599WAT     H223040   4.975   8.505   7.327
 7600WAT      O23041   1.308   1.539   8.014
 7600WAT     H123042   1.237   1.470   8.025
 7600WAT     H223043   1.275   1.627   8.048
 7601WAT      O23044   1.244   0.318   8.107
 7601WAT     H123045   1.326   0.260   8.098
 7601WAT     H223046   1.255   0.400   8.052
 7602WAT      O23047   3.542   5.408   4.781
 7602WAT     H123048   3.473   5.472   4.748
 7602WAT     H223049   3.585   5.444   4.864
 7603WAT      O23050   5.584   7.004   2.372
 7603WAT     H123051   5.501   7.054   2.345
 7603WAT     H223052   5.592   7.005   2.472
 7604WAT      O23053   1.574   8.691   8.290
 7604WAT     H123054   1.530   8.685   8.379
 7604WAT     H223055   1.588   8.787   8.266
 7605WAT      O23056   6.790   2.199   5.477
 7605WAT     H123057   6.732   2.229   5.401
 7605WAT     H223058   6.880   2.174   5.443
 7606WAT      O23059   4.314   2.954   0.940
 7606WAT     H123060   4.329   3.046   0.906
 7606WAT     H223061   4.239   2.911   0.889
 7607WAT      O23062   7.447   9.233   8.389
 7607WAT     H123063   7.547   9.243   8.392
 7607WAT     H223064   7.405   9.323   8.388
 7608WAT      O23065   5.701   3.580   6.812
 7608WAT     H123066   5.639   3.628   6.750
 7608WAT     H223067   5.795   3.592   6.781
 7609WAT      O23068   8.929   3.366   7.734
 7609WAT     H123069   8.961   3.328   7.821
 7609WAT     H223070   8.995   3.434   7.701
 7610WAT      O23071   0.413   3.886   8.259
 7610WAT     H123072   0.415   3.926   8.350
 7610WAT     H223073   0.413   3.960   8.191
 7611WAT      O23074   0.162   6.004   1.956
 7611WAT     H123075   0.126   6.036   1.869
 7611WAT     H223076   0.193   6.082   2.010
 7612WAT      O23077   5.030   5.993   0.954
 7612WAT     H123078   5.113   5.955   0.996
 7612WAT     H223079   4.954   5.930   0.970
 7613WAT      O23080   6.551   3.394   0.218
 7613WAT     H123081   6.591   3.445   0.294
 7613WAT     H223082   6.625   3.351   0.165
 7614WAT      O23083   5.756   8.160   2.298
 7614WAT     H123084   5.743   8.070   2.338
 7614WAT     H223085   5.718   8.161   2.205
 7615WAT      O23086   7.580   0.666   6.146
 7615WAT     H123087   7.623   0.747   6.187
 7615WAT     H223088   7.594   0.587   6.206
 7616WAT      O23089   3.994   5.085   6.666
 7616WAT     H123090   3.933   5.162   6.687
 7616WAT     H223091   4.072   5.087   6.728
 7617WAT      O23092   7.983   7.353   8.788
 7617WAT     H123093   7.887   7.379   8.804
 7617WAT     H223094   7.992   7.254   8.799
 7618WAT      O23095   3.928   6.272   2.884
 7618WAT     H123096   3.960   6.322   2.964
 7618WAT     H223097   3.853   6.212   2.909
 7619WAT      O23098   8.678   5.133   8.773
 7619WAT     H123099   8.739   5.173   8.842
 7619WAT     H223100   8.634   5.051   8.809
 7620WAT      O23101   8.308   5.174   0.599
 7620WAT     H123102   8.255   5.198   0.517
 7620WAT     H223103   8.245   5.155   0.675
 7621WAT      O23104   2.278   5.133   1.995
 7621WAT     H123105   2.337   5.073   1.941
 7621WAT     H223106   2.327   5.218   2.015
 7622WAT      O23107   3.401   2.304   6.305
 7622WAT     H123108   3.446   2.331   6.390
 7622WAT     H223109   3.306   2.333   6.307
 7623WAT      O23110   6.469   3.844   1.915
 7623WAT     H123111   6.548   3.880   1.964
 7623WAT     H223112   6.478   3.864   1.817
 7624WAT      O23113   8.715   3.619   6.341
 7624WAT     H123114   8.709   3.711   6.301
 7624WAT     H223115   8.627   3.573   6.330
 7625WAT      O23116   9.789   3.128   2.270
 7625WAT     H123117   9.748   3.037   2.266
 7625WAT     H223118   9.768   3.177   2.185
 7626WAT      O23119   8.703   7.104   3.661
 7626WAT     H123120   8.632   7.146   3.718
 7626WAT     H223121   8.666   7.087   3.570
 7627WAT      O23122   9.053   7.320   6.566
 7627WAT     H123123   8.978   7.256   6.553
 7627WAT     H223124   9.099   7.299   6.653
 7628WAT      O23125   9.079   6.786   8.386
 7628WAT     H123126   8.980   6.795   8.373
 7628WAT     H223127   9.126   6.825   8.307
 7629WAT      O23128   7.479   1.037   4.946
 7629WAT     H123129   7.462   1.116   4.888
 7629WAT     H223130   7.547   1.060   5.015
 7630WAT      O23131   6.068   2.190   0.426
 7630WAT     H123132   6.136   2.126   0.390
 7630WAT     H223133   6.029   2.242   0.350
 7631WAT      O23134   9.699   1.515   6.444
 7631WAT     H123135   9.655   1.598   6.479
 7631WAT     H223136   9.794   1.512   6.476
 7632WAT      O23137   6.271   3.936   4.348
 7632WAT     H123138   6.222   4.022   4.334
 7632WAT     H223139   6.370   3.953   4.345
 7633WAT      O23140   0.879   6.312   2.228
 7633WAT     H123141   0.807   6.373   2.196
 7633WAT     H223142   0.854   6.217   2.209
 7634WAT      O23143   4.261   3.540   6.647
 7634WAT     H123144   4.338   3.600   6.625
 7634WAT     H223145   4.205   3.527   6.565
 7635WAT      O23146   5.008   7.850   9.550
 7635WAT     H123147   4.942   7.870   9.478
 7635WAT     H223148   5.069   7.929   9.562
 7636WAT      O23149   2.082   5.955   8.067
 7636WAT     H123150   2.155   6.001   8.118
 7636WAT     H223151   2.085   5.857   8.085
 7637WAT      O23152   6.811   8.566   5.385
 7637WAT     H123153   6.777   8.472   5.383
 7637WAT     H223154   6.853   8.589   5.298
 7638WAT      O23155   0.996   2.659   2.388
 7638WAT     H123156   0.898   2.668   2.404
 7638WAT     H223157   1.042   2.641   2.474
 7639WAT      O23158   9.692   5.586   4.272
 7639WAT     H123159   9.715   5.518   4.202
 7639WAT     H223160   9.593   5.587   4.286
 7640WAT      O23161   5.224   5.747   0.386
 7640WAT     H123162   5.277   5.668   0.354
 7640WAT     H223163   5.146   5.716   0.439
 7641WAT      O23164   5.792   0.831   3.668
 7641WAT     H123165   5.815   0.881   3.585
 7641WAT     H223166   5.868   0.770   3.692
 7642WAT      O23167   8.742   1.735   3.332
 7642WAT     H123168   8.698   1.664   3.277
 7642WAT     H223169   8.675   1.774   3.396
 7643WAT      O23170   9.069   0.314   5.317
 7643WAT     H123171   9.096   0.226   5.357
 7643WAT     H223172   8.972   0.311   5.293
 7644WAT      O23173   0.306   2.079   0.811
 7644WAT     H123174   0.320   2.071   0.910
 7644WAT     H223175   0.276   1.990   0.774
 7645WAT      O23176   4.001   1.211   5.499
 7645WAT     H123177   4.097   1.234   5.484
 7645WAT     H223178   3.944   1.267   5.439
 7646WAT      O23179   7.830   8.718   4.356
 7646WAT     H123180   7.751   8.666   4.324
 7646WAT     H223181   7.808   8.763   4.443
 7647WAT      O23182   7.458   3.894   2.270
 7647WAT     H123183   7.458   3.988   2.235
 7647WAT     H223184   7.412   3.834   2.204
 7648WAT      O23185   1.544   8.660   7.157
 7648WAT     H123186   1.518   8.755   7.171
 7648WAT     H223187   1.494   8.602   7.222
 7649WAT      O23188   0.841   5.189   0.227
 7649WAT     H123189   0.882   5.253   0.162
 7649WAT     H223190   0.773   5.237   0.283
 7650WAT      O23191   1.217   5.426   2.571
 7650WAT     H123192   1.149   5.377   2.624
 7650WAT     H223193   1.307   5.417   2.614
 7651WAT      O23194   8.852   7.332   1.590
 7651WAT     H123195   8.819   7.373   1.675
 7651WAT     H223196   8.950   7.347   1.581
 7652WAT      O23197   4.122   7.905   9.649
 7652WAT     H123198   4.072   7.888   9.564
 7652WAT     H223199   4.215   7.868   9.642
 7653WAT      O23200   2.876   5.325   4.216
 7653WAT     H123201   2.886   5.227   4.232
 7653WAT     H223202   2.855   5.341   4.119
 7654WAT      O23203   3.352   4.370   7.789
 7654WAT     H123204   3.387   4.321   7.869
 7654WAT     H223205   3.350   4.468   7.808
 7655WAT      O23206   7.670   2.213   5.483
 7655WAT     H123207   7.698   2.237   5.576
 7655WAT     H223208   7.638   2.296   5.436
 7656WAT      O23209   6.466   7.098   1.688
 7656WAT     H123210   6.530   7.123   1.616
 7656WAT     H223211   6.386   7.053   1.648
 7657WAT      O23212   7.236   2.885   7.889
 7657WAT     H123213   7.320   2.884   7.942
 7657WAT     H223214   7.218   2.793   7.854
 7658WAT      O23215   7.984   2.879   6.075
 7658WAT     H123216   7.899   2.864   6.025
 7658WAT     H223217   7.995   2.807   6.144
 7659WAT      O23218   4.447   0.568   8.432
 7659WAT     H123219   4.357   0.548   8.471
 7659WAT     H223220   4.506   0.487   8.441
 7660WAT      O23221   6.685   6.343   9.852
 7660WAT     H123222   6.624   6.417   9.823
 7660WAT     H223223   6.630   6.262   9.872
 7661WAT      O23224   3.846   4.528   3.049
 7661WAT     H123225   3.827   4.616   3.093
 7661WAT     H223226   3.942   4.503   3.062
 7662WAT      O23227   6.438   0.564   7.865
 7662WAT     H123228   6.491   0.572   7.950
 7662WAT     H223229   6.497   0.529   7.793
 7663WAT      O23230   6.599   7.044   0.971
 7663WAT     H123231   6.645   7.005   1.051
 7663WAT     H223232   6.616   7.142   0.967
 7664WAT      O23233   6.626   2.378   5.328
 7664WAT     H123234   6.642   2.418   5.418
 7664WAT     H223235   6.701   2.403   5.267
 7665WAT      O23236   1.583   7.081   0.195
 7665WAT     H123237   1.619   7.138   0.120
 7665WAT     H223238   1.484   7.070   0.184
 7666WAT      O23239   9.848   8.806   1.830
 7666WAT     H123240   9.926   8.748   1.851
 7666WAT     H223241   9.880   8.893   1.793
 7667WAT      O23242   8.284   1.622   4.616
 7667WAT     H123243   8.285   1.596   4.713
 7667WAT     H223244   8.372   1.597   4.574
 7668WAT      O23245   7.176   5.545   5.229
 7668WAT     H123246   7.201   5.627   5.177
 7668WAT     H223247   7.082   5.554   5.262
 7669WAT      O23248   4.438   0.895   6.091
 7669WAT     H123249   4.497   0.839   6.150
 7669WAT     H223250   4.472   0.989   6.089
 7670WAT      O23251   5.751   7.291   9.574
 7670WAT     H123252   5.696   7.208   9.563
 7670WAT     H223253   5.828   7.288   9.511
 7671WAT      O23254   8.523   5.251   4.057
 7671WAT     H123255   8.495   5.185   4.127
 7671WAT     H223256   8.511   5.210   3.967
 7672WAT      O23257   1.212   7.402   2.031
 7672WAT     H123258   1.312   7.393   2.031
 7672WAT     H223259   1.185   7.473   1.966
 7673WAT      O23260   4.499   9.271   0.437
 7673WAT     H123261   4.541   9.201   0.379
 7673WAT     H223262   4.570   9.329   0.476
 7674WAT      O23263   1.005   0.835   7.762
 7674WAT     H123264   1.062   0.901   7.812
 7674WAT     H223265   1.051   0.808   7.678
 7675WAT      O23266   4.447   8.184   9.827
 7675WAT     H123267   4.384   8.184   9.749
 7675WAT     H223268   4.426   8.261   9.887
 7676WAT      O23269   1.222   5.920   4.591
 7676WAT     H123270   1.133   5.933   4.633
 7676WAT     H223271   1.269   6.008   4.584
 7677WAT      O23272   6.810   8.072   5.880
 7677WAT     H123273   6.869   8.153   5.877
 7677WAT     H223274   6.806   8.037   5.973
 7678WAT      O23275   7.262   0.459   7.869
 7678WAT     H123276   7.349   0.503   7.844
 7678WAT     H223277   7.191   0.488   7.805
 7679WAT      O23278   8.655   6.328   3.837
 7679WAT     H123279   8.708   6.399   3.790
 7679WAT     H223280   8.714   6.252   3.862
 7680WAT      O23281   3.371   3.959   6.203
 7680WAT     H123282   3.363   3.863   6.177
 7680WAT     H223283   3.354   4.016   6.123
 7681WAT      O23284   6.991   1.679   6.689
 7681WAT     H123285   7.063   1.652   6.626
 7681WAT     H223286   6.961   1.600   6.742
 7682WAT      O23287   0.323   8.252   2.831
 7682WAT     H123288   0.366   8.337   2.862
 7682WAT     H223289   0.229   8.271   2.802
 7683WAT      O23290   5.220   7.617   1.848
 7683WAT     H123291   5.200   7.560   1.928
 7683WAT     H223292   5.175   7.577   1.767
 7684WAT      O23293   6.438   1.414   1.451
 7684WAT     H123294   6.486   1.376   1.530
 7684WAT     H223295   6.396   1.340   1.399
 7685WAT      O23296   8.272   7.416   3.269
 7685WAT     H123297   8.263   7.514   3.290
 7685WAT     H223298   8.183   7.380   3.242
 7686WAT      O23299   3.211   5.338   3.628
 7686WAT     H123300   3.292   5.378   3.585
 7686WAT     H223301   3.176   5.401   3.698
 7687WAT      O23302   8.344   4.218   1.767
 7687WAT     H123303   8.417   4.238   1.832
 7687WAT     H223304   8.383   4.185   1.681
 7688WAT      O23305   3.074   0.306   7.228
 7688WAT     H123306   3.167   0.311   7.264
 7688WAT     H223307   3.031   0.396   7.231
 7689WAT      O23308   8.479   0.087   4.172
 7689WAT     H123309   8.532   0.152   4.226
 7689WAT     H223310   8.542   0.030   4.119
 7690WAT      O23311   1.306   8.855   5.454
 7690WAT     H123312   1.322   8.950   5.427
 7690WAT     H223313   1.213   8.846   5.491
 7691WAT      O23314   3.994   4.884   2.234
 7691WAT     H123315   3.911   4.876   2.290
 7691WAT     H223316   3.969   4.900   2.139
 7692WAT      O23317   0.209   5.443   7.924
 7692WAT     H123318   0.217   5.443   8.024
 7692WAT     H223319   0.133   5.386   7.896
 7693WAT      O23320   1.828   0.155   0.932
 7693WAT     H123321   1.737   0.184   0.964
 7693WAT     H223322   1.819   0.068   0.882
 7694WAT      O23323   7.421   0.782   1.583
 7694WAT     H123324   7.470   0.717   1.642
 7694WAT     H223325   7.486   0.822   1.518
 7695WAT      O23326   4.297   9.641   7.178
 7695WAT     H123327   4.214   9.599   7.215
 7695WAT     H223328   4.316   9.605   7.087
 7696WAT      O23329   2.982   6.811   7.375
 7696WAT     H123330   3.020   6.903   7.384
 7696WAT     H223331   3.053   6.749   7.342
 7697WAT      O23332   9.415   4.868   8.943
 7697WAT     H123333   9.392   4.917   8.859
 7697WAT     H223334   9.331   4.849   8.994
 7698WAT      O23335   9.177   3.932   9.689
 7698WAT     H123336   9.159   3.838   9.662
 7698WAT     H223337   9.184   3.937   9.789
 7699WAT      O23338   1.040   1.231   4.196
 7699WAT     H123339   1.119   1.271   4.149
 7699WAT     H223340   0.961   1.233   4.135
 7700WAT      O23341   9.153   9.033   0.764
 7700WAT     H123342   9.160   8.976   0.683
 7700WAT     H223343   9.096   8.987   0.833
 7701WAT      O23344   2.885   0.221   0.231
 7701WAT     H123345   2.982   0.217   0.209
 7701WAT     H223346   2.873   0.247   0.327
 7702WAT      O23347   9.587   8.041   8.363
 7702WAT     H123348   9.579   8.036   8.263
 7702WAT     H223349   9.523   7.977   8.404
 7703WAT      O23350   6.358   8.653   0.651
 7703WAT     H123351   6.307   8.655   0.737
 7703WAT     H223352   6.367   8.558   0.620
 7704WAT      O23353   1.817   9.334   8.282
 7704WAT     H123354   1.750   9.394   8.325
 7704WAT     H223355   1.869   9.386   8.214
 7705WAT      O23356   1.183   9.776   7.898
 7705WAT     H123357   1.131   9.857   7.923
 7705WAT     H223358   1.245   9.752   7.973
 7706WAT      O23359   1.557   7.018   5.553
 7706WAT     H123360   1.639   7.074   5.557
 7706WAT     H223361   1.581   6.922   5.568
 7707WAT      O23362   6.688   3.844   5.178
 7707WAT     H123363   6.740   3.929   5.164
 7707WAT     H223364   6.595   3.856   5.144
 7708WAT      O23365   7.195   2.887   8.371
 7708WAT     H123366   7.285   2.855   8.403
 7708WAT     H223367   7.135   2.902   8.450
 7709WAT      O23368   7.027   8.896   6.854
 7709WAT     H123369   7.105   8.838   6.829
 7709WAT     H223370   7.050   8.992   6.838
 7710WAT      O23371   2.387   8.426   5.436
 7710WAT     H123372   2.449   8.349   5.421
 7710WAT     H223373   2.432   8.511   5.411
 7711WAT      O23374   1.694   6.810   5.268
 7711WAT     H123375   1.595   6.809   5.258
 7711WAT     H223376   1.719   6.777   5.359
 7712WAT      O23377   0.580   0.732   0.844
 7712WAT     H123378   0.673   0.718   0.809
 7712WAT     H223379   0.573   0.692   0.935
 7713WAT      O23380   7.399   5.357   4.945
 7713WAT     H123381   7.338   5.287   4.910
 7713WAT     H223382   7.385   5.367   5.044
 7714WAT      O23383   2.072   0.136   1.061
 7714WAT     H123384   1.975   0.141   1.035
 7714WAT     H223385   2.119   0.072   1.000
 7715WAT      O23386   9.629   0.479   9.473
 7715WAT     H123387   9.619   0.548   9.545
 7715WAT     H223388   9.613   0.388   9.512
 7716WAT      O23389   9.136   0.666   4.035
 7716WAT     H123390   9.218   0.719   4.056
 7716WAT     H223391   9.164   0.573   4.008
 7717WAT      O23392   2.811   0.468   7.990
 7717WAT     H123393   2.787   0.423   7.904
 7717WAT     H223394   2.888   0.421   8.032
 7718WAT      O23395   8.322   9.042   6.580
 7718WAT     H123396   8.362   9.101   6.650
 7718WAT     H223397   8.366   9.061   6.492
 7719WAT      O23398   8.263   1.998   1.536
 7719WAT     H123399   8.212   2.074   1.576
 7719WAT     H223400   8.254   2.001   1.436
 7720WAT      O23401   6.144   3.834   7.879
 7720WAT     H123402   6.155   3.859   7.783
 7720WAT     H223403   6.234   3.819   7.920
 7721WAT      O23404   7.227   3.098   5.283
 7721WAT     H123405   7.186   3.126   5.369
 7721WAT     H223406   7.310   3.150   5.266
 7722WAT      O23407   8.552   9.512   9.381
 7722WAT     H123408   8.596   9.548   9.299
 7722WAT     H223409   8.597   9.548   9.463
 7723WAT      O23410   6.895   6.095   0.581
 7723WAT     H123411   6.966   6.038   0.621
 7723WAT     H223412   6.836   6.131   0.653
 7724WAT      O23413   4.588   8.930   6.751
 7724WAT     H123414   4.608   9.027   6.757
 7724WAT     H223415   4.493   8.917   6.721
 7725WAT      O23416   8.495   8.379   5.850
 7725WAT     H123417   8.595   8.380   5.851
 7725WAT     H223418   8.462   8.316   5.780
 7726WAT      O23419   2.929   5.079   4.602
 7726WAT     H123420   2.931   5.003   4.667
 7726WAT     H223421   2.986   5.154   4.636
 7727WAT      O23422   6.018   7.519   8.892
 7727WAT     H123423   5.920   7.536   8.888
 7727WAT     H223424   6.058   7.574   8.966
 7728WAT      O23425   4.828   7.124   4.374
 7728WAT     H123426   4.769   7.202   4.357
 7728WAT     H223427   4.871   7.135   4.464
 7729WAT      O23428   9.463   4.006   5.180
 7729WAT     H123429   9.364   3.993   5.175
 7729WAT     H223430   9.508   3.934   5.127
 7730WAT      O23431   2.053   6.538   4.213
 7730WAT     H123432   1.962   6.579   4.203
 7730WAT     H223433   2.123   6.604   4.185
 7731WAT      O23434   6.070   6.199   0.009
 7731WAT     H123435   6.069   6.298   0.024
 7731WAT     H223436   6.146   6.159   0.059
 7732WAT      O23437   5.849   4.022   1.312
 7732WAT     H123438   5.799   4.080   1.377
 7732WAT     H223439   5.864   4.073   1.227
 7733WAT      O23440   8.305   8.906   3.894
 7733WAT     H123441   8.382   8.847   3.920
 7733WAT     H223442   8.298   8.910   3.795
 7734WAT      O23443   3.943   6.204   7.260
 7734WAT     H123444   3.992   6.129   7.305
 7734WAT     H223445   3.888   6.168   7.185
 7735WAT      O23446   3.462   2.310   9.739
 7735WAT     H123447   3.440   2.292   9.835
 7735WAT     H223448   3.540   2.254   9.711
 7736WAT      O23449   3.921   3.230   3.285
 7736WAT     H123450   4.007   3.230   3.233
 7736WAT     H223451   3.932   3.286   3.367
 7737WAT      O23452   3.336   7.265   9.610
 7737WAT     H123453   3.281   7.210   9.547
 7737WAT     H223454   3.278   7.328   9.661
 7738WAT      O23455   6.515   6.224   9.467
 7738WAT     H123456   6.614   6.206   9.464
 7738WAT     H223457   6.468   6.164   9.402
 7739WAT      O23458   6.298   0.773   3.584
 7739WAT     H123459   6.371   0.775   3.653
 7739WAT     H223460   6.334   0.737   3.498
 7740WAT      O23461   4.297   8.262   0.683
 7740WAT     H123462   4.298   8.171   0.641
 7740WAT     H223463   4.384   8.307   0.664
 7741WAT      O23464   2.468   4.839   1.239
 7741WAT     H123465   2.460   4.790   1.152
 7741WAT     H223466   2.509   4.778   1.308
 7742WAT      O23467   1.235   3.875   0.421
 7742WAT     H123468   1.331   3.884   0.447
 7742WAT     H223469   1.180   3.940   0.473
 7743WAT      O23470   2.959   2.522   5.442
 7743WAT     H123471   2.900   2.460   5.494
 7743WAT     H223472   3.046   2.477   5.421
 7744WAT      O23473   5.079   1.361   8.257
 7744WAT     H123474   5.130   1.288   8.302
 7744WAT     H223475   5.087   1.445   8.311
 7745WAT      O23476   4.238   5.543   4.419
 7745WAT     H123477   4.187   5.619   4.458
 7745WAT     H223478   4.240   5.551   4.319
 7746WAT      O23479   9.527   1.261   5.129
 7746WAT     H123480   9.605   1.220   5.176
 7746WAT     H223481   9.460   1.191   5.107
 7747WAT      O23482   2.212   4.507   8.149
 7747WAT     H123483   2.219   4.410   8.127
 7747WAT     H223484   2.279   4.559   8.096
 7748WAT      O23485   6.391   3.376   7.768
 7748WAT     H123486   6.371   3.378   7.669
 7748WAT     H223487   6.461   3.443   7.789
 7749WAT      O23488   8.985   4.457   9.357
 7749WAT     H123489   8.980   4.370   9.308
 7749WAT     H223490   8.911   4.461   9.424
 7750WAT      O23491   4.480   5.635   3.188
 7750WAT     H123492   4.503   5.712   3.247
 7750WAT     H223493   4.506   5.550   3.234
 7751WAT      O23494   8.765   0.612   3.376
 7751WAT     H123495   8.674   0.607   3.418
 7751WAT     H223496   8.821   0.537   3.409
 7752WAT      O23497   2.594   7.629   1.772
 7752WAT     H123498   2.577   7.535   1.742
 7752WAT     H223499   2.664   7.670   1.714
 7753WAT      O23500   9.469   2.819   8.650
 7753WAT     H123501   9.559   2.821   8.606
 7753WAT     H223502   9.399   2.847   8.585
 7754WAT      O23503   3.649   4.201   8.267
 7754WAT     H123504   3.666   4.118   8.213
 7754WAT     H223505   3.559   4.196   8.309
 7755WAT      O23506   8.525   6.387   7.502
 7755WAT     H123507   8.468   6.319   7.549
 7755WAT     H223508   8.466   6.447   7.447
 7756WAT      O23509   0.436   0.142   5.712
 7756WAT     H123510   0.351   0.100   5.680
 7756WAT     H223511   0.493   0.165   5.634
 7757WAT      O23512   0.752   8.731   7.486
 7757WAT     H123513   0.724   8.810   7.431
 7757WAT     H223514   0.851   8.730   7.493
 7758WAT      O23515   1.595   7.516   3.639
 7758WAT     H123516   1.683   7.561   3.657
 7758WAT     H223517   1.550   7.494   3.726
 7759WAT      O23518   2.685   1.593   8.661
 7759WAT     H123519   2.746   1.618   8.586
 7759WAT     H223520   2.612   1.662   8.669
 7760WAT      O23521   9.637   9.239   2.898
 7760WAT     H123522   9.668   9.207   2.987
 7760WAT     H223523   9.612   9.335   2.903
 7761WAT      O23524   2.699   4.362   5.620
 7761WAT     H123525   2.742   4.407   5.699
 7761WAT     H223526   2.615   4.411   5.596
 7762WAT      O23527   8.268   7.798   8.322
 7762WAT     H123528   8.237   7.893   8.321
 7762WAT     H223529   8.211   7.745   8.384
 7763WAT      O23530   5.835   5.990   2.164
 7763WAT     H123531   5.897   5.933   2.111
 7763WAT     H223532   5.807   5.941   2.247
 7764WAT      O23533   2.201   7.427   7.410
 7764WAT     H123534   2.112   7.426   7.456
 7764WAT     H223535   2.269   7.385   7.469
 7765WAT      O23536   0.234   2.947   3.749
 7765WAT     H123537   0.273   3.038   3.736
 7765WAT     H223538   0.176   2.924   3.671
 7766WAT      O23539   5.051   1.323   0.071
 7766WAT     H123540   4.959   1.295   0.045
 7766WAT     H223541   5.046   1.408   0.123
 7767WAT      O23542   2.744   5.980   4.520
 7767WAT     H123543   2.753   6.068   4.567
 7767WAT     H223544   2.819   5.920   4.549
 7768WAT      O23545   6.237   1.464   0.258
 7768WAT     H123546   6.192   1.506   0.337
 7768WAT     H223547   6.248   1.366   0.275
 7769WAT      O23548   0.757   6.777   8.123
 7769WAT     H123549   0.737   6.874   8.133
 7769WAT     H223550   0.744   6.750   8.028
 7770WAT      O23551   5.491   3.840   9.650
 7770WAT     H123552   5.525   3.755   9.689
 7770WAT     H223553   5.509   3.915   9.713
 7771WAT      O23554   5.475   6.138   5.355
 7771WAT     H123555   5.407   6.112   5.423
 7771WAT     H223556   5.442   6.114   5.263
 7772WAT      O23557   7.978   9.326   6.362
 7772WAT     H123558   7.925   9.265   6.303
 7772WAT     H223559   7.998   9.278   6.448
 7773WAT      O23560   5.578   1.987   2.494
 7773WAT     H123561   5.552   1.931   2.573
 7773WAT     H223562   5.496   2.021   2.449
 7774WAT      O23563   0.267   0.518   6.342
 7774WAT     H123564   0.361   0.546   6.325
 7774WAT     H223565   0.264   0.419   6.356
 7775WAT      O23566   0.496   6.829   3.137
 7775WAT     H123567   0.419   6.805   3.078
 7775WAT     H223568   0.466   6.896   3.205
 7776WAT      O23569   7.798   4.966   3.856
 7776WAT     H123570   7.857   5.026   3.910
 7776WAT     H223571   7.836   4.874   3.857
 7777WAT      O23572   1.517   3.777   7.194
 7777WAT     H123573   1.543   3.870   7.219
 7777WAT     H223574   1.590   3.735   7.140
 7778WAT      O23575   7.276   6.622   5.313
 7778WAT     H123576   7.314   6.713   5.297
 7778WAT     H223577   7.347   6.554   5.302
 7779WAT      O23578   3.628   5.131   3.763
 7779WAT     H123579   3.574   5.203   3.807
 7779WAT     H223580   3.680   5.082   3.833
 7780WAT      O23581   9.103   3.572   7.663
 7780WAT     H123582   9.161   3.512   7.609
 7780WAT     H223583   9.116   3.667   7.632
 7781WAT      O23584   4.737   3.838   4.912
 7781WAT     H123585   4.642   3.867   4.901
 7781WAT     H223586   4.739   3.743   4.943
 7782WAT      O23587   0.756   1.455   4.628
 7782WAT     H123588   0.665   1.414   4.630
 7782WAT     H223589   0.780   1.488   4.719
 7783WAT      O23590   0.975   0.944   9.632
 7783WAT     H123591   0.925   1.027   9.658
 7783WAT     H223592   1.072   0.955   9.657
 7784WAT      O23593   7.271   5.894   5.385
 7784WAT     H123594   7.215   5.855   5.458
 7784WAT     H223595   7.274   5.831   5.308
 7785WAT      O23596   1.549   3.955   2.974
 7785WAT     H123597   1.501   3.998   3.051
 7785WAT     H223598   1.541   4.014   2.894
 7786WAT      O23599   0.484   2.128   0.610
 7786WAT     H123600   0.416   2.108   0.681
 7786WAT     H223601   0.553   2.190   0.648
 7787WAT      O23602   1.505   1.628   2.486
 7787WAT     H123603   1.508   1.701   2.554
 7787WAT     H223604   1.469   1.664   2.400
 7788WAT      O23605   6.614   1.988   9.204
 7788WAT     H123606   6.586   2.000   9.109
 7788WAT     H223607   6.539   1.946   9.256
 7789WAT      O23608   6.485   2.786   9.442
 7789WAT     H123609   6.523   2.699   9.470
 7789WAT     H223610   6.548   2.860   9.466
 7790WAT      O23611   6.190   2.008   0.182
 7790WAT     H123612   6.213   1.916   0.150
 7790WAT     H223613   6.254   2.074   0.142
 7791WAT      O23614   3.771   8.785   3.199
 7791WAT     H123615   3.719   8.859   3.243
 7791WAT     H223616   3.816   8.821   3.117
 7792WAT      O23617   1.884   2.431   2.751
 7792WAT     H123618   1.973   2.388   2.769
 7792WAT     H223619   1.877   2.453   2.654
 7793WAT      O23620   0.636   2.372   4.385
 7793WAT     H123621   0.687   2.325   4.313
 7793WAT     H223622   0.604   2.305   4.452
 7794WAT      O23623   6.627   4.414   8.593
 7794WAT     H123624   6.534   4.450   8.601
 7794WAT     H223625   6.660   4.388   8.683
 7795WAT      O23626   2.011   5.582   2.584
 7795WAT     H123627   1.917   5.600   2.612
 7795WAT     H223628   2.066   5.664   2.595
 7796WAT      O23629   5.168   3.024   8.167
 7796WAT     H123630   5.166   3.101   8.102
 7796WAT     H223631   5.079   2.979   8.168
 7797WAT      O23632   8.552   8.478   6.789
 7797WAT     H123633   8.475   8.454   6.731
 7797WAT     H223634   8.565   8.577   6.788
 7798WAT      O23635   9.098   7.060   4.649
 7798WAT     H123636   9.153   7.089   4.727
 7798WAT     H223637   9.145   7.082   4.564
 7799WAT      O23638   2.924   4.937   2.036
 7799WAT     H123639   2.896   4.864   1.975
 7799WAT     H223640   3.023   4.932   2.051
 7800WAT      O23641   7.684   3.657   3.597
 7800WAT     H123642   7.639   3.734   3.642
 7800WAT     H223643   7.640   3.571   3.625
 7801WAT      O23644   8.111   1.854   4.224
 7801WAT     H123645   8.041   1.791   4.259
 7801WAT     H223646   8.089   1.880   4.130
 7802WAT      O23647   6.567   4.847   5.659
 7802WAT     H123648   6.650   4.897   5.635
 7802WAT     H223649   6.488   4.907   5.650
 7803WAT      O23650   3.468   6.556   0.320
 7803WAT     H123651   3.406   6.477   0.329
 7803WAT     H223652   3.454   6.618   0.396
 7804WAT      O23653   8.134   5.500   5.167
 7804WAT     H123654   8.077   5.499   5.085
 7804WAT     H223655   8.169   5.593   5.182
 7805WAT      O23656   9.326   7.396   7.780
 7805WAT     H123657   9.354   7.421   7.687
 7805WAT     H223658   9.401   7.347   7.825
 7806WAT      O23659   8.695   3.580   2.025
 7806WAT     H123660   8.734   3.590   1.934
 7806WAT     H223661   8.767   3.587   2.094
 7807WAT      O23662   0.723   9.119   6.899
 7807WAT     H123663   0.746   9.210   6.934
 7807WAT     H223664   0.720   9.054   6.974
 7808WAT      O23665   2.979   4.127   9.320
 7808WAT     H123666   3.031   4.041   9.316
 7808WAT     H223667   3.043   4.204   9.324
 7809WAT      O23668   4.224   4.662   0.919
 7809WAT     H123669   4.140   4.715   0.933
 7809WAT     H223670   4.303   4.722   0.927
 7810WAT      O23671   6.575   4.353   3.558
 7810WAT     H123672   6.535   4.271   3.599
 7810WAT     H223673   6.655   4.381   3.610
 7811WAT      O23674   8.305   2.331   8.118
 7811WAT     H123675   8.361   2.254   8.148
 7811WAT     H223676   8.286   2.391   8.195
 7812WAT      O23677   1.443   8.391   5.393
 7812WAT     H123678   1.515   8.350   5.337
 7812WAT     H223679   1.450   8.490   5.390
 7813WAT      O23680   6.729   6.548   8.618
 7813WAT     H123681   6.754   6.451   8.622
 7813WAT     H223682   6.681   6.566   8.532
 7814WAT      O23683   2.420   5.929   3.946
 7814WAT     H123684   2.452   6.003   4.004
 7814WAT     H223685   2.386   5.854   4.003
 7815WAT      O23686   2.321   6.374   1.423
 7815WAT     H123687   2.368   6.370   1.335
 7815WAT     H223688   2.255   6.450   1.421
 7816WAT      O23689   9.614   2.999   5.572
 7816WAT     H123690   9.643   2.903   5.569
 7816WAT     H223691   9.571   3.023   5.485
 7817WAT      O23692   3.492   6.069   4.509
 7817WAT     H123693   3.573   6.012   4.496
 7817WAT     H223694   3.450   6.087   4.420
 7818WAT      O23695   7.715   8.584   1.777
 7818WAT     H123696   7.625   8.590   1.820
 7818WAT     H223697   7.745   8.676   1.751
 7819WAT      O23698   2.880   7.948   9.802
 7819WAT     H123699   2.854   7.927   9.708
 7819WAT     H223700   2.937   8.030   9.803
 7820WAT      O23701   3.719   2.245   0.502
 7820WAT     H123702   3.702   2.177   0.430
 7820WAT     H223703   3.639   2.251   0.561
 7821WAT      O23704   3.818   5.178   0.813
 7821WAT     H123705   3.827   5.215   0.720
 7821WAT     H223706   3.771   5.244   0.871
 7822WAT      O23707   4.429   6.689   7.693
 7822WAT     H123708   4.383   6.764   7.740
 7822WAT     H223709   4.361   6.620   7.666
 7823WAT      O23710   3.373   9.052   8.628
 7823WAT     H123711   3.388   8.953   8.629
 7823WAT     H223712   3.277   9.071   8.609
 7824WAT      O23713   4.813   7.399   9.161
 7824WAT     H123714   4.891   7.348   9.125
 7824WAT     H223715   4.766   7.344   9.229
 7825WAT      O23716   8.999   0.623   0.711
 7825WAT     H123717   8.975   0.667   0.797
 7825WAT     H223718   9.089   0.580   0.720
 7826WAT      O23719   0.984   1.606   9.273
 7826WAT     H123720   0.913   1.676   9.283
 7826WAT     H223721   1.002   1.590   9.176
 7827WAT      O23722   8.115   4.507   1.166
 7827WAT     H123723   8.134   4.456   1.083
 7827WAT     H223724   8.024   4.549   1.160
 7828WAT      O23725   1.768   1.618   1.965
 7828WAT     H123726   1.715   1.535   1.980
 7828WAT     H223727   1.809   1.648   2.052
 7829WAT      O23728   7.160   4.279   0.282
 7829WAT     H123729   7.137   4.345   0.210
 7829WAT     H223730   7.232   4.318   0.340
 7830WAT      O23731   7.504   2.601   8.820
 7830WAT     H123732   7.474   2.678   8.877
 7830WAT     H223733   7.603   2.606   8.808
 7831WAT      O23734   8.421   9.102   5.735
 7831WAT     H123735   8.519   9.097   5.755
 7831WAT     H223736   8.375   9.019   5.765
 7832WAT      O23737   1.947   6.472   8.920
 7832WAT     H123738   1.857   6.456   8.961
 7832WAT     H223739   2.014   6.485   8.994
 7833WAT      O23740   1.186   4.019   2.809
 7833WAT     H123741   1.218   4.076   2.885
 7833WAT     H223742   1.136   4.077   2.744
 7834WAT      O23743   9.579   4.709   1.336
 7834WAT     H123744   9.513   4.732   1.264
 7834WAT     H223745   9.544   4.633   1.390
 7835WAT      O23746   2.428   3.963   4.904
 7835WAT     H123747   2.431   3.897   4.829
 7835WAT     H223748   2.436   3.914   4.991
 7836WAT      O23749   4.421   8.506   6.331
 7836WAT     H123750   4.406   8.604   6.338
 7836WAT     H223751   4.384   8.472   6.245
 7837WAT      O23752   9.402   8.331   2.830
 7837WAT     H123753   9.470   8.271   2.789
 7837WAT     H223754   9.411   8.329   2.929
 7838WAT      O23755   4.531   9.559   9.647
 7838WAT     H123756   4.602   9.494   9.622
 7838WAT     H223757   4.505   9.613   9.567
 7839WAT      O23758   0.731   3.325   6.609
 7839WAT     H123759   0.798   3.321   6.535
 7839WAT     H223760   0.735   3.415   6.653
 7840WAT      O23761   2.536   8.277   3.489
 7840WAT     H123762   2.494   8.367   3.479
 7840WAT     H223763   2.610   8.267   3.422
 7841WAT      O23764   0.699   8.284   3.152
 7841WAT     H123765   0.739   8.287   3.061
 7841WAT     H223766   0.624   8.217   3.154
 7842WAT      O23767   8.772   8.809   2.645
 7842WAT     H123768   8.695   8.778   2.589
 7842WAT     H223769   8.754   8.785   2.741
 7843WAT      O23770   7.008   8.600   3.201
 7843WAT     H123771   7.081   8.536   3.180
 7843WAT     H223772   6.948   8.610   3.122
 7844WAT      O23773   5.527   0.939   0.856
 7844WAT     H123774   5.552   0.992   0.937
 7844WAT     H223775   5.439   0.971   0.821
 7845WAT      O23776   5.420   3.531   8.405
 7845WAT     H123777   5.479   3.597   8.357
 7845WAT     H223778   5.394   3.459   8.341
 7846WAT      O23779   8.470   7.975   0.235
 7846WAT     H123780   8.556   7.966   0.185
 7846WAT     H223781   8.447   7.888   0.279
 7847WAT      O23782   2.595   3.751   6.000
 7847WAT     H123783   2.588   3.792   5.909
 7847WAT     H223784   2.623   3.821   6.066
 7848WAT      O23785   8.691   9.242   3.176
 7848WAT     H123786   8.617   9.309   3.171
 7848WAT     H223787   8.659   9.154   3.139
 7849WAT      O23788   4.775   8.120   8.488
 7849WAT     H123789   4.781   8.027   8.524
 7849WAT     H223790   4.866   8.152   8.462
 7850WAT      O23791   7.692   3.467   9.553
 7850WAT     H123792   7.653   3.495   9.466
 7850WAT     H223793   7.762   3.397   9.537
 7851WAT      O23794   3.020   2.653   2.780
 7851WAT     H123795   3.039   2.610   2.868
 7851WAT     H223796   3.087   2.623   2.712
 7852WAT      O23797   7.277   4.818   1.359
 7852WAT     H123798   7.283   4.903   1.306
 7852WAT     H223799   7.241   4.837   1.450
 7853WAT      O23800   6.047   4.729   8.183
 7853WAT     H123801   6.058   4.701   8.087
 7853WAT     H223802   6.123   4.787   8.210
 7854WAT      O23803   8.487   6.746   2.673
 7854WAT     H123804   8.570   6.797   2.695
 7854WAT     H223805   8.409   6.808   2.671
 7855WAT      O23806   6.969   8.627   4.883
 7855WAT     H123807   6.972   8.534   4.844
 7855WAT     H223808   7.051   8.677   4.854
 7856WAT      O23809   4.550   4.355   2.582
 7856WAT     H123810   4.558   4.276   2.522
 7856WAT     H223811   4.454   4.370   2.605
 7857WAT      O23812   1.278   4.694   9.338
 7857WAT     H123813   1.180   4.673   9.338
 7857WAT     H223814   1.300   4.747   9.256
 7858WAT      O23815   1.607   9.041   9.575
 7858WAT     H123816   1.517   9.085   9.568
 7858WAT     H223817   1.597   8.955   9.626
 7859WAT      O23818   4.495   4.349   5.494
 7859WAT     H123819   4.538   4.391   5.414
 7859WAT     H223820   4.505   4.249   5.489
 7860WAT      O23821   6.519   5.916   7.317
 7860WAT     H123822   6.607   5.906   7.362
 7860WAT     H223823   6.504   6.012   7.293
 7861WAT      O23824   2.948   2.235   7.090
 7861WAT     H123825   2.953   2.147   7.137
 7861WAT     H223826   2.868   2.236   7.029
 7862WAT      O23827   6.129   5.200   6.189
 7862WAT     H123828   6.041   5.246   6.176
 7862WAT     H223829   6.195   5.236   6.123
 7863WAT      O23830   3.724   8.261   4.665
 7863WAT     H123831   3.715   8.161   4.672
 7863WAT     H223832   3.715   8.288   4.569
 7864WAT      O23833   2.473   3.418   4.144
 7864WAT     H123834   2.438   3.475   4.218
 7864WAT     H223835   2.552   3.366   4.176
 7865WAT      O23836   2.636   0.152   7.001
 7865WAT     H123837   2.666   0.242   7.033
 7865WAT     H223838   2.559   0.120   7.058
 7866WAT      O23839   0.851   2.438   8.158
 7866WAT     H123840   0.810   2.381   8.229
 7866WAT     H223841   0.793   2.517   8.140
 7867WAT      O23842   6.142   4.297   0.520
 7867WAT     H123843   6.160   4.333   0.428
 7867WAT     H223844   6.098   4.208   0.512
 7868WAT      O23845   0.203   9.601   0.034
 7868WAT     H123846   0.116   9.617  -0.013
 7868WAT     H223847   0.186   9.576   0.129
 7869WAT      O23848   8.818   9.596   3.727
 7869WAT     H123849   8.883   9.647   3.671
 7869WAT     H223850   8.791   9.513   3.678
 7870WAT      O23851   3.610   6.225   6.137
 7870WAT     H123852   3.614   6.154   6.067
 7870WAT     H223853   3.571   6.308   6.098
 7871WAT      O23854   5.130   2.637   2.829
 7871WAT     H123855   5.166   2.682   2.911
 7871WAT     H223856   5.116   2.705   2.757
 7872WAT      O23857   1.758   3.445   6.753
 7872WAT     H123858   1.796   3.514   6.692
 7872WAT     H223859   1.685   3.486   6.808
 7873WAT      O23860   1.361   2.910   4.964
 7873WAT     H123861   1.297   2.854   5.017
 7873WAT     H223862   1.438   2.854   4.934
 7874WAT      O23863   5.132   9.521   5.449
 7874WAT     H123864   5.052   9.490   5.397
 7874WAT     H223865   5.186   9.443   5.478
 7875WAT      O23866   2.011   8.525   4.534
 7875WAT     H123867   1.915   8.551   4.538
 7875WAT     H223868   2.054   8.569   4.455
 7876WAT      O23869   1.473   8.205   2.872
 7876WAT     H123870   1.471   8.204   2.772
 7876WAT     H223871   1.461   8.112   2.906
 7877WAT      O23872   2.631   6.147   7.540
 7877WAT     H123873   2.679   6.153   7.452
 7877WAT     H223874   2.535   6.171   7.527
 7878WAT      O23875   0.759   0.276   7.126
 7878WAT     H123876   0.852   0.242   7.142
 7878WAT     H223877   0.713   0.291   7.214
 7879WAT      O23878   0.809   1.142   9.713
 7879WAT     H123879   0.869   1.221   9.725
 7879WAT     H223880   0.769   1.144   9.621
 7880WAT      O23881   9.365   0.490   8.013
 7880WAT     H123882   9.269   0.466   7.997
 7880WAT     H223883   9.423   0.442   7.946
 7881WAT      O23884   3.417   8.277   8.160
 7881WAT     H123885   3.466   8.277   8.247
 7881WAT     H223886   3.412   8.183   8.125
 7882WAT      O23887   7.296   7.384   6.592
 7882WAT     H123888   7.303   7.309   6.659
 7882WAT     H223889   7.322   7.351   6.502
 7883WAT      O23890   9.405   3.694   1.313
 7883WAT     H123891   9.426   3.791   1.309
 7883WAT     H223892   9.478   3.646   1.361
 7884WAT      O23893   7.860   6.591   0.286
 7884WAT     H123894   7.838   6.682   0.250
 7884WAT     H223895   7.959   6.578   0.284
 7885WAT      O23896   9.122   9.002   3.070
 7885WAT     H123897   9.216   8.979   3.044
 7885WAT     H223898   9.073   9.039   2.992
 7886WAT      O23899   4.036   3.964   3.268
 7886WAT     H123900   4.000   3.886   3.216
 7886WAT     H223901   3.960   4.018   3.304
 7887WAT      O23902   4.926   6.333   7.623
 7887WAT     H123903   4.883   6.281   7.549
 7887WAT     H223904   5.018   6.298   7.640
 7888WAT      O23905   4.433   2.880   4.256
 7888WAT     H123906   4.375   2.960   4.269
 7888WAT     H223907   4.478   2.858   4.343
 7889WAT      O23908   7.669   7.861   3.924
 7889WAT     H123909   7.639   7.852   4.019
 7889WAT     H223910   7.671   7.770   3.881
 7890WAT      O23911   2.907   1.822   3.765
 7890WAT     H123912   2.979   1.833   3.696
 7890WAT     H223913   2.923   1.737   3.816
 7891WAT      O23914   2.367   7.634   7.352
 7891WAT     H123915   2.293   7.569   7.367
 7891WAT     H223916   2.423   7.641   7.434
 7892WAT      O23917   5.555   2.813   8.932
 7892WAT     H123918   5.520   2.899   8.971
 7892WAT     H223919   5.614   2.833   8.855
 7893WAT      O23920   4.671   8.357   5.650
 7893WAT     H123921   4.723   8.277   5.619
 7893WAT     H223922   4.735   8.427   5.681
 7894WAT      O23923   3.334   0.784   3.218
 7894WAT     H123924   3.264   0.836   3.169
 7894WAT     H223925   3.324   0.687   3.197
 7895WAT      O23926   7.042   0.554   7.630
 7895WAT     H123927   7.014   0.561   7.534
 7895WAT     H223928   7.015   0.465   7.666
 7896WAT      O23929   7.377   6.038   3.463
 7896WAT     H123930   7.374   6.000   3.555
 7896WAT     H223931   7.365   6.137   3.468
 7897WAT      O23932   1.070   2.192   8.803
 7897WAT     H123933   1.125   2.260   8.851
 7897WAT     H223934   0.977   2.192   8.840
 7898WAT      O23935   4.751   1.714   8.724
 7898WAT     H123936   4.850   1.701   8.719
 7898WAT     H223937   4.723   1.786   8.661
 7899WAT      O23938   8.421   5.786   9.014
 7899WAT     H123939   8.367   5.701   9.019
 7899WAT     H223940   8.366   5.861   9.051
 7900WAT      O23941   9.511   0.540   8.249
 7900WAT     H123942   9.444   0.532   8.175
 7900WAT     H223943   9.577   0.612   8.227
 7901WAT      O23944   6.294   1.747   4.954
 7901WAT     H123945   6.259   1.663   4.995
 7901WAT     H223946   6.381   1.729   4.908
 7902WAT      O23947   5.064   4.516   6.792
 7902WAT     H123948   4.983   4.522   6.735
 7902WAT     H223949   5.037   4.500   6.887
 7903WAT      O23950   6.892   3.918   6.807
 7903WAT     H123951   6.988   3.890   6.803
 7903WAT     H223952   6.853   3.890   6.895
 7904WAT      O23953   8.140   1.895   8.607
 7904WAT     H123954   8.150   1.796   8.617
 7904WAT     H223955   8.191   1.926   8.527
 7905WAT      O23956   6.568   8.607   0.132
 7905WAT     H123957   6.492   8.573   0.076
 7905WAT     H223958   6.654   8.591   0.085
 7906WAT      O23959   3.237   0.037   4.211
 7906WAT     H123960   3.174  -0.025   4.164
 7906WAT     H223961   3.184   0.108   4.258
 7907WAT      O23962   8.952   9.276   9.186
 7907WAT     H123963   8.903   9.200   9.228
 7907WAT     H223964   8.990   9.335   9.258
 7908WAT      O23965   4.080   5.648   1.795
 7908WAT     H123966   4.080   5.614   1.701
 7908WAT     H223967   4.062   5.747   1.794
 7909WAT      O23968   1.363   0.755   8.098
 7909WAT     H123969   1.338   0.677   8.155
 7909WAT     H223970   1.283   0.814   8.084
 7910WAT      O23971   2.499   7.343   9.314
 7910WAT     H123972   2.442   7.347   9.232
 7910WAT     H223973   2.465   7.408   9.382
 7911WAT      O23974   2.569   1.703   7.264
 7911WAT     H123975   2.522   1.615   7.273
 7911WAT     H223976   2.543   1.763   7.339
 7912WAT      O23977   8.952   9.112   5.107
 7912WAT     H123978   9.043   9.101   5.068
 7912WAT     H223979   8.888   9.051   5.061
 7913WAT      O23980   2.913   9.833   4.486
 7913WAT     H123981   2.984   9.867   4.548
 7913WAT     H223982   2.930   9.736   4.466
 7914WAT      O23983   5.197   0.156   2.953
 7914WAT     H123984   5.285   0.139   2.998
 7914WAT     H223985   5.169   0.074   2.902
 7915WAT      O23986   8.482   7.733   4.955
 7915WAT     H123987   8.387   7.745   4.984
 7915WAT     H223988   8.543   7.770   5.026
 7916WAT      O23989   8.853   5.371   9.212
 7916WAT     H123990   8.877   5.299   9.276
 7916WAT     H223991   8.776   5.424   9.249
 7917WAT      O23992   6.953   4.524   0.171
 7917WAT     H123993   6.863   4.502   0.134
 7917WAT     H223994   7.006   4.575   0.103
 7918WAT      O23995   0.250   3.397   3.217
 7918WAT     H123996   0.243   3.357   3.309
 7918WAT     H223997   0.165   3.380   3.167
 7919WAT      O23998   1.957   5.097   6.849
 7919WAT     H123999   1.898   5.151   6.909
 7919WAT     H224000   1.980   5.011   6.894
 7920WAT      O24001   6.518   7.663   6.941
 7920WAT     H124002   6.570   7.632   7.021
 7920WAT     H224003   6.568   7.639   6.858
 7921WAT      O24004   3.331   7.383   5.165
 7921WAT     H124005   3.369   7.383   5.073
 7921WAT     H224006   3.373   7.310   5.219
 7922WAT      O24007   1.404   9.713   4.572
 7922WAT     H124008   1.437   9.749   4.659
 7922WAT     H224009   1.330   9.772   4.538
 7923WAT      O24010   2.659   6.915   6.911
 7923WAT     H124011   2.667   6.815   6.919
 7923WAT     H224012   2.584   6.938   6.850
 7924WAT      O24013   7.996   7.307   0.104
 7924WAT     H124014   8.078   7.274   0.058
 7924WAT     H224015   7.934   7.348   0.038
 7925WAT      O24016   3.241   1.279   3.743
 7925WAT     H124017   3.163   1.330   3.706
 7925WAT     H224018   3.267   1.317   3.831
 7926WAT      O24019   5.495   2.746   2.751
 7926WAT     H124020   5.559   2.742   2.674
 7926WAT     H224021   5.526   2.686   2.824
 7927WAT      O24022   4.860   8.238   3.806
 7927WAT     H124023   4.861   8.318   3.867
 7927WAT     H224024   4.880   8.156   3.860
 7928WAT      O24025   5.372   8.450   8.972
 7928WAT     H124026   5.470   8.465   8.960
 7928WAT     H224027   5.336   8.399   8.895
 7929WAT      O24028   9.511   4.689   2.271
 7929WAT     H124029   9.430   4.741   2.247
 7929WAT     H224030   9.555   4.730   2.351
 7930WAT      O24031   2.958   0.378   9.123
 7930WAT     H124032   2.952   0.336   9.213
 7930WAT     H224033   2.900   0.328   9.059
 7931WAT      O24034   7.587   6.328   1.179
 7931WAT     H124035   7.616   6.335   1.084
 7931WAT     H224036   7.487   6.330   1.184
 7932WAT      O24037   6.229   6.457   3.556
 7932WAT     H124038   6.276   6.516   3.621
 7932WAT     H224039   6.271   6.466   3.466
 7933WAT      O24040   5.763   5.438   0.758
 7933WAT     H124041   5.778   5.375   0.834
 7933WAT     H224042   5.849   5.451   0.708
 7934WAT      O24043   6.763   6.784   1.886
 7934WAT     H124044   6.860   6.799   1.909
 7934WAT     H224045   6.716   6.872   1.881
 7935WAT      O24046   4.951   8.469   3.938
 7935WAT     H124047   5.014   8.526   3.886
 7935WAT     H224048   4.960   8.489   4.035
 7936WAT      O24049   2.509   2.818   0.120
 7936WAT     H124050   2.608   2.833   0.124
 7936WAT     H224051   2.491   2.723   0.094
 7937WAT      O24052   2.848   3.545   5.973
 7937WAT     H124053   2.800   3.457   5.979
 7937WAT     H224054   2.782   3.619   5.970
 7938WAT      O24055   4.437   2.754   5.873
 7938WAT     H124056   4.365   2.809   5.831
 7938WAT     H224057   4.400   2.664   5.898
 7939WAT      O24058   0.541   0.847   7.799
 7939WAT     H124059   0.550   0.885   7.707
 7939WAT     H224060   0.445   0.846   7.826
 7940WAT      O24061   5.372   8.577   1.195
 7940WAT     H124062   5.446   8.607   1.255
 7940WAT     H224063   5.319   8.656   1.164
 7941WAT      O24064   6.350   0.629   1.769
 7941WAT     H124065   6.399   0.606   1.853
 7941WAT     H224066   6.274   0.565   1.757
 7942WAT      O24067   5.235   1.962   3.596
 7942WAT     H124068   5.181   1.932   3.517
 7942WAT     H224069   5.179   2.021   3.654
 7943WAT      O24070   7.522   6.692   0.859
 7943WAT     H124071   7.529   6.783   0.899
 7943WAT     H224072   7.430   6.655   0.873
 7944WAT      O24073   5.073   3.546   3.246
 7944WAT     H124074   5.073   3.504   3.337
 7944WAT     H224075   5.056   3.644   3.256
 7945WAT      O24076   2.180   5.269   6.842
 7945WAT     H124077   2.087   5.249   6.810
 7945WAT     H224078   2.190   5.367   6.857
 7946WAT      O24079   7.505   8.793   2.948
 7946WAT     H124080   7.583   8.805   3.009
 7946WAT     H224081   7.511   8.859   2.873
 7947WAT      O24082   8.006   1.039   4.517
 7947WAT     H124083   7.978   1.082   4.603
 7947WAT     H224084   8.022   0.941   4.532
 7948WAT      O24085   1.952   8.880   8.107
 7948WAT     H124086   1.888   8.809   8.075
 7948WAT     H224087   2.039   8.837   8.132
 7949WAT      O24088   2.712   4.439   3.246
 7949WAT     H124089   2.786   4.430   3.179
 7949WAT     H224090   2.672   4.530   3.241
 7950WAT      O24091   4.178   3.715   5.532
 7950WAT     H124092   4.126   3.643   5.578
 7950WAT     H224093   4.209   3.782   5.599
 7951WAT      O24094   6.904   4.330   3.581
 7951WAT     H124095   6.922   4.302   3.486
 7951WAT     H224096   6.907   4.430   3.586
 7952WAT      O24097   0.164   0.653   7.306
 7952WAT     H124098   0.212   0.615   7.226
 7952WAT     H224099   0.219   0.638   7.388
 7953WAT      O24100   0.174   8.695   4.411
 7953WAT     H124101   0.164   8.666   4.506
 7953WAT     H224102   0.265   8.669   4.378
 7954WAT      O24103   4.499   0.622   2.739
 7954WAT     H124104   4.594   0.615   2.709
 7954WAT     H224105   4.477   0.545   2.799
 7955WAT      O24106   7.148   4.625   4.858
 7955WAT     H124107   7.049   4.629   4.874
 7955WAT     H224108   7.182   4.534   4.880
 7956WAT      O24109   4.869   5.238   1.249
 7956WAT     H124110   4.810   5.271   1.322
 7956WAT     H224111   4.961   5.276   1.261
 7957WAT      O24112   7.505   1.041   5.772
 7957WAT     H124113   7.451   1.078   5.848
 7957WAT     H224114   7.497   0.941   5.772
 7958WAT      O24115   2.229   4.119   3.846
 7958WAT     H124116   2.256   4.174   3.767
 7958WAT     H224117   2.131   4.130   3.862
 7959WAT      O24118   7.194   4.057   7.963
 7959WAT     H124119   7.125   4.116   7.920
 7959WAT     H224120   7.270   4.044   7.900
 7960WAT      O24121   7.680   5.671   3.902
 7960WAT     H124122   7.632   5.663   3.815
 7960WAT     H224123   7.776   5.646   3.890
 7961WAT      O24124   8.912   3.509   4.289
 7961WAT     H124125   8.942   3.532   4.381
 7961WAT     H224126   8.975   3.442   4.249
 7962WAT      O24127   2.766   1.855   3.134
 7962WAT     H124128   2.688   1.819   3.184
 7962WAT     H224129   2.737   1.884   3.043
 7963WAT      O24130   1.380   9.483   8.710
 7963WAT     H124131   1.394   9.410   8.776
 7963WAT     H224132   1.465   9.533   8.696
 7964WAT      O24133   0.645   8.929   4.588
 7964WAT     H124134   0.587   8.848   4.579
 7964WAT     H224135   0.589   9.011   4.596
 7965WAT      O24136   0.951   8.059   6.005
 7965WAT     H124137   1.013   8.131   6.036
 7965WAT     H224138   0.859   8.096   5.995
 7966WAT      O24139   1.182   2.351   7.918
 7966WAT     H124140   1.237   2.277   7.879
 7966WAT     H224141   1.188   2.349   8.018
 7967WAT      O24142   2.830   0.282   5.236
 7967WAT     H124143   2.848   0.375   5.269
 7967WAT     H224144   2.874   0.216   5.297
 7968WAT      O24145   4.490   0.226   5.291
 7968WAT     H124146   4.476   0.193   5.384
 7968WAT     H224147   4.585   0.257   5.280
 7969WAT      O24148   3.768   4.152   9.688
 7969WAT     H124149   3.782   4.244   9.650
 7969WAT     H224150   3.706   4.158   9.766
 7970WAT      O24151   4.658   1.681   8.961
 7970WAT     H124152   4.680   1.694   8.864
 7970WAT     H224153   4.738   1.646   9.009
 7971WAT      O24154   0.386   9.150   6.656
 7971WAT     H124155   0.313   9.087   6.629
 7971WAT     H224156   0.351   9.211   6.727
 7972WAT      O24157   8.771   5.442   7.645
 7972WAT     H124158   8.712   5.517   7.615
 7972WAT     H224159   8.790   5.382   7.568
 7973WAT      O24160   9.173   0.821   8.702
 7973WAT     H124161   9.098   0.763   8.671
 7973WAT     H224162   9.222   0.777   8.776
 7974WAT      O24163   3.010   9.133   7.859
 7974WAT     H124164   3.041   9.180   7.776
 7974WAT     H224165   2.983   9.201   7.927
 7975WAT      O24166   4.751   3.092   5.888
 7975WAT     H124167   4.741   3.159   5.815
 7975WAT     H224168   4.806   3.131   5.962
 7976WAT      O24169   9.329   3.783   6.310
 7976WAT     H124170   9.270   3.783   6.391
 7976WAT     H224171   9.413   3.834   6.331
 7977WAT      O24172   6.469   8.817   1.047
 7977WAT     H124173   6.435   8.820   1.140
 7977WAT     H224174   6.401   8.772   0.988
 7978WAT      O24175   7.938   6.769   3.830
 7978WAT     H124176   8.036   6.760   3.809
 7978WAT     H224177   7.897   6.678   3.835
 7979WAT      O24178   7.086   8.727   6.006
 7979WAT     H124179   7.038   8.724   6.094
 7979WAT     H224180   7.055   8.806   5.954
 7980WAT      O24181   9.875   0.332   8.036
 7980WAT     H124182   9.864   0.281   8.121
 7980WAT     H224183   9.787   0.371   8.009
 7981WAT      O24184   6.715   6.644   2.918
 7981WAT     H124185   6.733   6.612   2.825
 7981WAT     H224186   6.623   6.616   2.945
 7982WAT      O24187   0.772   7.786   2.011
 7982WAT     H124188   0.769   7.823   2.104
 7982WAT     H224189   0.682   7.797   1.968
 7983WAT      O24190   6.240   3.680   7.176
 7983WAT     H124191   6.144   3.700   7.162
 7983WAT     H224192   6.263   3.593   7.131
 7984WAT      O24193   9.075   5.089   6.255
 7984WAT     H124194   9.086   5.155   6.329
 7984WAT     H224195   9.023   5.010   6.288
 7985WAT      O24196   0.328   5.964   9.306
 7985WAT     H124197   0.343   5.990   9.401
 7985WAT     H224198   0.403   5.906   9.275
 7986WAT      O24199   9.015   8.823   0.868
 7986WAT     H124200   9.048   8.823   0.773
 7986WAT     H224201   8.970   8.736   0.888
 7987WAT      O24202   5.010   5.413   3.775
 7987WAT     H124203   4.981   5.327   3.818
 7987WAT     H224204   5.078   5.393   3.704
 7988WAT      O24205   0.555   2.553   9.643
 7988WAT     H124206   0.503   2.636   9.662
 7988WAT     H224207   0.501   2.473   9.670
 7989WAT      O24208   1.123   4.774   7.488
 7989WAT     H124209   1.025   4.785   7.497
 7989WAT     H224210   1.153   4.696   7.542
 7990WAT      O24211   7.175   7.520   4.480
 7990WAT     H124212   7.131   7.512   4.391
 7990WAT     H224213   7.253   7.583   4.473
 7991WAT      O24214   5.133   8.109   1.786
 7991WAT     H124215   5.133   8.052   1.868
 7991WAT     H224216   5.078   8.190   1.801
 7992WAT      O24217   7.987   1.588   7.576
 7992WAT     H124218   8.061   1.542   7.624
 7992WAT     H224219   8.025   1.641   7.500
 7993WAT      O24220   0.023   7.618   4.187
 7993WAT     H124221  -0.001   7.708   4.225
 7993WAT     H224222  -0.009   7.547   4.249
 7994WAT      O24223   0.332   3.563   9.535
 7994WAT     H124224   0.382   3.648   9.522
 7994WAT     H224225   0.338   3.535   9.631
 7995WAT      O24226   0.198   9.497   5.567
 7995WAT     H124227   0.252   9.460   5.642
 7995WAT     H224228   0.242   9.475   5.480
 7996WAT      O24229   2.997   5.323   8.976
 7996WAT     H124230   3.022   5.344   8.881
 7996WAT     H224231   2.949   5.235   8.979
 7997WAT      O24232   1.726   5.070   4.934
 7997WAT     H124233   1.670   5.135   4.883
 7997WAT     H224234   1.675   5.037   5.014
 7998WAT      O24235   4.898   5.052   7.037
 7998WAT     H124236   4.873   5.148   7.046
 7998WAT     H224237   4.876   5.004   7.123
 7999WAT      O24238   6.725   9.378   1.236
 7999WAT     H124239   6.824   9.361   1.230
 7999WAT     H224240   6.709   9.468   1.277
 8000WAT      O24241   1.541   6.175   2.965
 8000WAT     H124242   1.458   6.148   2.915
 8000WAT     H224243   1.521   6.256   3.020
 8001WAT      O24244   7.768   4.674   8.578
 8001WAT     H124245   7.852   4.648   8.530
 8001WAT     H224246   7.713   4.733   8.519
 8002WAT      O24247   8.835   6.766   1.030
 8002WAT     H124248   8.802   6.737   0.941
 8002WAT     H224249   8.760   6.803   1.084
 8003WAT      O24250   7.411   7.119   8.438
 8003WAT     H124251   7.473   7.051   8.475
 8003WAT     H224252   7.317   7.086   8.444
 8004WAT      O24253   1.793   6.410   4.688
 8004WAT     H124254   1.773   6.313   4.700
 8004WAT     H224255   1.870   6.436   4.746
 8005WAT      O24256   4.612   0.798   0.836
 8005WAT     H124257   4.579   0.745   0.914
 8005WAT     H224258   4.668   0.740   0.777
 8006WAT      O24259   4.360   8.361   7.387
 8006WAT     H124260   4.347   8.460   7.391
 8006WAT     H224261   4.333   8.320   7.474
 8007WAT      O24262   3.456   0.880   0.903
 8007WAT     H124263   3.494   0.946   0.969
 8007WAT     H224264   3.525   0.859   0.834
 8008WAT      O24265   6.169   6.050   9.109
 8008WAT     H124266   6.247   6.001   9.149
 8008WAT     H224267   6.097   5.985   9.085
 8009WAT      O24268   7.707   4.274   1.473
 8009WAT     H124269   7.693   4.373   1.474
 8009WAT     H224270   7.800   4.253   1.444
 8010WAT      O24271   2.877   7.519   5.118
 8010WAT     H124272   2.821   7.483   5.193
 8010WAT     H224273   2.823   7.520   5.034
 8011WAT      O24274   2.219   7.745   6.626
 8011WAT     H124275   2.173   7.770   6.711
 8011WAT     H224276   2.317   7.767   6.634
 8012WAT      O24277   6.311   5.804   8.973
 8012WAT     H124278   6.329   5.860   8.892
 8012WAT     H224279   6.332   5.709   8.953
 8013WAT      O24280   3.816   3.285   2.304
 8013WAT     H124281   3.882   3.270   2.377
 8013WAT     H224282   3.723   3.272   2.339
 8014WAT      O24283   7.210   0.336   4.783
 8014WAT     H124284   7.160   0.419   4.759
 8014WAT     H224285   7.149   0.257   4.775
 8015WAT      O24286   0.409   7.365   8.482
 8015WAT     H124287   0.414   7.462   8.458
 8015WAT     H224288   0.458   7.349   8.567
 8016WAT      O24289   8.431   2.632   8.872
 8016WAT     H124290   8.358   2.614   8.938
 8016WAT     H224291   8.392   2.646   8.781
 8017WAT      O24292   4.565   6.880   2.996
 8017WAT     H124293   4.635   6.909   2.930
 8017WAT     H224294   4.519   6.798   2.962
 8018WAT      O24295   8.130   0.891   6.544
 8018WAT     H124296   8.057   0.921   6.483
 8018WAT     H224297   8.113   0.796   6.572
 8019WAT      O24298   0.531   8.933   0.647
 8019WAT     H124299   0.526   8.922   0.548
 8019WAT     H224300   0.627   8.931   0.675
 8020WAT      O24301   4.246   0.291   4.092
 8020WAT     H124302   4.249   0.192   4.102
 8020WAT     H224303   4.338   0.326   4.077
 8021WAT      O24304   3.751   4.062   5.899
 8021WAT     H124305   3.767   4.027   5.807
 8021WAT     H224306   3.710   4.154   5.893
 8022WAT      O24307   2.579   0.182   5.278
 8022WAT     H124308   2.664   0.201   5.229
 8022WAT     H224309   2.564   0.253   5.346
 8023WAT      O24310   2.800   1.145   6.897
 8023WAT     H124311   2.763   1.237   6.880
 8023WAT     H224312   2.832   1.139   6.991
 8024WAT      O24313   8.001   1.190   0.826
 8024WAT     H124314   7.961   1.260   0.767
 8024WAT     H224315   7.955   1.191   0.915
 8025WAT      O24316   0.579   0.908   9.200
 8025WAT     H124317   0.494   0.860   9.179
 8025WAT     H224318   0.596   0.905   9.298
 8026WAT      O24319   8.096   0.667   5.601
 8026WAT     H124320   8.070   0.648   5.506
 8026WAT     H224321   8.025   0.720   5.646
 8027WAT      O24322   5.402   3.340   0.560
 8027WAT     H124323   5.492   3.336   0.603
 8027WAT     H224324   5.344   3.269   0.599
 8028WAT      O24325   5.129   4.188   3.517
 8028WAT     H124326   5.045   4.214   3.564
 8028WAT     H224327   5.192   4.145   3.582
 8029WAT      O24328   7.135   5.714   2.791
 8029WAT     H124329   7.191   5.721   2.709
 8029WAT     H224330   7.194   5.696   2.870
 8030WAT      O24331   2.284   7.398   9.747
 8030WAT     H124332   2.290   7.300   9.728
 8030WAT     H224333   2.258   7.412   9.842
 8031WAT      O24334   4.136   8.230   3.126
 8031WAT     H124335   4.193   8.295   3.176
 8031WAT     H224336   4.189   8.188   3.053
 8032WAT      O24337   9.454   9.635   2.288
 8032WAT     H124338   9.518   9.591   2.224
 8032WAT     H224339   9.506   9.675   2.364
 8033WAT      O24340   9.380   2.799   2.268
 8033WAT     H124341   9.420   2.714   2.302
 8033WAT     H224342   9.281   2.798   2.283
 8034WAT      O24343   6.139   4.318   1.804
 8034WAT     H124344   6.233   4.284   1.795
 8034WAT     H224345   6.140   4.418   1.809
 8035WAT      O24346   1.408   2.523   7.348
 8035WAT     H124347   1.501   2.486   7.353
 8035WAT     H224348   1.364   2.491   7.264
 8036WAT      O24349   4.937   5.883   2.313
 8036WAT     H124350   4.847   5.927   2.304
 8036WAT     H224351   4.954   5.827   2.232
 8037WAT      O24352   2.062   8.716   1.006
 8037WAT     H124353   2.058   8.623   0.969
 8037WAT     H224354   1.986   8.730   1.069
 8038WAT      O24355   8.535   6.981   4.300
 8038WAT     H124356   8.495   6.901   4.346
 8038WAT     H224357   8.507   6.982   4.204
 8039WAT      O24358   1.623   6.458   2.716
 8039WAT     H124359   1.610   6.482   2.620
 8039WAT     H224360   1.709   6.496   2.749
 8040WAT      O24361   7.588   5.990   8.622
 8040WAT     H124362   7.588   6.086   8.650
 8040WAT     H224363   7.621   5.933   8.698
 8041WAT      O24364   2.975   5.452   9.204
 8041WAT     H124365   2.981   5.403   9.117
 8041WAT     H224366   3.029   5.403   9.273
 8042WAT      O24367   7.172   1.945   8.362
 8042WAT     H124368   7.257   1.955   8.414
 8042WAT     H224369   7.098   1.919   8.423
 8043WAT      O24370   2.913   4.107   0.118
 8043WAT     H124371   3.011   4.104   0.138
 8043WAT     H224372   2.865   4.157   0.191
 8044WAT      O24373   1.129   1.152   8.708
 8044WAT     H124374   1.138   1.246   8.743
 8044WAT     H224375   1.072   1.152   8.627
 8045WAT      O24376   4.064   2.263   1.238
 8045WAT     H124377   3.971   2.265   1.201
 8045WAT     H224378   4.125   2.222   1.170
 8046WAT      O24379   7.634   1.978   8.416
 8046WAT     H124380   7.715   1.924   8.441
 8046WAT     H224381   7.654   2.030   8.332
 8047WAT      O24382   0.037   0.065   4.744
 8047WAT     H124383   0.082   0.019   4.820
 8047WAT     H224384   0.067   0.024   4.658
 8048WAT      O24385   4.483   9.711   5.977
 8048WAT     H124386   4.553   9.662   5.924
 8048WAT     H224387   4.474   9.804   5.942
 8049WAT      O24388   7.574   1.726   3.155
 8049WAT     H124389   7.626   1.648   3.119
 8049WAT     H224390   7.558   1.714   3.253
 8050WAT      O24391   9.233   1.996   2.520
 8050WAT     H124392   9.282   2.081   2.499
 8050WAT     H224393   9.150   1.990   2.465
 8051WAT      O24394   9.149   2.812   9.793
 8051WAT     H124395   9.058   2.844   9.819
 8051WAT     H224396   9.216   2.843   9.861
 8052WAT      O24397   6.437   5.503   8.180
 8052WAT     H124398   6.411   5.531   8.272
 8052WAT     H224399   6.519   5.445   8.184
 8053WAT      O24400   8.786   9.776   5.119
 8053WAT     H124401   8.714   9.707   5.121
 8053WAT     H224402   8.748   9.864   5.091
 8054WAT      O24403   2.669   3.167   2.260
 8054WAT     H124404   2.707   3.259   2.247
 8054WAT     H224405   2.577   3.163   2.220
 8055WAT      O24406   1.958   0.127   3.396
 8055WAT     H124407   1.992   0.040   3.433
 8055WAT     H224408   2.008   0.203   3.437
 8056WAT      O24409   5.687   8.005   8.425
 8056WAT     H124410   5.650   7.935   8.487
 8056WAT     H224411   5.611   8.051   8.378
 8057WAT      O24412   5.992   3.498   8.986
 8057WAT     H124413   5.905   3.509   8.939
 8057WAT     H224414   6.066   3.525   8.924
 8058WAT      O24415   1.398   3.083   7.381
 8058WAT     H124416   1.462   3.008   7.363
 8058WAT     H224417   1.351   3.108   7.297
 8059WAT      O24418   2.334   9.429   9.850
 8059WAT     H124419   2.403   9.474   9.906
 8059WAT     H224420   2.280   9.498   9.802
 8060WAT      O24421   0.455   8.349   1.024
 8060WAT     H124422   0.543   8.391   1.045
 8060WAT     H224423   0.393   8.419   0.989
 8061WAT      O24424   7.341   6.961   3.811
 8061WAT     H124425   7.311   7.030   3.745
 8061WAT     H224426   7.431   6.926   3.784
 8062WAT      O24427   5.255   4.955   9.312
 8062WAT     H124428   5.330   4.973   9.249
 8062WAT     H224429   5.290   4.945   9.405
 8063WAT      O24430   3.094   4.335   5.243
 8063WAT     H124431   3.121   4.352   5.149
 8063WAT     H224432   3.004   4.375   5.260
 8064WAT      O24433   7.291   2.087   0.881
 8064WAT     H124434   7.313   2.043   0.794
 8064WAT     H224435   7.275   2.185   0.866
 8065WAT      O24436   3.138   8.714   2.863
 8065WAT     H124437   3.229   8.705   2.904
 8065WAT     H224438   3.129   8.805   2.823
 8066WAT      O24439   0.359   2.137   1.543
 8066WAT     H124440   0.447   2.094   1.525
 8066WAT     H224441   0.364   2.189   1.628
 8067WAT      O24442   9.574   4.932   6.717
 8067WAT     H124443   9.616   5.019   6.691
 8067WAT     H224444   9.482   4.927   6.680
 8068WAT      O24445   5.655   0.770   8.681
 8068WAT     H124446   5.613   0.724   8.603
 8068WAT     H224447   5.686   0.861   8.653
 8069WAT      O24448   5.034   6.223   8.841
 8069WAT     H124449   5.047   6.131   8.877
 8069WAT     H224450   4.945   6.229   8.796
 8070WAT      O24451   4.009   9.126   7.507
 8070WAT     H124452   4.033   9.223   7.513
 8070WAT     H224453   3.940   9.113   7.436
 8071WAT      O24454   5.581   7.815   8.640
 8071WAT     H124455   5.575   7.883   8.713
 8071WAT     H224456   5.672   7.774   8.641
 8072WAT      O24457   3.559   2.893   3.342
 8072WAT     H124458   3.616   2.830   3.396
 8072WAT     H224459   3.603   2.983   3.338
 8073WAT      O24460   3.871   0.329   4.320
 8073WAT     H124461   3.951   0.384   4.299
 8073WAT     H224462   3.797   0.353   4.257
 8074WAT      O24463   7.647   7.174   9.222
 8074WAT     H124464   7.679   7.265   9.194
 8074WAT     H224465   7.552   7.162   9.193
 8075WAT      O24466   2.337   5.721   6.085
 8075WAT     H124467   2.358   5.658   6.159
 8075WAT     H224468   2.295   5.803   6.122
 8076WAT      O24469   8.829   5.798   6.573
 8076WAT     H124470   8.781   5.719   6.536
 8076WAT     H224471   8.845   5.784   6.671
 8077WAT      O24472   5.428   0.395   3.152
 8077WAT     H124473   5.359   0.467   3.145
 8077WAT     H224474   5.465   0.393   3.244
 8078WAT      O24475   3.553   6.665   7.352
 8078WAT     H124476   3.618   6.613   7.407
 8078WAT     H224477   3.484   6.706   7.412
 8079WAT      O24478   8.908   1.776   1.923
 8079WAT     H124479   8.875   1.865   1.891
 8079WAT     H224480   8.962   1.788   2.007
 8080WAT      O24481   6.023   6.315   9.077
 8080WAT     H124482   6.082   6.276   9.148
 8080WAT     H224483   5.940   6.260   9.070
 8081WAT      O24484   3.533   1.126   2.148
 8081WAT     H124485   3.497   1.033   2.143
 8081WAT     H224486   3.538   1.165   2.055
 8082WAT      O24487   7.180   6.355   8.112
 8082WAT     H124488   7.171   6.292   8.189
 8082WAT     H224489   7.276   6.369   8.091
 8083WAT      O24490   4.984   7.918   5.436
 8083WAT     H124491   4.963   7.887   5.529
 8083WAT     H224492   5.081   7.940   5.429
 8084WAT      O24493   9.389   0.188   7.763
 8084WAT     H124494   9.371   0.104   7.814
 8084WAT     H224495   9.302   0.230   7.736
 8085WAT      O24496   5.154   0.725   0.992
 8085WAT     H124497   5.077   0.765   1.042
 8085WAT     H224498   5.229   0.792   0.989
 8086WAT      O24499   7.876   8.145   0.288
 8086WAT     H124500   7.901   8.213   0.219
 8086WAT     H224501   7.782   8.161   0.317
 8087WAT      O24502   7.079   1.407   0.343
 8087WAT     H124503   7.034   1.415   0.432
 8087WAT     H224504   7.144   1.481   0.331
 8088WAT      O24505   2.122   4.081   3.386
 8088WAT     H124506   2.206   4.120   3.346
 8088WAT     H224507   2.046   4.095   3.323
 8089WAT      O24508   6.541   6.282   1.770
 8089WAT     H124509   6.527   6.357   1.706
 8089WAT     H224510   6.555   6.320   1.862
 8090WAT      O24511   9.561   3.354   2.604
 8090WAT     H124512   9.571   3.403   2.518
 8090WAT     H224513   9.580   3.415   2.680
 8091WAT      O24514   5.802   1.405   1.605
 8091WAT     H124515   5.822   1.360   1.518
 8091WAT     H224516   5.751   1.489   1.588
 8092WAT      O24517   3.044   5.873   0.636
 8092WAT     H124518   3.131   5.889   0.682
 8092WAT     H224519   3.049   5.790   0.581
 8093WAT      O24520   8.538   0.088   5.938
 8093WAT     H124521   8.570   0.038   5.858
 8093WAT     H224522   8.453   0.136   5.915
 8094WAT      O24523   3.457   4.784   5.782
 8094WAT     H124524   3.461   4.884   5.782
 8094WAT     H224525   3.418   4.753   5.868
 8095WAT      O24526   0.577   5.976   0.750
 8095WAT     H124527   0.617   5.917   0.820
 8095WAT     H224528   0.548   5.921   0.672
 8096WAT      O24529   1.585   7.082   6.385
 8096WAT     H124530   1.609   6.992   6.348
 8096WAT     H224531   1.578   7.076   6.485
 8097WAT      O24532   8.515   2.045   3.231
 8097WAT     H124533   8.553   2.007   3.315
 8097WAT     H224534   8.571   2.122   3.200
 8098WAT      O24535   4.098   7.069   6.024
 8098WAT     H124536   4.071   7.110   5.937
 8098WAT     H224537   4.034   6.996   6.048
 8099WAT      O24538   2.238   4.478   1.797
 8099WAT     H124539   2.247   4.416   1.718
 8099WAT     H224540   2.264   4.429   1.880
 8100WAT      O24541   4.162   5.930   3.847
 8100WAT     H124542   4.127   5.911   3.938
 8100WAT     H224543   4.193   5.845   3.804
 8101WAT      O24544   9.460   8.975   6.777
 8101WAT     H124545   9.481   9.049   6.841
 8101WAT     H224546   9.362   8.960   6.773
 8102WAT      O24547   8.610   6.562   8.389
 8102WAT     H124548   8.694   6.516   8.416
 8102WAT     H224549   8.601   6.647   8.441
 8103WAT      O24550   3.082   0.515   0.953
 8103WAT     H124551   3.100   0.613   0.964
 8103WAT     H224552   3.096   0.469   1.040
 8104WAT      O24553   1.993   0.677   7.879
 8104WAT     H124554   1.999   0.768   7.921
 8104WAT     H224555   2.051   0.614   7.930
 8105WAT      O24556   9.366   7.582   0.287
 8105WAT     H124557   9.446   7.626   0.329
 8105WAT     H224558   9.386   7.563   0.190
 8106WAT      O24559   5.343   6.717   7.632
 8106WAT     H124560   5.265   6.673   7.677
 8106WAT     H224561   5.324   6.725   7.534
 8107WAT      O24562   4.408   0.878   1.824
 8107WAT     H124563   4.350   0.847   1.900
 8107WAT     H224564   4.381   0.971   1.797
 8108WAT      O24565   0.896   7.523   5.361
 8108WAT     H124566   0.882   7.621   5.373
 8108WAT     H224567   0.946   7.486   5.439
 8109WAT      O24568   8.841   9.495   5.254
 8109WAT     H124569   8.781   9.484   5.333
 8109WAT     H224570   8.929   9.450   5.272
 8110WAT      O24571   7.508   7.018   6.860
 8110WAT     H124572   7.541   6.939   6.809
 8110WAT     H224573   7.417   7.044   6.827
 8111WAT      O24574   9.051   8.266   2.659
 8111WAT     H124575   8.971   8.287   2.603
 8111WAT     H224576   9.129   8.320   2.628
 8112WAT      O24577   5.286   4.284   0.313
 8112WAT     H124578   5.265   4.250   0.405
 8112WAT     H224579   5.293   4.383   0.315
 8113WAT      O24580   1.938   1.902   9.227
 8113WAT     H124581   1.882   1.913   9.310
 8113WAT     H224582   2.018   1.845   9.247
 8114WAT      O24583   8.493   5.638   3.047
 8114WAT     H124584   8.546   5.644   2.962
 8114WAT     H224585   8.469   5.730   3.077
 8115WAT      O24586   1.714   2.148   2.702
 8115WAT     H124587   1.666   2.215   2.647
 8115WAT     H224588   1.784   2.102   2.647
 8116WAT      O24589   9.424   9.097   3.163
 8116WAT     H124590   9.497   9.063   3.222
 8116WAT     H224591   9.429   9.051   3.074
 8117WAT      O24592   9.440   8.099   1.663
 8117WAT     H124593   9.461   8.104   1.760
 8117WAT     H224594   9.458   8.188   1.620
 8118WAT      O24595   8.398   8.608   5.971
 8118WAT     H124596   8.390   8.693   5.919
 8118WAT     H224597   8.458   8.544   5.922
 8119WAT      O24598   9.137   4.485   4.651
 8119WAT     H124599   9.180   4.486   4.741
 8119WAT     H224600   9.182   4.551   4.591
 8120WAT      O24601   4.749   4.655   9.595
 8120WAT     H124602   4.792   4.599   9.525
 8120WAT     H224603   4.758   4.752   9.570
 8121WAT      O24604   6.344   3.951   6.027
 8121WAT     H124605   6.307   4.043   6.037
 8121WAT     H224606   6.275   3.884   6.051
 8122WAT      O24607   1.047   9.718   4.311
 8122WAT     H124608   0.965   9.742   4.258
 8122WAT     H224609   1.075   9.625   4.290
 8123WAT      O24610   1.315   0.619   4.672
 8123WAT     H124611   1.367   0.540   4.640
 8123WAT     H224612   1.218   0.606   4.653
 8124WAT      O24613   0.675   2.399   1.699
 8124WAT     H124614   0.648   2.495   1.704
 8124WAT     H224615   0.680   2.370   1.603
 8125WAT      O24616   5.269   5.251   8.536
 8125WAT     H124617   5.330   5.180   8.501
 8125WAT     H224618   5.213   5.213   8.610
 8126WAT      O24619   3.626   6.457   3.458
 8126WAT     H124620   3.613   6.511   3.375
 8126WAT     H224621   3.593   6.364   3.442
 8127WAT      O24622   7.437   6.442   7.597
 8127WAT     H124623   7.424   6.343   7.602
 8127WAT     H224624   7.527   6.466   7.633
 8128WAT      O24625   8.700   7.990   5.765
 8128WAT     H124626   8.757   8.045   5.704
 8128WAT     H224627   8.641   7.930   5.711
 8129WAT      O24628   1.987   1.518   4.375
 8129WAT     H124629   1.910   1.498   4.315
 8129WAT     H224630   2.048   1.584   4.331
 8130WAT      O24631   5.005   3.159   4.320
 8130WAT     H124632   4.951   3.092   4.371
 8130WAT     H224633   5.077   3.112   4.269
 8131WAT      O24634   8.308   7.923   7.445
 8131WAT     H124635   8.388   7.940   7.387
 8131WAT     H224636   8.256   7.846   7.409
 8132WAT      O24637   3.676   6.171   1.137
 8132WAT     H124638   3.689   6.075   1.114
 8132WAT     H224639   3.645   6.221   1.057
 8133WAT      O24640   3.504   2.327   8.921
 8133WAT     H124641   3.528   2.385   8.844
 8133WAT     H224642   3.558   2.354   9.001
 8134WAT      O24643   2.897   1.528   7.182
 8134WAT     H124644   2.806   1.486   7.174
 8134WAT     H224645   2.964   1.474   7.132
 8135WAT      O24646   4.245   1.070   5.776
 8135WAT     H124647   4.147   1.066   5.754
 8135WAT     H224648   4.257   1.104   5.870
 8136WAT      O24649   0.663   5.496   3.324
 8136WAT     H124650   0.622   5.568   3.381
 8136WAT     H224651   0.596   5.425   3.307
 8137WAT      O24652   6.865   1.658   8.092
 8137WAT     H124653   6.849   1.704   8.005
 8137WAT     H224654   6.898   1.565   8.075
 8138WAT      O24655   3.865   3.638   5.149
 8138WAT     H124656   3.860   3.655   5.050
 8138WAT     H224657   3.941   3.691   5.187
 8139WAT      O24658   0.492   0.060   3.176
 8139WAT     H124659   0.436   0.089   3.098
 8139WAT     H224660   0.541  -0.023   3.153
 8140WAT      O24661   0.553   0.645   9.012
 8140WAT     H124662   0.568   0.642   9.111
 8140WAT     H224663   0.639   0.668   8.966
 8141WAT      O24664   1.766   2.854   2.667
 8141WAT     H124665   1.739   2.768   2.624
 8141WAT     H224666   1.834   2.900   2.609
 8142WAT      O24667   7.502   8.274   7.269
 8142WAT     H124668   7.593   8.298   7.234
 8142WAT     H224669   7.509   8.245   7.364
 8143WAT      O24670   9.415   2.842   3.759
 8143WAT     H124671   9.491   2.785   3.791
 8143WAT     H224672   9.451   2.922   3.712
 8144WAT      O24673   4.777   1.601   7.526
 8144WAT     H124674   4.858   1.543   7.525
 8144WAT     H224675   4.763   1.638   7.618
 8145WAT      O24676   7.280   5.294   2.825
 8145WAT     H124677   7.248   5.201   2.843
 8145WAT     H224678   7.245   5.355   2.896
 8146WAT      O24679   8.018   0.133   9.796
 8146WAT     H124680   7.990   0.134   9.700
 8146WAT     H224681   7.937   0.137   9.854
 8147WAT      O24682   7.600   2.107   2.718
 8147WAT     H124683   7.574   2.023   2.766
 8147WAT     H224684   7.526   2.174   2.726
 8148WAT      O24685   5.050   4.249   2.865
 8148WAT     H124686   5.126   4.187   2.851
 8148WAT     H224687   5.039   4.308   2.785
 8149WAT      O24688   8.596   4.945   5.922
 8149WAT     H124689   8.674   4.885   5.940
 8149WAT     H224690   8.606   4.987   5.832
 8150WAT      O24691   9.659   4.258   7.760
 8150WAT     H124692   9.583   4.299   7.811
 8150WAT     H224693   9.696   4.181   7.812
 8151WAT      O24694   6.007   4.792   9.754
 8151WAT     H124695   5.990   4.790   9.853
 8151WAT     H224696   6.050   4.707   9.725
 8152WAT      O24697   7.849   8.586   8.713
 8152WAT     H124698   7.889   8.498   8.688
 8152WAT     H224699   7.896   8.623   8.793
 8153WAT      O24700   8.289   7.138   0.165
 8153WAT     H124701   8.195   7.134   0.199
 8153WAT     H224702   8.290   7.175   0.073
 8154WAT      O24703   8.914   3.203   5.240
 8154WAT     H124704   8.938   3.300   5.239
 8154WAT     H224705   8.983   3.153   5.292
 8155WAT      O24706   2.301   6.904   3.716
 8155WAT     H124707   2.282   7.002   3.719
 8155WAT     H224708   2.304   6.874   3.620
 8156WAT      O24709   3.819   5.311   4.981
 8156WAT     H124710   3.838   5.393   4.927
 8156WAT     H224711   3.723   5.311   5.010
 8157WAT      O24712   4.177   5.360   3.814
 8157WAT     H124713   4.237   5.334   3.738
 8157WAT     H224714   4.082   5.345   3.788
 8158WAT      O24715   6.408   6.214   5.413
 8158WAT     H124716   6.362   6.146   5.356
 8158WAT     H224717   6.466   6.168   5.479
 8159WAT      O24718   0.249   4.902   8.244
 8159WAT     H124719   0.289   4.813   8.222
 8159WAT     H224720   0.153   4.903   8.216
 8160WAT      O24721   1.143   5.992   2.183
 8160WAT     H124722   1.242   5.980   2.181
 8160WAT     H224723   1.120   6.086   2.158
 8161WAT      O24724   1.662   3.822   7.596
 8161WAT     H124725   1.751   3.785   7.622
 8161WAT     H224726   1.667   3.922   7.591
 8162WAT      O24727   9.661   6.637   0.741
 8162WAT     H124728   9.751   6.620   0.783
 8162WAT     H224729   9.603   6.687   0.805
 8163WAT      O24730   0.028   5.663   0.328
 8163WAT     H124731   0.042   5.759   0.354
 8163WAT     H224732   0.043   5.653   0.229
 8164WAT      O24733   8.179   0.319   3.495
 8164WAT     H124734   8.193   0.325   3.397
 8164WAT     H224735   8.267   0.313   3.542
 8165WAT      O24736   5.771   7.964   5.067
 8165WAT     H124737   5.846   7.967   5.132
 8165WAT     H224738   5.709   7.889   5.090
 8166WAT      O24739   8.515   5.109   3.540
 8166WAT     H124740   8.442   5.130   3.475
 8166WAT     H224741   8.601   5.149   3.508
 8167WAT      O24742   1.470   6.513   3.537
 8167WAT     H124743   1.412   6.460   3.476
 8167WAT     H224744   1.528   6.452   3.590
 8168WAT      O24745   5.876   4.807   2.434
 8168WAT     H124746   5.963   4.815   2.386
 8168WAT     H224747   5.828   4.895   2.432
 8169WAT      O24748   2.307   4.922   5.990
 8169WAT     H124749   2.330   4.939   5.894
 8169WAT     H224750   2.292   5.009   6.036
 8170WAT      O24751   4.364   3.294   6.876
 8170WAT     H124752   4.313   3.352   6.812
 8170WAT     H224753   4.446   3.259   6.830
 8171WAT      O24754   4.155   2.047   9.398
 8171WAT     H124755   4.104   1.968   9.363
 8171WAT     H224756   4.252   2.023   9.403
 8172WAT      O24757   7.293   9.344   0.624
 8172WAT     H124758   7.218   9.410   0.629
 8172WAT     H224759   7.295   9.290   0.708
 8173WAT      O24760   0.763   8.809   1.576
 8173WAT     H124761   0.719   8.895   1.552
 8173WAT     H224762   0.848   8.799   1.524
 8174WAT      O24763   8.052   9.146   6.614
 8174WAT     H124764   7.990   9.070   6.594
 8174WAT     H224765   8.146   9.117   6.596
 8175WAT      O24766   6.400   3.341   9.766
 8175WAT     H124767   6.457   3.259   9.755
 8175WAT     H224768   6.362   3.343   9.859
 8176WAT      O24769   3.843   5.039   9.420
 8176WAT     H124770   3.814   5.050   9.325
 8176WAT     H224771   3.943   5.041   9.424
 8177WAT      O24772   4.036   8.909   1.534
 8177WAT     H124773   4.121   8.951   1.503
 8177WAT     H224774   4.047   8.877   1.628
 8178WAT      O24775   4.369   1.043   4.882
 8178WAT     H124776   4.451   1.100   4.873
 8178WAT     H224777   4.320   1.067   4.966
 8179WAT      O24778   8.078   1.311   6.440
 8179WAT     H124779   8.081   1.357   6.352
 8179WAT     H224780   7.983   1.302   6.470
 8180WAT      O24781   1.878   2.235   8.348
 8180WAT     H124782   1.867   2.163   8.280
 8180WAT     H224783   1.819   2.312   8.325
 8181WAT      O24784   1.885   4.511   1.052
 8181WAT     H124785   1.951   4.560   1.110
 8181WAT     H224786   1.806   4.569   1.035
 8182WAT      O24787   9.622   1.601   8.188
 8182WAT     H124788   9.587   1.511   8.213
 8182WAT     H224789   9.676   1.638   8.263
 8183WAT      O24790   9.380   1.473   5.292
 8183WAT     H124791   9.368   1.553   5.233
 8183WAT     H224792   9.424   1.399   5.240
 8184WAT      O24793   9.108   5.600   0.393
 8184WAT     H124794   9.090   5.593   0.295
 8184WAT     H224795   9.094   5.511   0.436
 8185WAT      O24796   3.512   9.697   5.666
 8185WAT     H124797   3.605   9.697   5.702
 8185WAT     H224798   3.452   9.649   5.730
 8186WAT      O24799   3.494   6.048   6.332
 8186WAT     H124800   3.536   6.116   6.273
 8186WAT     H224801   3.562   5.980   6.359
 8187WAT      O24802   6.797   9.476   0.122
 8187WAT     H124803   6.864   9.510   0.188
 8187WAT     H224804   6.767   9.552   0.064
 8188WAT      O24805   2.143   7.033   8.417
 8188WAT     H124806   2.150   7.126   8.382
 8188WAT     H224807   2.234   6.998   8.439
 8189WAT      O24808   1.011   6.353   4.090
 8189WAT     H124809   0.912   6.351   4.104
 8189WAT     H224810   1.035   6.291   4.015
 8190WAT      O24811   7.081   6.291   6.019
 8190WAT     H124812   7.049   6.313   5.927
 8190WAT     H224813   7.116   6.374   6.063
 8191WAT      O24814   7.716   3.734   7.858
 8191WAT     H124815   7.622   3.747   7.889
 8191WAT     H224816   7.751   3.647   7.893
 8192WAT      O24817   8.485   1.274   1.961
 8192WAT     H124818   8.394   1.257   1.998
 8192WAT     H224819   8.501   1.215   1.882
 8193WAT      O24820   3.709   1.141   6.829
 8193WAT     H124821   3.744   1.133   6.736
 8193WAT     H224822   3.776   1.190   6.886
 8194WAT      O24823   0.832   4.265   6.383
 8194WAT     H124824   0.852   4.354   6.424
 8194WAT     H224825   0.734   4.252   6.375
 8195WAT      O24826   4.813   1.992   3.826
 8195WAT     H124827   4.728   2.045   3.834
 8195WAT     H224828   4.891   2.053   3.837
 8196WAT      O24829   0.089   4.864   6.393
 8196WAT     H124830   0.099   4.766   6.374
 8196WAT     H224831   0.031   4.876   6.474
 8197WAT      O24832   5.545   7.692   8.418
 8197WAT     H124833   5.625   7.720   8.366
 8197WAT     H224834   5.550   7.730   8.510
 8198WAT      O24835   0.280   0.845   5.940
 8198WAT     H124836   0.369   0.868   5.980
 8198WAT     H224837   0.254   0.753   5.967
 8199WAT      O24838   2.057   9.034   7.897
 8199WAT     H124839   2.019   8.974   7.968
 8199WAT     H224840   2.019   9.009   7.808
 8200WAT      O24841   7.607   5.789   8.032
 8200WAT     H124842   7.537   5.810   8.100
 8200WAT     H224843   7.685   5.745   8.077
 8201WAT      O24844   8.538   7.593   1.905
 8201WAT     H124845   8.537   7.680   1.956
 8201WAT     H224846   8.485   7.604   1.821
 8202WAT      O24847   0.266   5.842   4.086
 8202WAT     H124848   0.271   5.897   4.170
 8202WAT     H224849   0.179   5.792   4.085
 8203WAT      O24850   0.125   4.893   5.756
 8203WAT     H124851   0.103   4.990   5.747
 8203WAT     H224852   0.224   4.880   5.750
 8204WAT      O24853   4.251   3.492   7.982
 8204WAT     H124854   4.163   3.484   8.029
 8204WAT     H224855   4.238   3.476   7.884
 8205WAT      O24856   3.583   1.248   4.243
 8205WAT     H124857   3.533   1.312   4.302
 8205WAT     H224858   3.639   1.188   4.299
 8206WAT      O24859   1.827   8.858   5.273
 8206WAT     H124860   1.866   8.802   5.201
 8206WAT     H224861   1.821   8.805   5.357
 8207WAT      O24862   4.799   5.414   3.614
 8207WAT     H124863   4.818   5.485   3.547
 8207WAT     H224864   4.865   5.420   3.688
 8208WAT      O24865   0.072   8.715   7.191
 8208WAT     H124866  -0.015   8.751   7.158
 8208WAT     H224867   0.135   8.791   7.209
 8209WAT      O24868   8.246   2.315   5.034
 8209WAT     H124869   8.236   2.414   5.027
 8209WAT     H224870   8.259   2.290   5.130
 8210WAT      O24871   2.341   4.775   4.825
 8210WAT     H124872   2.350   4.859   4.880
 8210WAT     H224873   2.332   4.799   4.729
 8211WAT      O24874   9.620   7.025   6.497
 8211WAT     H124875   9.709   6.987   6.472
 8211WAT     H224876   9.556   7.011   6.421
 8212WAT      O24877   8.235   0.086   2.417
 8212WAT     H124878   8.276   0.171   2.385
 8212WAT     H224879   8.254   0.012   2.352
 8213WAT      O24880   3.119   7.245   7.948
 8213WAT     H124881   3.022   7.234   7.924
 8213WAT     H224882   3.176   7.200   7.879
 8214WAT      O24883   4.985   8.763   8.551
 8214WAT     H124884   4.979   8.777   8.650
 8214WAT     H224885   4.948   8.673   8.528
 8215WAT      O24886   4.415   5.504   8.858
 8215WAT     H124887   4.473   5.577   8.820
 8215WAT     H224888   4.471   5.422   8.872
 8216WAT      O24889   8.576   5.730   1.566
 8216WAT     H124890   8.638   5.761   1.638
 8216WAT     H224891   8.623   5.733   1.478
 8217WAT      O24892   4.292   7.614   4.703
 8217WAT     H124893   4.274   7.544   4.773
 8217WAT     H224894   4.360   7.678   4.738
 8218WAT      O24895   5.064   5.986   8.954
 8218WAT     H124896   5.127   5.917   8.990
 8218WAT     H224897   5.025   6.039   9.029
 8219WAT      O24898   3.211   8.575   5.834
 8219WAT     H124899   3.145   8.578   5.758
 8219WAT     H224900   3.236   8.480   5.852
 8220WAT      O24901   1.856   0.564   1.972
 8220WAT     H124902   1.864   0.476   2.019
 8220WAT     H224903   1.773   0.611   2.004
 8221WAT      O24904   5.726   1.461   6.840
 8221WAT     H124905   5.789   1.385   6.822
 8221WAT     H224906   5.706   1.508   6.754
 8222WAT      O24907   9.488   9.087   2.707
 8222WAT     H124908   9.410   9.147   2.693
 8222WAT     H224909   9.545   9.123   2.781
 8223WAT      O24910   0.462   0.083   8.181
 8223WAT     H124911   0.485   0.127   8.095
 8223WAT     H224912   0.438  -0.013   8.165
 8224WAT      O24913   0.437   2.880   8.716
 8224WAT     H124914   0.441   2.843   8.623
 8224WAT     H224915   0.382   2.820   8.773
 8225WAT      O24916   1.438   2.714   3.722
 8225WAT     H124917   1.499   2.656   3.669
 8225WAT     H224918   1.412   2.668   3.807
 8226WAT      O24919   8.537   0.700   0.830
 8226WAT     H124920   8.535   0.683   0.928
 8226WAT     H224921   8.487   0.628   0.782
 8227WAT      O24922   9.530   3.202   0.115
 8227WAT     H124923   9.535   3.216   0.016
 8227WAT     H224924   9.486   3.114   0.134
 8228WAT      O24925   6.872   9.442   9.569
 8228WAT     H124926   6.971   9.447   9.580
 8228WAT     H224927   6.846   9.350   9.542
 8229WAT      O24928   2.619   2.825   4.805
 8229WAT     H124929   2.532   2.873   4.812
 8229WAT     H224930   2.665   2.826   4.894
 8230WAT      O24931   6.484   8.259   1.625
 8230WAT     H124932   6.474   8.227   1.531
 8230WAT     H224933   6.563   8.321   1.631
 8231WAT      O24934   2.348   5.584   5.500
 8231WAT     H124935   2.320   5.658   5.439
 8231WAT     H224936   2.359   5.620   5.593
 8232WAT      O24937   5.433   5.053   7.626
 8232WAT     H124938   5.426   5.119   7.701
 8232WAT     H224939   5.370   5.080   7.553
 8233WAT      O24940   6.739   3.601   8.820
 8233WAT     H124941   6.656   3.547   8.825
 8233WAT     H224942   6.716   3.696   8.798
 8234WAT      O24943   9.115   1.177   6.371
 8234WAT     H124944   9.093   1.189   6.275
 8234WAT     H224945   9.113   1.265   6.417
 8235WAT      O24946   9.539   2.914   0.388
 8235WAT     H124947   9.526   2.956   0.478
 8235WAT     H224948   9.635   2.926   0.360
 8236WAT      O24949   3.273   2.385   0.835
 8236WAT     H124950   3.283   2.483   0.815
 8236WAT     H224951   3.176   2.361   0.832
 8237WAT      O24952   2.372   0.154   7.519
 8237WAT     H124953   2.402   0.167   7.425
 8237WAT     H224954   2.275   0.128   7.520
 8238WAT      O24955   4.314   4.116   7.540
 8238WAT     H124956   4.410   4.090   7.541
 8238WAT     H224957   4.301   4.196   7.481
 8239WAT      O24958   7.543   9.155   1.369
 8239WAT     H124959   7.495   9.082   1.417
 8239WAT     H224960   7.556   9.129   1.273
 8240WAT      O24961   0.919   1.399   7.698
 8240WAT     H124962   1.015   1.406   7.674
 8240WAT     H224963   0.862   1.433   7.623
 8241WAT      O24964   6.961   4.669   5.654
 8241WAT     H124965   7.018   4.637   5.729
 8241WAT     H224966   6.867   4.638   5.668
 8242WAT      O24967   2.288   7.296   2.828
 8242WAT     H124968   2.197   7.338   2.832
 8242WAT     H224969   2.298   7.229   2.902
 8243WAT      O24970   2.737   5.910   3.634
 8243WAT     H124971   2.815   5.853   3.608
 8243WAT     H224972   2.700   5.878   3.721
 8244WAT      O24973   2.976   1.653   5.627
 8244WAT     H124974   2.979   1.627   5.723
 8244WAT     H224975   2.896   1.709   5.610
 8245WAT      O24976   4.066   0.965   2.137
 8245WAT     H124977   4.063   1.026   2.059
 8245WAT     H224978   3.974   0.953   2.175
 8246WAT      O24979   8.789   2.993   8.249
 8246WAT     H124980   8.728   3.065   8.216
 8246WAT     H224981   8.755   2.959   8.337
 8247WAT      O24982   5.091   3.629   9.313
 8247WAT     H124983   5.059   3.643   9.406
 8247WAT     H224984   5.035   3.682   9.250
 8248WAT      O24985   3.053   0.421   3.299
 8248WAT     H124986   3.017   0.333   3.269
 8248WAT     H224987   3.036   0.432   3.397
 8249WAT      O24988   3.920   7.356   6.161
 8249WAT     H124989   3.993   7.424   6.155
 8249WAT     H224990   3.856   7.368   6.086
 8250WAT      O24991   2.612   6.533   0.426
 8250WAT     H124992   2.688   6.488   0.379
 8250WAT     H224993   2.621   6.521   0.525
 8251WAT      O24994   3.546   0.074   9.165
 8251WAT     H124995   3.523   0.166   9.197
 8251WAT     H224996   3.596   0.081   9.078
 8252WAT      O24997   6.854   9.704   2.085
 8252WAT     H124998   6.851   9.730   1.989
 8252WAT     H224999   6.767   9.662   2.111
 8253WAT      O25000   9.504   3.365   1.097
 8253WAT     H125001   9.592   3.357   1.144
 8253WAT     H225002   9.431   3.374   1.164
 8254WAT      O25003   5.065   0.115   7.621
 8254WAT     H125004   5.163   0.128   7.636
 8254WAT     H225005   5.016   0.197   7.649
 8255WAT      O25006   9.241   9.739   0.059
 8255WAT     H125007   9.277   9.743  -0.034
 8255WAT     H225008   9.193   9.824   0.080
 8256WAT      O25009   8.560   3.182   2.583
 8256WAT     H125010   8.485   3.178   2.518
 8256WAT     H225011   8.646   3.199   2.534
 8257WAT      O25012   6.668   5.726   2.141
 8257WAT     H125013   6.751   5.763   2.099
 8257WAT     H225014   6.591   5.735   2.079
 8258WAT      O25015   6.235   8.390   3.524
 8258WAT     H125016   6.229   8.413   3.427
 8258WAT     H225017   6.296   8.454   3.570
 8259WAT      O25018   4.540   1.728   8.359
 8259WAT     H125019   4.442   1.744   8.343
 8259WAT     H225020   4.590   1.739   8.273
 8260WAT      O25021   4.952   4.046   3.348
 8260WAT     H125022   4.885   4.121   3.353
 8260WAT     H225023   5.031   4.069   3.405
 8261WAT      O25024   3.895   1.371   5.316
 8261WAT     H125025   3.796   1.372   5.310
 8261WAT     H225026   3.929   1.465   5.320
 8262WAT      O25027   6.029   7.501   9.829
 8262WAT     H125028   6.076   7.483   9.916
 8262WAT     H225029   6.059   7.589   9.792
 8263WAT      O25030   9.223   7.072   7.776
 8263WAT     H125031   9.258   7.159   7.811
 8263WAT     H225032   9.301   7.013   7.752
 8264WAT      O25033   5.342   3.484   7.006
 8264WAT     H125034   5.395   3.525   6.932
 8264WAT     H225035   5.399   3.479   7.089
 8265WAT      O25036   1.447   9.090   3.825
 8265WAT     H125037   1.422   9.063   3.919
 8265WAT     H225038   1.543   9.068   3.809
 8266WAT      O25039   8.612   2.097   4.958
 8266WAT     H125040   8.638   2.019   4.901
 8266WAT     H225041   8.571   2.168   4.902
 8267WAT      O25042   5.464   7.414   8.409
 8267WAT     H125043   5.506   7.504   8.417
 8267WAT     H225044   5.482   7.361   8.492
 8268WAT      O25045   1.675   3.320   6.512
 8268WAT     H125046   1.723   3.346   6.595
 8268WAT     H225047   1.651   3.401   6.459
 8269WAT      O25048   6.243   2.828   7.441
 8269WAT     H125049   6.210   2.812   7.348
 8269WAT     H225050   6.174   2.880   7.492
 8270WAT      O25051   7.847   2.037   5.367
 8270WAT     H125052   7.781   2.084   5.426
 8270WAT     H225053   7.853   2.085   5.279
 8271WAT      O25054   8.289   2.366   6.055
 8271WAT     H125055   8.334   2.280   6.032
 8271WAT     H225056   8.355   2.441   6.053
 8272WAT      O25057   6.805   4.470   4.616
 8272WAT     H125058   6.796   4.559   4.571
 8272WAT     H225059   6.884   4.422   4.580
 8273WAT      O25060   3.318   8.412   7.616
 8273WAT     H125061   3.381   8.336   7.630
 8273WAT     H225062   3.233   8.378   7.575
 8274WAT      O25063   8.515   8.029   0.998
 8274WAT     H125064   8.502   8.073   0.910
 8274WAT     H225065   8.494   7.931   0.990
 8275WAT      O25066   0.707   9.781   5.715
 8275WAT     H125067   0.741   9.860   5.663
 8275WAT     H225068   0.758   9.773   5.801
 8276WAT      O25069   3.722   2.444   6.004
 8276WAT     H125070   3.627   2.461   5.980
 8276WAT     H225071   3.760   2.373   5.944
 8277WAT      O25072   3.417   2.055   8.378
 8277WAT     H125073   3.354   2.045   8.301
 8277WAT     H225074   3.420   2.151   8.406
 8278WAT      O25075   8.026   1.992   2.935
 8278WAT     H125076   8.115   2.038   2.934
 8278WAT     H225077   8.005   1.959   2.843
 8279WAT      O25078   3.686   6.049   9.567
 8279WAT     H125079   3.784   6.066   9.567
 8279WAT     H225080   3.669   5.950   9.560
 8280WAT      O25081   3.782   8.443   9.181
 8280WAT     H125082   3.843   8.495   9.240
 8280WAT     H225083   3.711   8.503   9.144
 8281WAT      O25084   7.331   6.722   1.530
 8281WAT     H125085   7.234   6.745   1.522
 8281WAT     H225086   7.379   6.795   1.579
 8282WAT      O25087   3.215   1.684   2.092
 8282WAT     H125088   3.161   1.755   2.138
 8282WAT     H225089   3.159   1.636   2.026
 8283WAT      O25090   4.231   0.334   5.418
 8283WAT     H125091   4.235   0.434   5.417
 8283WAT     H225092   4.308   0.297   5.366
 8284WAT      O25093   2.405   6.338   4.923
 8284WAT     H125094   2.480   6.370   4.981
 8284WAT     H225095   2.405   6.238   4.921
 8285WAT      O25096   7.862   7.426   1.339
 8285WAT     H125097   7.947   7.374   1.351
 8285WAT     H225098   7.847   7.444   1.241
 8286WAT      O25099   1.458   2.963   0.712
 8286WAT     H125100   1.418   2.898   0.647
 8286WAT     H225101   1.427   3.055   0.690
 8287WAT      O25102   2.308   8.189   3.634
 8287WAT     H125103   2.403   8.214   3.614
 8287WAT     H225104   2.261   8.267   3.675
 8288WAT      O25105   9.570   5.237   9.877
 8288WAT     H125106   9.628   5.312   9.907
 8288WAT     H225107   9.479   5.272   9.853
 8289WAT      O25108   7.201   5.693   8.509
 8289WAT     H125109   7.192   5.696   8.410
 8289WAT     H225110   7.252   5.774   8.540
 8290WAT      O25111   4.908   7.603   9.360
 8290WAT     H125112   4.883   7.542   9.284
 8290WAT     H225113   4.872   7.694   9.343
 8291WAT      O25114   5.583   2.458   8.705
 8291WAT     H125115   5.604   2.528   8.636
 8291WAT     H225116   5.602   2.494   8.796
 8292WAT      O25117   6.734   6.625   3.776
 8292WAT     H125118   6.708   6.539   3.732
 8292WAT     H225119   6.717   6.701   3.713
 8293WAT      O25120   0.531   7.822   6.996
 8293WAT     H125121   0.481   7.873   6.926
 8293WAT     H225122   0.601   7.880   7.037
 8294WAT      O25123   0.571   8.171   0.367
 8294WAT     H125124   0.665   8.199   0.389
 8294WAT     H225125   0.533   8.119   0.444
 8295WAT      O25126   6.011   1.314   0.616
 8295WAT     H125127   6.067   1.357   0.688
 8295WAT     H225128   5.959   1.385   0.568
 8296WAT      O25129   9.475   5.880   2.073
 8296WAT     H125130   9.426   5.942   2.135
 8296WAT     H225131   9.415   5.806   2.045
 8297WAT      O25132   1.816   2.718   9.553
 8297WAT     H125133   1.723   2.745   9.580
 8297WAT     H225134   1.812   2.627   9.511
 8298WAT      O25135   3.768   1.602   8.890
 8298WAT     H125136   3.676   1.624   8.924
 8298WAT     H225137   3.802   1.520   8.937
 8299WAT      O25138   2.421   8.794   8.293
 8299WAT     H125139   2.474   8.740   8.227
 8299WAT     H225140   2.445   8.767   8.386
 8300WAT      O25141   8.986   0.094   9.492
 8300WAT     H125142   8.958   0.003   9.462
 8300WAT     H225143   8.950   0.163   9.429
 8301WAT      O25144   1.267   9.685   1.537
 8301WAT     H125145   1.253   9.777   1.573
 8301WAT     H225146   1.317   9.691   1.451
 8302WAT      O25147   5.092   3.735   7.121
 8302WAT     H125148   4.997   3.703   7.118
 8302WAT     H225149   5.132   3.731   7.029
 8303WAT      O25150   2.083   7.371   2.192
 8303WAT     H125151   2.080   7.368   2.292
 8303WAT     H225152   2.159   7.315   2.160
 8304WAT      O25153   3.951   4.085   8.069
 8304WAT     H125154   4.034   4.068   8.016
 8304WAT     H225155   3.976   4.127   8.156
 8305WAT      O25156   1.821   3.241   6.132
 8305WAT     H125157   1.756   3.317   6.132
 8305WAT     H225158   1.808   3.187   6.215
 8306WAT      O25159   7.976   8.418   0.803
 8306WAT     H125160   8.031   8.336   0.820
 8306WAT     H225161   7.937   8.414   0.711
 8307WAT      O25162   7.093   2.661   1.984
 8307WAT     H125163   7.154   2.616   1.919
 8307WAT     H225164   7.000   2.665   1.947
 8308WAT      O25165   2.844   2.870   6.641
 8308WAT     H125166   2.935   2.902   6.665
 8308WAT     H225167   2.775   2.926   6.686
 8309WAT      O25168   7.759   2.719   4.137
 8309WAT     H125169   7.734   2.755   4.226
 8309WAT     H225170   7.809   2.633   4.148
 8310WAT      O25171   4.566   8.852   3.623
 8310WAT     H125172   4.589   8.846   3.526
 8310WAT     H225173   4.467   8.854   3.633
 8311WAT      O25174   0.644   4.594   1.666
 8311WAT     H125175   0.626   4.594   1.568
 8311WAT     H225176   0.594   4.519   1.709
 8312WAT      O25177   3.747   8.115   7.950
 8312WAT     H125178   3.760   8.132   7.853
 8312WAT     H225179   3.806   8.039   7.979
 8313WAT      O25180   9.548   6.583   5.639
 8313WAT     H125181   9.541   6.506   5.703
 8313WAT     H225182   9.628   6.571   5.581
 8314WAT      O25183   7.644   0.739   6.586
 8314WAT     H125184   7.559   0.687   6.582
 8314WAT     H225185   7.688   0.725   6.675
 8315WAT      O25186   7.957   4.873   7.050
 8315WAT     H125187   7.904   4.812   7.108
 8315WAT     H225188   7.909   4.961   7.041
 8316WAT      O25189   9.032   5.408   4.889
 8316WAT     H125190   8.954   5.365   4.934
 8316WAT     H225191   9.003   5.490   4.842
 8317WAT      O25192   8.749   0.556   8.092
 8317WAT     H125193   8.731   0.626   8.023
 8317WAT     H225194   8.847   0.553   8.112
 8318WAT      O25195   4.884   0.548   4.921
 8318WAT     H125196   4.910   0.582   4.831
 8318WAT     H225197   4.930   0.602   4.992
 8319WAT      O25198   1.997   4.074   9.617
 8319WAT     H125199   1.953   4.157   9.649
 8319WAT     H225200   2.089   4.095   9.584
 8320WAT      O25201   8.466   3.067   1.437
 8320WAT     H125202   8.455   3.131   1.361
 8320WAT     H225203   8.501   3.115   1.517
 8321WAT      O25204   4.550   9.206   1.926
 8321WAT     H125205   4.584   9.162   1.843
 8321WAT     H225206   4.450   9.208   1.924
 8322WAT      O25207   3.692   3.725   1.660
 8322WAT     H125208   3.683   3.756   1.566
 8322WAT     H225209   3.789   3.712   1.682
 8323WAT      O25210   3.396   2.658   8.065
 8323WAT     H125211   3.432   2.595   8.134
 8323WAT     H225212   3.384   2.609   7.978
 8324WAT      O25213   6.971   2.423   7.456
 8324WAT     H125214   6.913   2.467   7.525
 8324WAT     H225215   6.978   2.326   7.475
 8325WAT      O25216   2.082   0.553   6.327
 8325WAT     H125217   2.126   0.468   6.300
 8325WAT     H225218   2.113   0.579   6.419
 8326WAT      O25219   3.058   9.257   7.621
 8326WAT     H125220   2.972   9.307   7.635
 8326WAT     H225221   3.132   9.321   7.606
 8327WAT      O25222   9.351   2.249   4.422
 8327WAT     H125223   9.268   2.305   4.421
 8327WAT     H225224   9.421   2.294   4.366
 8328WAT      O25225   3.419   1.939   4.425
 8328WAT     H125226   3.449   1.931   4.520
 8328WAT     H225227   3.498   1.957   4.366
 8329WAT      O25228   2.512   2.420   7.549
 8329WAT     H125229   2.489   2.329   7.584
 8329WAT     H225230   2.548   2.412   7.456
 8330WAT      O25231   8.260   5.594   9.092
 8330WAT     H125232   8.206   5.514   9.066
 8330WAT     H225233   8.203   5.659   9.141
 8331WAT      O25234   6.744   2.449   7.214
 8331WAT     H125235   6.822   2.459   7.277
 8331WAT     H225236   6.689   2.370   7.241
 8332WAT      O25237   8.281   8.499   3.479
 8332WAT     H125238   8.219   8.422   3.471
 8332WAT     H225239   8.317   8.523   3.389
 8333WAT      O25240   7.548   1.087   8.961
 8333WAT     H125241   7.551   1.156   8.888
 8333WAT     H225242   7.453   1.073   8.988
 8334WAT      O25243   8.748   1.170   2.282
 8334WAT     H125244   8.757   1.253   2.227
 8334WAT     H225245   8.763   1.191   2.378
 8335WAT      O25246   8.905   6.969   5.910
 8335WAT     H125247   8.902   7.049   5.849
 8335WAT     H225248   8.855   6.894   5.868
 8336WAT      O25249   1.063   3.313   4.534
 8336WAT     H125250   1.093   3.283   4.443
 8336WAT     H225251   1.143   3.341   4.587
 8337WAT      O25252   4.442   1.999   9.398
 8337WAT     H125253   4.497   1.915   9.403
 8337WAT     H225254   4.466   2.050   9.316
 8338WAT      O25255   6.381   4.699   3.782
 8338WAT     H125256   6.351   4.667   3.872
 8338WAT     H225257   6.304   4.742   3.735
 8339WAT      O25258   6.577   1.742   9.006
 8339WAT     H125259   6.512   1.817   9.008
 8339WAT     H225260   6.618   1.735   8.915
 8340WAT      O25261   4.715   8.959   7.742
 8340WAT     H125262   4.750   8.936   7.651
 8340WAT     H225263   4.624   8.920   7.753
 8341WAT      O25264   3.509   6.309   4.264
 8341WAT     H125265   3.466   6.221   4.241
 8341WAT     H225266   3.573   6.296   4.339
 8342WAT      O25267   4.590   7.916   5.146
 8342WAT     H125268   4.582   7.959   5.236
 8342WAT     H225269   4.605   7.818   5.157
 8343WAT      O25270   2.126   5.010   8.287
 8343WAT     H125271   2.124   4.987   8.385
 8343WAT     H225272   2.190   4.949   8.240
 8344WAT      O25273   3.869   9.724   3.022
 8344WAT     H125274   3.806   9.710   3.098
 8344WAT     H225275   3.911   9.814   3.029
 8345WAT      O25276   1.793   6.045   1.958
 8345WAT     H125277   1.823   5.999   1.875
 8345WAT     H225278   1.693   6.048   1.961
 8346WAT      O25279   6.573   0.913   5.416
 8346WAT     H125280   6.644   0.974   5.452
 8346WAT     H225281   6.483   0.953   5.432
 8347WAT      O25282   6.676   8.529   2.994
 8347WAT     H125283   6.611   8.599   3.023
 8347WAT     H225284   6.758   8.573   2.957
 8348WAT      O25285   6.688   1.658   4.656
 8348WAT     H125286   6.636   1.612   4.584
 8348WAT     H225287   6.768   1.703   4.616
 8349WAT      O25288   1.360   2.334   6.892
 8349WAT     H125289   1.438   2.380   6.848
 8349WAT     H225290   1.294   2.305   6.823
 8350WAT      O25291   5.659   6.392   2.150
 8350WAT     H125292   5.574   6.342   2.130
 8350WAT     H225293   5.653   6.431   2.242
 8351WAT      O25294   0.055   0.627   9.654
 8351WAT     H125295   0.124   0.562   9.622
 8351WAT     H225296   0.041   0.614   9.752
 8352WAT      O25297   0.777   7.308   2.431
 8352WAT     H125298   0.796   7.398   2.471
 8352WAT     H225299   0.798   7.237   2.498
 8353WAT      O25300   8.486   9.684   0.637
 8353WAT     H125301   8.417   9.742   0.681
 8353WAT     H225302   8.577   9.709   0.671
 8354WAT      O25303   0.080   5.390   3.093
 8354WAT     H125304  -0.017   5.403   3.117
 8354WAT     H225305   0.135   5.458   3.140
 8355WAT      O25306   2.807   2.905   8.751
 8355WAT     H125307   2.781   2.993   8.713
 8355WAT     H225308   2.727   2.845   8.755
 8356WAT      O25309   7.946   3.394   3.041
 8356WAT     H125310   8.043   3.370   3.037
 8356WAT     H225311   7.897   3.353   2.964
 8357WAT      O25312   3.508   2.780   1.260
 8357WAT     H125313   3.540   2.866   1.220
 8357WAT     H225314   3.477   2.718   1.188
 8358WAT      O25315   7.320   3.748   6.412
 8358WAT     H125316   7.273   3.682   6.354
 8358WAT     H225317   7.402   3.782   6.365
 8359WAT      O25318   5.155   7.496   9.108
 8359WAT     H125319   5.231   7.494   9.174
 8359WAT     H225320   5.180   7.554   9.031
 8360WAT      O25321   4.484   8.806   1.815
 8360WAT     H125322   4.490   8.711   1.844
 8360WAT     H225323   4.559   8.826   1.752
 8361WAT      O25324   6.111   4.207   0.901
 8361WAT     H125325   6.125   4.288   0.844
 8361WAT     H225326   6.188   4.195   0.963
 8362WAT      O25327   1.899   5.475   8.583
 8362WAT     H125328   1.926   5.525   8.501
 8362WAT     H225329   1.815   5.514   8.619
 8363WAT      O25330   4.244   6.856   8.676
 8363WAT     H125331   4.189   6.924   8.627
 8363WAT     H225332   4.224   6.765   8.641
 8364WAT      O25333   1.891   7.920   7.485
 8364WAT     H125334   1.861   7.979   7.560
 8364WAT     H225335   1.988   7.937   7.467
 8365WAT      O25336   5.136   6.411   1.283
 8365WAT     H125337   5.116   6.441   1.376
 8365WAT     H225338   5.161   6.490   1.227
 8366WAT      O25339   2.128   2.584   8.746
 8366WAT     H125340   2.142   2.544   8.837
 8366WAT     H225341   2.130   2.683   8.753
 8367WAT      O25342   0.904   8.480   5.503
 8367WAT     H125343   0.906   8.576   5.475
 8367WAT     H225344   0.854   8.426   5.436
 8368WAT      O25345   5.447   0.881   1.661
 8368WAT     H125346   5.540   0.868   1.627
 8368WAT     H225347   5.389   0.914   1.586
 8369WAT      O25348   7.795   3.376   5.398
 8369WAT     H125349   7.810   3.450   5.332
 8369WAT     H225350   7.749   3.413   5.479
 8370WAT      O25351   3.308   1.811   0.665
 8370WAT     H125352   3.348   1.879   0.726
 8370WAT     H225353   3.364   1.728   0.665
 8371WAT      O25354   1.309   0.433   3.489
 8371WAT     H125355   1.295   0.473   3.399
 8371WAT     H225356   1.225   0.388   3.519
 8372WAT      O25357   3.741   2.536   3.208
 8372WAT     H125358   3.711   2.450   3.165
 8372WAT     H225359   3.797   2.587   3.144
 8373WAT      O25360   4.852   3.149   8.673
 8373WAT     H125361   4.856   3.249   8.674
 8373WAT     H225362   4.776   3.118   8.731
 8374WAT      O25363   5.721   9.670   3.113
 8374WAT     H125364   5.784   9.594   3.132
 8374WAT     H225365   5.665   9.687   3.194
 8375WAT      O25366   3.076   9.488   4.956
 8375WAT     H125367   3.114   9.562   5.012
 8375WAT     H225368   3.149   9.448   4.899
 8376WAT      O25369   0.690   8.438   2.288
 8376WAT     H125370   0.708   8.534   2.310
 8376WAT     H225371   0.593   8.425   2.269
 8377WAT      O25372   8.663   0.824   4.922
 8377WAT     H125373   8.703   0.886   4.990
 8377WAT     H225374   8.727   0.750   4.902
 8378WAT      O25375   2.100   0.372   0.419
 8378WAT     H125376   2.030   0.382   0.348
 8378WAT     H225377   2.190   0.365   0.377
 8379WAT      O25378   6.234   0.430   7.953
 8379WAT     H125379   6.256   0.377   8.035
 8379WAT     H225380   6.313   0.486   7.929
 8380WAT      O25381   6.275   6.590   7.412
 8380WAT     H125382   6.227   6.511   7.372
 8380WAT     H225383   6.369   6.591   7.379
 8381WAT      O25384   4.046   6.125   6.945
 8381WAT     H125385   3.974   6.057   6.933
 8381WAT     H225386   4.006   6.216   6.953
 8382WAT      O25387   8.028   7.089   2.678
 8382WAT     H125388   7.999   7.045   2.594
 8382WAT     H225389   8.013   7.188   2.672
 8383WAT      O25390   5.207   7.557   8.256
 8383WAT     H125391   5.306   7.555   8.243
 8383WAT     H225392   5.163   7.493   8.193
 8384WAT      O25393   0.770   0.843   4.253
 8384WAT     H125394   0.776   0.865   4.155
 8384WAT     H225395   0.710   0.765   4.266
 8385WAT      O25396   4.047   4.836   6.096
 8385WAT     H125397   4.105   4.886   6.161
 8385WAT     H225398   4.099   4.819   6.012
 8386WAT      O25399   6.145   3.300   4.993
 8386WAT     H125400   6.161   3.270   5.087
 8386WAT     H225401   6.211   3.371   4.969
 8387WAT      O25402   6.173   0.692   4.892
 8387WAT     H125403   6.105   0.732   4.953
 8387WAT     H225404   6.133   0.617   4.841
 8388WAT      O25405   9.166   4.091   8.835
 8388WAT     H125406   9.165   4.131   8.927
 8388WAT     H225407   9.113   4.150   8.773
 8389WAT      O25408   5.517   7.486   4.952
 8389WAT     H125409   5.606   7.530   4.953
 8389WAT     H225410   5.448   7.550   4.917
 8390WAT      O25411   3.948   3.961   2.594
 8390WAT     H125412   3.877   3.941   2.526
 8390WAT     H225413   3.930   4.050   2.636
 8391WAT      O25414   2.721   0.923   8.480
 8391WAT     H125415   2.775   0.872   8.413
 8391WAT     H225416   2.625   0.921   8.454
 8392WAT      O25417   4.649   9.772   6.219
 8392WAT     H125418   4.597   9.686   6.215
 8392WAT     H225419   4.665   9.805   6.126
 8393WAT      O25420   5.897   1.222   1.396
 8393WAT     H125421   5.990   1.189   1.412
 8393WAT     H225422   5.834   1.145   1.395
 8394WAT      O25423   2.259   6.711   4.154
 8394WAT     H125424   2.307   6.721   4.067
 8394WAT     H225425   2.268   6.795   4.207
 8395WAT      O25426   2.141   2.480   5.229
 8395WAT     H125427   2.168   2.429   5.147
 8395WAT     H225428   2.059   2.534   5.208
 8396WAT      O25429   2.240   7.593   9.144
 8396WAT     H125430   2.302   7.517   9.124
 8396WAT     H225431   2.260   7.670   9.083
 8397WAT      O25432   2.958   1.659   8.095
 8397WAT     H125433   2.929   1.670   8.000
 8397WAT     H225434   2.879   1.630   8.150
 8398WAT      O25435   9.346   3.915   4.605
 8398WAT     H125436   9.290   3.964   4.538
 8398WAT     H225437   9.432   3.963   4.619
 8399WAT      O25438   7.652   1.545   8.756
 8399WAT     H125439   7.572   1.605   8.754
 8399WAT     H225440   7.708   1.566   8.836
 8400WAT      O25441   3.797   5.692   2.052
 8400WAT     H125442   3.714   5.704   2.106
 8400WAT     H225443   3.814   5.774   1.997
 8401WAT      O25444   2.574   0.400   9.296
 8401WAT     H125445   2.627   0.443   9.369
 8401WAT     H225446   2.476   0.403   9.320
 8402WAT      O25447   2.934   0.511   7.315
 8402WAT     H125448   2.977   0.602   7.314
 8402WAT     H225449   2.941   0.472   7.407
 8403WAT      O25450   0.278   2.352   0.812
 8403WAT     H125451   0.179   2.361   0.817
 8403WAT     H225452   0.304   2.256   0.823
 8404WAT      O25453   6.406   3.961   3.868
 8404WAT     H125454   6.463   3.999   3.941
 8404WAT     H225455   6.425   4.010   3.782
 8405WAT      O25456   1.698   0.015   3.478
 8405WAT     H125457   1.795   0.037   3.480
 8405WAT     H225458   1.645   0.097   3.455
 8406WAT      O25459   3.811   8.073   4.058
 8406WAT     H125460   3.767   8.040   3.975
 8406WAT     H225461   3.763   8.036   4.138
 8407WAT      O25462   8.006   3.693   5.473
 8407WAT     H125463   7.910   3.671   5.459
 8407WAT     H225464   8.023   3.714   5.569
 8408WAT      O25465   0.316   7.382   3.703
 8408WAT     H125466   0.301   7.384   3.802
 8408WAT     H225467   0.357   7.295   3.676
 8409WAT      O25468   9.422   5.082   2.619
 8409WAT     H125469   9.416   5.109   2.523
 8409WAT     H225470   9.491   5.139   2.665
 8410WAT      O25471   7.160   2.646   8.235
 8410WAT     H125472   7.069   2.625   8.201
 8410WAT     H225473   7.157   2.731   8.288
 8411WAT      O25474   5.942   8.295   5.619
 8411WAT     H125475   6.006   8.235   5.571
 8411WAT     H225476   5.890   8.348   5.552
 8412WAT      O25477   7.809   6.505   6.184
 8412WAT     H125478   7.720   6.517   6.228
 8412WAT     H225479   7.828   6.408   6.174
 8413WAT      O25480   1.466   7.365   7.351
 8413WAT     H125481   1.516   7.297   7.405
 8413WAT     H225482   1.514   7.452   7.355
 8414WAT      O25483   8.731   8.055   9.421
 8414WAT     H125484   8.727   8.151   9.392
 8414WAT     H225485   8.712   8.049   9.519
 8415WAT      O25486   3.713   5.172   3.497
 8415WAT     H125487   3.691   5.152   3.592
 8415WAT     H225488   3.657   5.115   3.437
 8416WAT      O25489   6.515   1.882   7.080
 8416WAT     H125490   6.520   1.906   7.177
 8416WAT     H225491   6.493   1.963   7.026
 8417WAT      O25492   9.879   0.903   8.138
 8417WAT     H125493   9.877   0.995   8.175
 8417WAT     H225494   9.922   0.904   8.048
 8418WAT      O25495   9.019   1.798   0.319
 8418WAT     H125496   9.027   1.898   0.328
 8418WAT     H225497   9.001   1.758   0.409
 8419WAT      O25498   2.881   5.007   3.132
 8419WAT     H125499   2.878   4.907   3.140
 8419WAT     H225500   2.796   5.040   3.092
 8420WAT      O25501   9.808   7.599   2.070
 8420WAT     H125502   9.877   7.528   2.068
 8420WAT     H225503   9.781   7.624   1.977
 8421WAT      O25504   7.625   5.600   1.495
 8421WAT     H125505   7.534   5.561   1.505
 8421WAT     H225506   7.619   5.692   1.457
 8422WAT      O25507   3.170   9.675   8.312
 8422WAT     H125508   3.092   9.682   8.250
 8422WAT     H225509   3.254   9.670   8.258
 8423WAT      O25510   8.679   9.279   4.378
 8423WAT     H125511   8.750   9.238   4.434
 8423WAT     H225512   8.589   9.256   4.415
 8424WAT      O25513   2.351   2.263   3.132
 8424WAT     H125514   2.430   2.323   3.136
 8424WAT     H225515   2.381   2.168   3.119
 8425WAT      O25516   1.947   6.735   4.627
 8425WAT     H125517   1.911   6.828   4.620
 8425WAT     H225518   1.910   6.690   4.708
 8426WAT      O25519   2.648   4.935   4.391
 8426WAT     H125520   2.745   4.957   4.382
 8426WAT     H225521   2.593   5.011   4.357
 8427WAT      O25522   8.560   1.912   2.439
 8427WAT     H125523   8.539   1.850   2.515
 8427WAT     H225524   8.590   1.858   2.360
 8428WAT      O25525   2.449   7.303   0.220
 8428WAT     H125526   2.480   7.343   0.134
 8428WAT     H225527   2.470   7.365   0.296
 8429WAT      O25528   8.806   2.509   7.082
 8429WAT     H125529   8.851   2.424   7.105
 8429WAT     H225530   8.758   2.545   7.162
 8430WAT      O25531   6.842   9.313   6.778
 8430WAT     H125532   6.814   9.328   6.873
 8430WAT     H225533   6.928   9.261   6.777
 8431WAT      O25534   3.680   3.093   8.153
 8431WAT     H125535   3.679   2.996   8.129
 8431WAT     H225536   3.655   3.148   8.074
 8432WAT      O25537   6.481   7.442   1.753
 8432WAT     H125538   6.385   7.438   1.725
 8432WAT     H225539   6.528   7.360   1.722
 8433WAT      O25540   3.607   5.146   2.692
 8433WAT     H125541   3.661   5.143   2.776
 8433WAT     H225542   3.668   5.138   2.613
 8434WAT      O25543   7.294   5.150   8.095
 8434WAT     H125544   7.237   5.077   8.058
 8434WAT     H225545   7.390   5.130   8.075
 8435WAT      O25546   6.849   8.729   2.674
 8435WAT     H125547   6.935   8.698   2.635
 8435WAT     H225548   6.774   8.704   2.613
 8436WAT      O25549   2.949   3.767   1.018
 8436WAT     H125550   2.984   3.845   1.069
 8436WAT     H225551   3.023   3.726   0.964
 8437WAT      O25552   8.220   4.657   2.918
 8437WAT     H125553   8.153   4.591   2.951
 8437WAT     H225554   8.285   4.611   2.858
 8438WAT      O25555   6.589   6.393   6.395
 8438WAT     H125556   6.595   6.294   6.379
 8438WAT     H225557   6.554   6.438   6.314
 8439WAT      O25558   2.461   1.742   2.626
 8439WAT     H125559   2.365   1.767   2.615
 8439WAT     H225560   2.472   1.644   2.610
 8440WAT      O25561   3.285   9.708   6.467
 8440WAT     H125562   3.238   9.716   6.380
 8440WAT     H225563   3.359   9.775   6.472
 8441WAT      O25564   7.632   3.447   6.338
 8441WAT     H125565   7.654   3.470   6.433
 8441WAT     H225566   7.543   3.403   6.334
 8442WAT      O25567   9.688   5.888   5.775
 8442WAT     H125568   9.640   5.827   5.713
 8442WAT     H225569   9.627   5.916   5.849
 8443WAT      O25570   0.001   6.637   5.045
 8443WAT     H125571   0.078   6.573   5.044
 8443WAT     H225572  -0.053   6.625   4.962
 8444WAT      O25573   5.217   1.522   0.377
 8444WAT     H125574   5.200   1.587   0.450
 8444WAT     H225575   5.165   1.438   0.394
 8445WAT      O25576   2.780   1.435   7.625
 8445WAT     H125577   2.786   1.520   7.571
 8445WAT     H225578   2.728   1.454   7.708
 8446WAT      O25579   4.104   6.770   8.937
 8446WAT     H125580   4.188   6.814   8.904
 8446WAT     H225581   4.069   6.709   8.865
 8447WAT      O25582   9.653   5.281   5.680
 8447WAT     H125583   9.662   5.373   5.717
 8447WAT     H225584   9.692   5.278   5.588
 8448WAT      O25585   0.142   2.146   2.847
 8448WAT     H125586   0.148   2.147   2.747
 8448WAT     H225587   0.199   2.219   2.885
 8449WAT      O25588   8.640   4.321   1.617
 8449WAT     H125589   8.624   4.401   1.674
 8449WAT     H225590   8.739   4.302   1.614
 8450WAT      O25591   7.032   8.404   1.196
 8450WAT     H125592   6.952   8.419   1.138
 8450WAT     H225593   7.113   8.441   1.152
 8451WAT      O25594   0.883   3.984   2.489
 8451WAT     H125595   0.810   3.993   2.557
 8451WAT     H225596   0.877   3.895   2.445
 8452WAT      O25597   0.977   2.495   9.314
 8452WAT     H125598   0.906   2.508   9.383
 8452WAT     H225599   1.046   2.567   9.324
 8453WAT      O25600   5.258   9.071   2.412
 8453WAT     H125601   5.204   8.992   2.387
 8453WAT     H225602   5.333   9.043   2.472
 8454WAT      O25603   9.632   7.373   7.005
 8454WAT     H125604   9.725   7.366   7.042
 8454WAT     H225605   9.633   7.428   6.922
 8455WAT      O25606   7.012   6.464   4.500
 8455WAT     H125607   7.042   6.419   4.416
 8455WAT     H225608   6.912   6.472   4.500
 8456WAT      O25609   4.745   4.431   7.844
 8456WAT     H125610   4.835   4.391   7.865
 8456WAT     H225611   4.730   4.510   7.904
 8457WAT      O25612   2.271   4.453   3.966
 8457WAT     H125613   2.247   4.405   4.050
 8457WAT     H225614   2.366   4.432   3.941
 8458WAT      O25615   2.758   7.905   9.558
 8458WAT     H125616   2.677   7.863   9.516
 8458WAT     H225617   2.748   8.005   9.556
 8459WAT      O25618   2.654   5.867   3.376
 8459WAT     H125619   2.555   5.859   3.369
 8459WAT     H225620   2.681   5.870   3.472
 8460WAT      O25621   6.988   6.773   7.092
 8460WAT     H125622   7.044   6.726   7.024
 8460WAT     H225623   7.021   6.749   7.184
 8461WAT      O25624   5.613   1.937   5.341
 8461WAT     H125625   5.528   1.885   5.334
 8461WAT     H225626   5.675   1.892   5.406
 8462WAT      O25627   2.706   7.355   1.999
 8462WAT     H125628   2.744   7.280   2.054
 8462WAT     H225629   2.700   7.437   2.056
 8463WAT      O25630   6.088   7.726   7.013
 8463WAT     H125631   6.007   7.775   7.043
 8463WAT     H225632   6.170   7.775   7.042
 8464WAT      O25633   0.751   4.471   1.999
 8464WAT     H125634   0.704   4.383   1.989
 8464WAT     H225635   0.848   4.455   2.012
 8465WAT      O25636   1.240   2.153   9.642
 8465WAT     H125637   1.235   2.202   9.555
 8465WAT     H225638   1.208   2.211   9.716
 8466WAT      O25639   0.185   3.786   8.125
 8466WAT     H125640   0.276   3.809   8.158
 8466WAT     H225641   0.130   3.870   8.120
 8467WAT      O25642   5.706   7.473   0.438
 8467WAT     H125643   5.682   7.543   0.505
 8467WAT     H225644   5.662   7.495   0.351
 8468WAT      O25645   6.399   1.565   8.772
 8468WAT     H125646   6.347   1.490   8.731
 8468WAT     H225647   6.488   1.572   8.728
 8469WAT      O25648   5.551   3.784   0.339
 8469WAT     H125649   5.472   3.761   0.396
 8469WAT     H225650   5.596   3.866   0.376
 8470WAT      O25651   3.728   3.901   2.434
 8470WAT     H125652   3.685   3.812   2.446
 8470WAT     H225653   3.669   3.959   2.378
 8471WAT      O25654   9.173   3.245   0.989
 8471WAT     H125655   9.162   3.148   0.969
 8471WAT     H225656   9.150   3.299   0.908
 8472WAT      O25657   1.325   5.309   2.192
 8472WAT     H125658   1.353   5.324   2.097
 8472WAT     H225659   1.246   5.248   2.194
 8473WAT      O25660   1.163   1.353   0.586
 8473WAT     H125661   1.110   1.290   0.529
 8473WAT     H225662   1.225   1.406   0.528
 8474WAT      O25663   1.248   1.849   6.681
 8474WAT     H125664   1.227   1.751   6.676
 8474WAT     H225665   1.328   1.863   6.739
 8475WAT      O25666   5.614   8.407   3.479
 8475WAT     H125667   5.686   8.353   3.436
 8475WAT     H225668   5.648   8.499   3.498
 8476WAT      O25669   0.464   6.038   2.091
 8476WAT     H125670   0.427   5.965   2.035
 8476WAT     H225671   0.477   6.005   2.185
 8477WAT      O25672   6.838   8.424   4.247
 8477WAT     H125673   6.926   8.393   4.211
 8477WAT     H225674   6.770   8.352   4.231
 8478WAT      O25675   1.491   5.235   4.022
 8478WAT     H125676   1.440   5.283   4.094
 8478WAT     H225677   1.550   5.300   3.975
 8479WAT      O25678   5.129   1.805   6.300
 8479WAT     H125679   5.087   1.838   6.384
 8479WAT     H225680   5.096   1.859   6.222
 8480WAT      O25681   7.379   2.026   3.456
 8480WAT     H125682   7.335   2.109   3.490
 8480WAT     H225683   7.326   1.990   3.379
 8481WAT      O25684   4.109   5.149   8.814
 8481WAT     H125685   4.053   5.097   8.749
 8481WAT     H225686   4.205   5.145   8.786
 8482WAT      O25687   4.624   9.350   4.156
 8482WAT     H125688   4.607   9.363   4.253
 8482WAT     H225689   4.559   9.283   4.119
 8483WAT      O25690   3.872   2.503   7.258
 8483WAT     H125691   3.806   2.444   7.306
 8483WAT     H225692   3.883   2.470   7.164
 8484WAT      O25693   1.440   0.785   5.864
 8484WAT     H125694   1.346   0.820   5.854
 8484WAT     H225695   1.493   0.850   5.918
 8485WAT      O25696   3.914   4.393   9.856
 8485WAT     H125697   3.921   4.443   9.770
 8485WAT     H225698   4.005   4.367   9.887
 8486WAT      O25699   3.312   4.085   5.983
 8486WAT     H125700   3.302   4.067   5.885
 8486WAT     H225701   3.237   4.145   6.013
 8487WAT      O25702   7.011   0.317   7.702
 8487WAT     H125703   6.975   0.261   7.628
 8487WAT     H225704   6.976   0.283   7.790
 8488WAT      O25705   3.250   5.293   7.693
 8488WAT     H125706   3.150   5.291   7.688
 8488WAT     H225707   3.289   5.235   7.622
 8489WAT      O25708   8.560   4.582   1.445
 8489WAT     H125709   8.599   4.634   1.369
 8489WAT     H225710   8.473   4.542   1.418
 8490WAT      O25711   2.668   9.622   2.802
 8490WAT     H125712   2.707   9.554   2.740
 8490WAT     H225713   2.725   9.628   2.885
 8491WAT      O25714   9.654   4.887   6.076
 8491WAT     H125715   9.662   4.849   5.984
 8491WAT     H225716   9.583   4.838   6.127
 8492WAT      O25717   5.843   5.179   7.888
 8492WAT     H125718   5.879   5.086   7.886
 8492WAT     H225719   5.794   5.197   7.803
 8493WAT      O25720   1.406   8.244   1.377
 8493WAT     H125721   1.322   8.222   1.426
 8493WAT     H225722   1.401   8.339   1.344
 8494WAT      O25723   9.123   7.608   9.011
 8494WAT     H125724   9.101   7.705   9.016
 8494WAT     H225725   9.158   7.578   9.100
 8495WAT      O25726   2.632   6.882   7.616
 8495WAT     H125727   2.679   6.901   7.530
 8495WAT     H225728   2.536   6.908   7.608
 8496WAT      O25729   5.454   3.960   5.779
 8496WAT     H125730   5.369   4.013   5.781
 8496WAT     H225731   5.524   4.007   5.832
 8497WAT      O25732   1.297   4.242   4.008
 8497WAT     H125733   1.270   4.324   4.060
 8497WAT     H225734   1.215   4.200   3.969
 8498WAT      O25735   8.064   2.429   6.219
 8498WAT     H125736   8.141   2.410   6.159
 8498WAT     H225737   8.092   2.416   6.314
 8499WAT      O25738   2.759   4.284   4.546
 8499WAT     H125739   2.754   4.185   4.559
 8499WAT     H225740   2.810   4.304   4.462
 8500WAT      O25741   5.562   2.299   3.645
 8500WAT     H125742   5.538   2.308   3.741
 8500WAT     H225743   5.635   2.364   3.622
 8501WAT      O25744   4.999   5.995   1.621
 8501WAT     H125745   4.956   5.995   1.530
 8501WAT     H225746   4.931   5.969   1.689
 8502WAT      O25747   2.492   6.312   3.419
 8502WAT     H125748   2.560   6.249   3.457
 8502WAT     H225749   2.538   6.392   3.382
 8503WAT      O25750   5.258   8.666   9.067
 8503WAT     H125751   5.285   8.739   9.005
 8503WAT     H225752   5.275   8.577   9.025
 8504WAT      O25753   7.255   6.733   3.933
 8504WAT     H125754   7.298   6.802   3.874
 8504WAT     H225755   7.157   6.733   3.917
 8505WAT      O25756   1.766   1.171   3.318
 8505WAT     H125757   1.804   1.239   3.255
 8505WAT     H225758   1.808   1.082   3.300
 8506WAT      O25759   6.640   8.813   9.058
 8506WAT     H125760   6.650   8.903   9.101
 8506WAT     H225761   6.728   8.766   9.059
 8507WAT      O25762   7.597   4.638   6.194
 8507WAT     H125763   7.545   4.560   6.161
 8507WAT     H225764   7.626   4.695   6.116
 8508WAT      O25765   5.638   3.067   2.597
 8508WAT     H125766   5.734   3.054   2.622
 8508WAT     H225767   5.628   3.153   2.547
 8509WAT      O25768   9.341   4.957   8.693
 8509WAT     H125769   9.246   4.980   8.670
 8509WAT     H225770   9.388   4.923   8.611
 8510WAT      O25771   4.646   5.297   9.473
 8510WAT     H125772   4.739   5.299   9.436
 8510WAT     H225773   4.648   5.327   9.569
 8511WAT      O25774   5.459   8.959   2.570
 8511WAT     H125775   5.418   8.962   2.661
 8511WAT     H225776   5.559   8.956   2.579
 8512WAT      O25777   3.994   7.657   1.809
 8512WAT     H125778   4.017   7.579   1.751
 8512WAT     H225779   3.929   7.717   1.761
 8513WAT      O25780   9.604   3.864   4.157
 8513WAT     H125781   9.596   3.779   4.209
 8513WAT     H225782   9.513   3.897   4.133
 8514WAT      O25783   1.088   3.761   9.097
 8514WAT     H125784   0.988   3.753   9.096
 8514WAT     H225785   1.127   3.691   9.157
 8515WAT      O25786   9.875   0.879   2.876
 8515WAT     H125787   9.974   0.868   2.887
 8515WAT     H225788   9.854   0.910   2.784
 8516WAT      O25789   3.865   0.834   8.161
 8516WAT     H125790   3.843   0.862   8.254
 8516WAT     H225791   3.782   0.798   8.118
 8517WAT      O25792   5.076   1.210   6.114
 8517WAT     H125793   5.118   1.199   6.204
 8517WAT     H225794   5.128   1.276   6.061
 8518WAT      O25795   8.423   9.671   0.136
 8518WAT     H125796   8.337   9.693   0.090
 8518WAT     H225797   8.403   9.629   0.225
 8519WAT      O25798   6.116   4.450   3.673
 8519WAT     H125799   6.142   4.546   3.674
 8519WAT     H225800   6.016   4.442   3.673
 8520WAT      O25801   8.031   9.638   3.689
 8520WAT     H125802   7.933   9.657   3.693
 8520WAT     H225803   8.046   9.548   3.646
 8521WAT      O25804   5.370   2.628   6.911
 8521WAT     H125805   5.357   2.543   6.961
 8521WAT     H225806   5.344   2.705   6.970
 8522WAT      O25807   9.090   7.007   3.685
 8522WAT     H125808   9.025   6.945   3.730
 8522WAT     H225809   9.100   6.980   3.589
 8523WAT      O25810   5.504   2.786   3.924
 8523WAT     H125811   5.445   2.758   3.999
 8523WAT     H225812   5.452   2.840   3.858
 8524WAT      O25813   5.428   4.083   3.278
 8524WAT     H125814   5.434   4.079   3.377
 8524WAT     H225815   5.347   4.135   3.251
 8525WAT      O25816   0.316   5.911   4.555
 8525WAT     H125817   0.358   5.958   4.633
 8525WAT     H225818   0.316   5.812   4.572
 8526WAT      O25819   6.048   6.854   1.088
 8526WAT     H125820   6.040   6.757   1.068
 8526WAT     H225821   5.966   6.902   1.056
 8527WAT      O25822   9.603   7.767   9.075
 8527WAT     H125823   9.602   7.732   9.169
 8527WAT     H225824   9.637   7.696   9.013
 8528WAT      O25825   9.052   1.095   2.928
 8528WAT     H125826   9.031   1.182   2.971
 8528WAT     H225827   8.967   1.045   2.910
 8529WAT      O25828   2.238   7.252   1.966
 8529WAT     H125829   2.290   7.269   1.882
 8529WAT     H225830   2.140   7.251   1.944
 8530WAT      O25831   2.854   4.897   9.131
 8530WAT     H125832   2.754   4.893   9.131
 8530WAT     H225833   2.887   4.921   9.222
 8531WAT      O25834   9.134   4.408   1.018
 8531WAT     H125835   9.105   4.431   0.925
 8531WAT     H225836   9.218   4.458   1.041
 8532WAT      O25837   0.105   0.724   2.262
 8532WAT     H125838   0.163   0.755   2.187
 8532WAT     H225839   0.136   0.764   2.348
 8533WAT      O25840   4.663   6.258   6.977
 8533WAT     H125841   4.655   6.245   6.878
 8533WAT     H225842   4.596   6.200   7.023
 8534WAT      O25843   8.449   5.528   1.696
 8534WAT     H125844   8.458   5.442   1.646
 8534WAT     H225845   8.491   5.602   1.644
 8535WAT      O25846   0.455   7.004   0.851
 8535WAT     H125847   0.456   6.959   0.761
 8535WAT     H225848   0.536   6.978   0.902
 8536WAT      O25849   3.117   9.405   0.625
 8536WAT     H125850   3.161   9.427   0.539
 8536WAT     H225851   3.182   9.416   0.700
 8537WAT      O25852   9.094   9.744   1.065
 8537WAT     H125853   9.035   9.698   0.998
 8537WAT     H225854   9.190   9.723   1.044
 8538WAT      O25855   6.620   0.704   6.606
 8538WAT     H125856   6.648   0.614   6.638
 8538WAT     H225857   6.520   0.706   6.595
 8539WAT      O25858   6.947   0.004   2.631
 8539WAT     H125859   6.899   0.057   2.700
 8539WAT     H225860   7.040  -0.017   2.662
 8540WAT      O25861   4.914   6.895   7.637
 8540WAT     H125862   4.947   6.964   7.572
 8540WAT     H225863   4.936   6.804   7.602
 8541WAT      O25864   8.725   7.282   3.332
 8541WAT     H125865   8.660   7.323   3.269
 8541WAT     H225866   8.817   7.290   3.293
 8542WAT      O25867   8.011   7.886   0.691
 8542WAT     H125868   7.968   7.943   0.760
 8542WAT     H225869   8.071   7.819   0.735
 8543WAT      O25870   6.566   1.266   2.772
 8543WAT     H125871   6.485   1.273   2.714
 8543WAT     H225872   6.646   1.298   2.722
 8544WAT      O25873   5.307   9.844   8.392
 8544WAT     H125874   5.245   9.770   8.417
 8544WAT     H225875   5.339   9.830   8.298
 8545WAT      O25876   5.840   3.984   0.161
 8545WAT     H125877   5.873   4.022   0.247
 8545WAT     H225878   5.797   4.056   0.107
 8546WAT      O25879   2.320   7.437   6.746
 8546WAT     H125880   2.353   7.359   6.798
 8546WAT     H225881   2.364   7.521   6.780
 8547WAT      O25882   3.784   2.220   8.653
 8547WAT     H125883   3.845   2.181   8.584
 8547WAT     H225884   3.722   2.149   8.686
 8548WAT      O25885   4.468   6.708   7.014
 8548WAT     H125886   4.389   6.756   6.978
 8548WAT     H225887   4.528   6.772   7.062
 8549WAT      O25888   4.540   3.157   9.839
 8549WAT     H125889   4.567   3.173   9.744
 8549WAT     H225890   4.568   3.065   9.867
 8550WAT      O25891   3.842   5.562   3.054
 8550WAT     H125892   3.909   5.501   3.011
 8550WAT     H225893   3.871   5.657   3.041
 8551WAT      O25894   1.440   1.141   3.667
 8551WAT     H125895   1.492   1.057   3.678
 8551WAT     H225896   1.451   1.175   3.573
 8552WAT      O25897   1.612   5.370   9.600
 8552WAT     H125898   1.595   5.459   9.642
 8552WAT     H225899   1.646   5.382   9.507
 8553WAT      O25900   5.080   1.267   8.624
 8553WAT     H125901   5.166   1.241   8.581
 8553WAT     H225902   5.071   1.223   8.713
 8554WAT      O25903   5.109   1.060   5.164
 8554WAT     H125904   5.096   1.159   5.173
 8554WAT     H225905   5.059   1.013   5.238
 8555WAT      O25906   5.237   7.482   6.386
 8555WAT     H125907   5.170   7.543   6.427
 8555WAT     H225908   5.255   7.511   6.292
 8556WAT      O25909   8.081   2.711   6.250
 8556WAT     H125910   8.064   2.619   6.213
 8556WAT     H225911   8.052   2.715   6.345
 8557WAT      O25912   2.390   3.641   6.149
 8557WAT     H125913   2.470   3.681   6.104
 8557WAT     H225914   2.379   3.546   6.118
 8558WAT      O25915   6.520   6.778   1.554
 8558WAT     H125916   6.485   6.689   1.585
 8558WAT     H225917   6.450   6.848   1.568
 8559WAT      O25918   9.822   4.634   2.828
 8559WAT     H125919   9.843   4.581   2.747
 8559WAT     H225920   9.741   4.596   2.873
 8560WAT      O25921   1.659   8.236   9.763
 8560WAT     H125922   1.567   8.271   9.748
 8560WAT     H225923   1.725   8.311   9.757
 8561WAT      O25924   7.277   4.232   3.406
 8561WAT     H125925   7.281   4.145   3.356
 8561WAT     H225926   7.322   4.303   3.353
 8562WAT      O25927   7.934   4.745   8.309
 8562WAT     H125928   8.028   4.779   8.313
 8562WAT     H225929   7.932   4.659   8.257
 8563WAT      O25930   6.008   2.372   7.438
 8563WAT     H125931   5.985   2.294   7.496
 8563WAT     H225932   5.976   2.355   7.345
 8564WAT      O25933   9.517   5.202   4.888
 8564WAT     H125934   9.574   5.147   4.950
 8564WAT     H225935   9.427   5.214   4.929
 8565WAT      O25936   2.473   5.312   2.316
 8565WAT     H125937   2.439   5.389   2.370
 8565WAT     H225938   2.453   5.328   2.219
 8566WAT      O25939   3.354   0.554   1.485
 8566WAT     H125940   3.294   0.496   1.540
 8566WAT     H225941   3.403   0.498   1.418
 8567WAT      O25942   2.008   6.360   3.907
 8567WAT     H125943   2.032   6.340   4.002
 8567WAT     H225944   2.051   6.446   3.879
 8568WAT      O25945   9.770   5.455   5.047
 8568WAT     H125946   9.720   5.376   5.083
 8568WAT     H225947   9.717   5.496   4.972
 8569WAT      O25948   3.219   2.837   2.900
 8569WAT     H125949   3.131   2.799   2.870
 8569WAT     H225950   3.202   2.917   2.959
 8570WAT      O25951   9.020   6.784   5.308
 8570WAT     H125952   9.108   6.829   5.297
 8570WAT     H225953   8.986   6.800   5.401
 8571WAT      O25954   6.063   3.932   3.094
 8571WAT     H125955   6.042   4.006   3.030
 8571WAT     H225956   6.044   3.961   3.187
 8572WAT      O25957   6.651   8.333   3.189
 8572WAT     H125958   6.661   8.396   3.266
 8572WAT     H225959   6.675   8.379   3.104
 8573WAT      O25960   3.835   7.889   4.496
 8573WAT     H125961   3.833   7.790   4.488
 8573WAT     H225962   3.836   7.915   4.593
 8574WAT      O25963   7.344   6.581   1.843
 8574WAT     H125964   7.365   6.485   1.824
 8574WAT     H225965   7.385   6.639   1.773
 8575WAT      O25966   2.003   5.028   8.002
 8575WAT     H125967   2.048   5.041   7.913
 8575WAT     H225968   2.047   5.088   8.070
 8576WAT      O25969   4.302   6.982   1.568
 8576WAT     H125970   4.262   6.910   1.511
 8576WAT     H225971   4.400   6.988   1.549
 8577WAT      O25972   7.424   9.262   7.639
 8577WAT     H125973   7.378   9.212   7.712
 8577WAT     H225974   7.506   9.306   7.675
 8578WAT      O25975   6.727   3.835   5.760
 8578WAT     H125976   6.745   3.932   5.776
 8578WAT     H225977   6.770   3.807   5.674
 8579WAT      O25978   1.179   3.181   8.399
 8579WAT     H125979   1.170   3.161   8.301
 8579WAT     H225980   1.184   3.280   8.413
 8580WAT      O25981   8.980   5.258   4.590
 8580WAT     H125982   8.940   5.345   4.618
 8580WAT     H225983   8.907   5.193   4.568
 8581WAT      O25984   3.331   9.128   2.341
 8581WAT     H125985   3.391   9.198   2.380
 8581WAT     H225986   3.385   9.046   2.322
 8582WAT      O25987   2.427   6.727   7.078
 8582WAT     H125988   2.473   6.732   7.166
 8582WAT     H225989   2.353   6.794   7.075
 8583WAT      O25990   2.657   7.778   8.206
 8583WAT     H125991   2.562   7.764   8.178
 8583WAT     H225992   2.662   7.858   8.266
 8584WAT      O25993   5.436   2.609   3.119
 8584WAT     H125994   5.350   2.660   3.112
 8584WAT     H225995   5.479   2.627   3.207
 8585WAT      O25996   5.993   4.493   6.088
 8585WAT     H125997   5.979   4.538   6.000
 8585WAT     H225998   5.930   4.416   6.096
 8586WAT      O25999   9.600   2.960   8.229
 8586WAT     H126000   9.527   3.017   8.191
 8586WAT     H226001   9.668   2.942   8.158
 8587WAT      O26002   8.430   4.076   7.984
 8587WAT     H126003   8.434   4.021   8.068
 8587WAT     H226004   8.423   4.173   8.008
 8588WAT      O26005   9.002   0.261   8.924
 8588WAT     H126006   9.040   0.257   8.832
 8588WAT     H226007   8.960   0.173   8.946
 8589WAT      O26008   5.455   8.860   4.563
 8589WAT     H126009   5.535   8.879   4.506
 8589WAT     H226010   5.385   8.814   4.508
 8590WAT      O26011   4.925   7.880   4.652
 8590WAT     H126012   4.841   7.830   4.632
 8590WAT     H226013   4.902   7.961   4.707
 8591WAT      O26014   5.102   3.008   2.187
 8591WAT     H126015   5.142   2.926   2.146
 8591WAT     H226016   5.106   3.084   2.121
 8592WAT      O26017   8.773   1.429   1.642
 8592WAT     H126018   8.846   1.365   1.618
 8592WAT     H226019   8.714   1.443   1.562
 8593WAT      O26020   1.226   1.689   7.055
 8593WAT     H126021   1.207   1.613   6.993
 8593WAT     H226022   1.140   1.732   7.083
 8594WAT      O26023   5.406   4.497   6.812
 8594WAT     H126024   5.344   4.554   6.759
 8594WAT     H226025   5.484   4.471   6.756
 8595WAT      O26026   1.897   5.843   6.072
 8595WAT     H126027   1.851   5.791   6.144
 8595WAT     H226028   1.966   5.902   6.114
 8596WAT      O26029   3.249   5.661   1.263
 8596WAT     H126030   3.254   5.569   1.301
 8596WAT     H226031   3.264   5.728   1.336
 8597WAT      O26032   0.673   8.713   7.076
 8597WAT     H126033   0.608   8.756   7.139
 8597WAT     H226034   0.731   8.784   7.035
 8598WAT      O26035   3.937   8.979   4.587
 8598WAT     H126036   4.008   9.045   4.611
 8598WAT     H226037   3.847   9.023   4.595
 8599WAT      O26038   9.723   2.465   5.517
 8599WAT     H126039   9.721   2.564   5.532
 8599WAT     H226040   9.817   2.434   5.507
 8600WAT      O26041   3.068   9.154   2.548
 8600WAT     H126042   3.060   9.233   2.610
 8600WAT     H226043   3.102   9.185   2.460
 8601WAT      O26044   0.330   5.253   6.634
 8601WAT     H126045   0.327   5.318   6.559
 8601WAT     H226046   0.414   5.266   6.687
 8602WAT      O26047   0.436   8.688   0.715
 8602WAT     H126048   0.467   8.782   0.703
 8602WAT     H226049   0.497   8.626   0.666
 8603WAT      O26050   0.237   8.152   0.487
 8603WAT     H126051   0.316   8.093   0.505
 8603WAT     H226052   0.160   8.095   0.457
 8604WAT      O26053   9.675   1.951   3.576
 8604WAT     H126054   9.675   1.891   3.496
 8604WAT     H226055   9.643   1.899   3.656
 8605WAT      O26056   0.302   1.803   4.531
 8605WAT     H126057   0.285   1.873   4.601
 8605WAT     H226058   0.368   1.837   4.465
 8606WAT      O26059   7.232   2.347   5.730
 8606WAT     H126060   7.234   2.294   5.645
 8606WAT     H226061   7.138   2.355   5.763
 8607WAT      O26062   4.743   4.779   0.142
 8607WAT     H126063   4.646   4.756   0.147
 8607WAT     H226064   4.789   4.718   0.077
 8608WAT      O26065   6.280   6.219   7.513
 8608WAT     H126066   6.243   6.255   7.599
 8608WAT     H226067   6.230   6.259   7.437
 8609WAT      O26068   5.837   2.178   2.493
 8609WAT     H126069   5.900   2.153   2.420
 8609WAT     H226070   5.765   2.109   2.499
 8610WAT      O26071   4.211   6.776   4.753
 8610WAT     H126072   4.296   6.780   4.806
 8610WAT     H226073   4.154   6.701   4.786
 8611WAT      O26074   2.954   3.654   1.363
 8611WAT     H126075   2.868   3.696   1.393
 8611WAT     H226076   2.934   3.584   1.294
 8612WAT      O26077   3.595   2.967   2.330
 8612WAT     H126078   3.574   3.052   2.379
 8612WAT     H226079   3.655   2.987   2.253
 8613WAT      O26080   3.559   2.291   3.344
 8613WAT     H126081   3.582   2.274   3.249
 8613WAT     H226082   3.614   2.366   3.379
 8614WAT      O26083   2.658   5.136   3.037
 8614WAT     H126084   2.660   5.228   2.998
 8614WAT     H226085   2.573   5.091   3.011
 8615WAT      O26086   5.988   6.776   3.758
 8615WAT     H126087   5.966   6.716   3.681
 8615WAT     H226088   5.975   6.725   3.844
 8616WAT      O26089   3.683   8.577   1.734
 8616WAT     H126090   3.590   8.614   1.743
 8616WAT     H226091   3.704   8.520   1.813
 8617WAT      O26092   5.715   4.129   3.679
 8617WAT     H126093   5.809   4.153   3.706
 8617WAT     H226094   5.661   4.212   3.667
 8618WAT      O26095   7.737   6.522   0.815
 8618WAT     H126096   7.657   6.578   0.834
 8618WAT     H226097   7.804   6.576   0.763
 8619WAT      O26098   2.883   2.449   2.108
 8619WAT     H126099   2.810   2.384   2.087
 8619WAT     H226100   2.952   2.447   2.035
 8620WAT      O26101   8.011   8.200   6.852
 8620WAT     H126102   8.083   8.165   6.913
 8620WAT     H226103   7.984   8.128   6.788
 8621WAT      O26104   0.119   8.680   5.327
 8621WAT     H126105   0.023   8.655   5.339
 8621WAT     H226106   0.136   8.769   5.370
 8622WAT      O26107   8.268   4.324   7.809
 8622WAT     H126108   8.203   4.399   7.794
 8622WAT     H226109   8.314   4.337   7.898
 8623WAT      O26110   1.026   3.074   8.797
 8623WAT     H126111   1.087   3.044   8.724
 8623WAT     H226112   0.953   3.006   8.809
 8624WAT      O26113   9.753   1.277   3.900
 8624WAT     H126114   9.761   1.330   3.985
 8624WAT     H226115   9.657   1.252   3.887
 8625WAT      O26116   3.131   7.831   4.802
 8625WAT     H126117   3.066   7.905   4.783
 8625WAT     H226118   3.142   7.821   4.900
 8626WAT      O26119   8.192   7.653   2.687
 8626WAT     H126120   8.270   7.691   2.637
 8626WAT     H226121   8.207   7.664   2.785
 8627WAT      O26122   1.946   7.741   2.784
 8627WAT     H126123   1.914   7.658   2.830
 8627WAT     H226124   2.030   7.773   2.827
 8628WAT      O26125   6.960   5.896   9.015
 8628WAT     H126126   6.866   5.870   8.992
 8628WAT     H226127   6.991   5.844   9.095
 8629WAT      O26128   2.894   3.465   5.345
 8629WAT     H126129   2.857   3.476   5.253
 8629WAT     H226130   2.905   3.367   5.365
 8630WAT      O26131   0.209   3.014   7.542
 8630WAT     H126132   0.152   3.086   7.581
 8630WAT     H226133   0.260   3.050   7.464
 8631WAT      O26134   3.752   7.921   9.651
 8631WAT     H126135   3.785   7.964   9.735
 8631WAT     H226136   3.783   7.826   9.649
 8632WAT      O26137   5.359   1.575   9.838
 8632WAT     H126138   5.320   1.486   9.817
 8632WAT     H226139   5.312   1.646   9.785
 8633WAT      O26140   8.353   3.322   1.850
 8633WAT     H126141   8.440   3.274   1.836
 8633WAT     H226142   8.371   3.413   1.887
 8634WAT      O26143   4.789   6.130   1.918
 8634WAT     H126144   4.807   6.198   1.847
 8634WAT     H226145   4.874   6.084   1.943
 8635WAT      O26146   6.019   7.323   4.798
 8635WAT     H126147   6.015   7.286   4.890
 8635WAT     H226148   5.933   7.371   4.778
 8636WAT      O26149   4.898   5.865   0.021
 8636WAT     H126150   4.975   5.819  -0.024
 8636WAT     H226151   4.907   5.964   0.012
 8637WAT      O26152   4.750   8.087   9.471
 8637WAT     H126153   4.810   8.167   9.475
 8637WAT     H226154   4.714   8.069   9.563
 8638WAT      O26155   5.923   0.133   2.106
 8638WAT     H126156   5.854   0.154   2.175
 8638WAT     H226157   5.939   0.215   2.050
 8639WAT      O26158   1.243   7.081   9.376
 8639WAT     H126159   1.316   7.149   9.386
 8639WAT     H226160   1.197   7.069   9.464
 8640WAT      O26161   0.638   6.344   7.082
 8640WAT     H126162   0.673   6.404   7.010
 8640WAT     H226163   0.603   6.400   7.158
 8641WAT      O26164   9.873   9.629   9.458
 8641WAT     H126165   9.780   9.641   9.424
 8641WAT     H226166   9.872   9.622   9.558
 8642WAT      O26167   6.327   4.833   8.333
 8642WAT     H126168   6.385   4.886   8.272
 8642WAT     H226169   6.336   4.736   8.312
 8643WAT      O26170   3.679   9.318   8.421
 8643WAT     H126171   3.719   9.399   8.466
 8643WAT     H226172   3.638   9.259   8.491
 8644WAT      O26173   2.372   8.765   3.639
 8644WAT     H126174   2.461   8.732   3.669
 8644WAT     H226175   2.362   8.862   3.662
 8645WAT      O26176   8.084   0.937   7.096
 8645WAT     H126177   8.174   0.951   7.139
 8645WAT     H226178   8.064   1.013   7.035
 8646WAT      O26179   7.443   2.386   2.532
 8646WAT     H126180   7.362   2.366   2.477
 8646WAT     H226181   7.442   2.331   2.615
 8647WAT      O26182   8.362   7.803   8.644
 8647WAT     H126183   8.278   7.760   8.610
 8647WAT     H226184   8.413   7.841   8.567
 8648WAT      O26185   9.538   6.283   9.263
 8648WAT     H126186   9.488   6.369   9.258
 8648WAT     H226187   9.483   6.215   9.312
 8649WAT      O26188   8.047   0.979   3.695
 8649WAT     H126189   7.953   0.958   3.723
 8649WAT     H226190   8.066   1.076   3.712
 8650WAT      O26191   3.523   8.087   5.438
 8650WAT     H126192   3.589   8.137   5.494
 8650WAT     H226193   3.568   8.052   5.356
 8651WAT      O26194   7.574   3.004   9.100
 8651WAT     H126195   7.537   2.977   9.012
 8651WAT     H226196   7.517   3.075   9.141
 8652WAT      O26197   5.299   2.065   4.309
 8652WAT     H126198   5.200   2.055   4.307
 8652WAT     H226199   5.340   1.979   4.339
 8653WAT      O26200   0.403   8.943   5.575
 8653WAT     H126201   0.440   8.988   5.494
 8653WAT     H226202   0.444   8.982   5.657
 8654WAT      O26203   8.112   8.529   1.588
 8654WAT     H126204   8.172   8.577   1.524
 8654WAT     H226205   8.069   8.594   1.650
 8655WAT      O26206   1.176   5.698   5.315
 8655WAT     H126207   1.203   5.709   5.410
 8655WAT     H226208   1.255   5.671   5.261
 8656WAT      O26209   4.884   3.339   4.110
 8656WAT     H126210   4.912   3.428   4.145
 8656WAT     H226211   4.929   3.267   4.163
 8657WAT      O26212   1.836   5.972   8.274
 8657WAT     H126213   1.787   5.955   8.188
 8657WAT     H226214   1.934   5.967   8.258
 8658WAT      O26215   7.290   8.236   3.946
 8658WAT     H126216   7.320   8.140   3.947
 8658WAT     H226217   7.355   8.289   3.891
 8659WAT      O26218   1.562   3.047   7.957
 8659WAT     H126219   1.642   2.987   7.952
 8659WAT     H226220   1.584   3.134   7.912
 8660WAT      O26221   5.311   9.230   0.342
 8660WAT     H126222   5.377   9.161   0.372
 8660WAT     H226223   5.260   9.264   0.422
 8661WAT      O26224   5.328   6.211   3.635
 8661WAT     H126225   5.360   6.239   3.726
 8661WAT     H226226   5.273   6.285   3.595
 8662WAT      O26227   8.294   1.735   3.240
 8662WAT     H126228   8.219   1.796   3.266
 8662WAT     H226229   8.361   1.785   3.186
 8663WAT      O26230   0.281   8.469   5.369
 8663WAT     H126231   0.220   8.548   5.364
 8663WAT     H226232   0.353   8.488   5.436
 8664WAT      O26233   0.123   6.640   8.166
 8664WAT     H126234   0.053   6.679   8.225
 8664WAT     H226235   0.165   6.562   8.213
 8665WAT      O26236   9.623   8.611   7.147
 8665WAT     H126237   9.602   8.575   7.238
 8665WAT     H226238   9.640   8.709   7.154
 8666WAT      O26239   1.019   5.762   6.699
 8666WAT     H126240   1.080   5.726   6.628
 8666WAT     H226241   0.964   5.837   6.661
 8667WAT      O26242   2.068   5.698   8.133
 8667WAT     H126243   2.005   5.649   8.194
 8667WAT     H226244   2.080   5.645   8.049
 8668WAT      O26245   8.996   3.426   0.166
 8668WAT     H126246   8.943   3.392   0.089
 8668WAT     H226247   8.977   3.369   0.247
 8669WAT      O26248   3.396   2.291   1.331
 8669WAT     H126249   3.360   2.254   1.417
 8669WAT     H226250   3.434   2.382   1.347
 8670WAT      O26251   3.699   4.113   3.136
 8670WAT     H126252   3.741   4.107   3.227
 8670WAT     H226253   3.758   4.070   3.069
 8671WAT      O26254   2.600   5.779   5.434
 8671WAT     H126255   2.661   5.746   5.362
 8671WAT     H226256   2.508   5.789   5.397
 8672WAT      O26257   2.441   1.121   3.814
 8672WAT     H126258   2.427   1.166   3.902
 8672WAT     H226259   2.353   1.100   3.773
 8673WAT      O26260   7.217   8.846   9.817
 8673WAT     H126261   7.234   8.755   9.780
 8673WAT     H226262   7.141   8.888   9.767
 8674WAT      O26263   8.977   8.202   9.608
 8674WAT     H126264   8.936   8.118   9.643
 8674WAT     H226265   9.015   8.184   9.517
 8675WAT      O26266   4.255   0.219   5.951
 8675WAT     H126267   4.346   0.179   5.943
 8675WAT     H226268   4.231   0.264   5.866
 8676WAT      O26269   9.744   6.192   3.928
 8676WAT     H126270   9.677   6.254   3.969
 8676WAT     H226271   9.745   6.105   3.977
 8677WAT      O26272   4.099   4.984   3.508
 8677WAT     H126273   4.060   5.020   3.593
 8677WAT     H226274   4.192   4.951   3.526
 8678WAT      O26275   9.536   4.424   0.250
 8678WAT     H126276   9.551   4.460   0.158
 8678WAT     H226277   9.608   4.359   0.273
 8679WAT      O26278   2.947   3.509   4.106
 8679WAT     H126279   3.025   3.567   4.079
 8679WAT     H226280   2.864   3.544   4.063
 8680WAT      O26281   0.866   1.495   3.845
 8680WAT     H126282   0.826   1.472   3.756
 8680WAT     H226283   0.888   1.592   3.847
 8681WAT      O26284   9.612   1.447   7.652
 8681WAT     H126285   9.537   1.431   7.717
 8681WAT     H226286   9.698   1.453   7.701
 8682WAT      O26287   8.940   8.468   8.548
 8682WAT     H126288   8.929   8.400   8.476
 8682WAT     H226289   9.008   8.536   8.518
 8683WAT      O26290   0.500   0.129   8.456
 8683WAT     H126291   0.499   0.125   8.356
 8683WAT     H226292   0.538   0.044   8.493
 8684WAT      O26293   8.966   1.488   3.274
 8684WAT     H126294   8.936   1.569   3.223
 8684WAT     H226295   8.909   1.477   3.355
 8685WAT      O26296   0.614   3.079   5.387
 8685WAT     H126297   0.592   3.031   5.301
 8685WAT     H226298   0.709   3.061   5.411
 8686WAT      O26299   1.257   3.482   1.285
 8686WAT     H126300   1.244   3.387   1.257
 8686WAT     H226301   1.214   3.497   1.374
 8687WAT      O26302   4.210   2.124   4.739
 8687WAT     H126303   4.236   2.079   4.825
 8687WAT     H226304   4.220   2.060   4.663
 8688WAT      O26305   0.090   6.610   2.109
 8688WAT     H126306   0.018   6.543   2.091
 8688WAT     H226307   0.056   6.702   2.090
 8689WAT      O26308   9.843   1.460   2.925
 8689WAT     H126309   9.843   1.415   3.015
 8689WAT     H226310   9.854   1.559   2.938
 8690WAT      O26311   7.065   7.718   3.530
 8690WAT     H126312   7.055   7.803   3.582
 8690WAT     H226313   7.112   7.738   3.444
 8691WAT      O26314   7.658   3.079   6.944
 8691WAT     H126315   7.702   3.067   7.034
 8691WAT     H226316   7.603   2.999   6.923
 8692WAT      O26317   1.250   2.681   3.185
 8692WAT     H126318   1.295   2.737   3.116
 8692WAT     H226319   1.319   2.627   3.234
 8693WAT      O26320   6.369   8.125   7.511
 8693WAT     H126321   6.359   8.122   7.610
 8693WAT     H226322   6.443   8.187   7.486
 8694WAT      O26323   0.090   4.881   2.207
 8694WAT     H126324   0.177   4.927   2.218
 8694WAT     H226325   0.065   4.878   2.110
 8695WAT      O26326   3.595   2.345   3.083
 8695WAT     H126327   3.535   2.421   3.107
 8695WAT     H226328   3.578   2.317   2.989
 8696WAT      O26329   4.279   3.420   7.702
 8696WAT     H126330   4.185   3.432   7.668
 8696WAT     H226331   4.323   3.347   7.651
 8697WAT      O26332   0.072   8.179   2.268
 8697WAT     H126333   0.053   8.270   2.304
 8697WAT     H226334  -0.010   8.145   2.222
 8698WAT      O26335   2.855   7.315   0.102
 8698WAT     H126336   2.938   7.285   0.149
 8698WAT     H226337   2.856   7.280   0.008
 8699WAT      O26338   9.153   5.221   6.941
 8699WAT     H126339   9.167   5.224   7.040
 8699WAT     H226340   9.071   5.272   6.917
 8700WAT      O26341   1.896   7.494   1.729
 8700WAT     H126342   1.949   7.554   1.789
 8700WAT     H226343   1.886   7.404   1.773
 8701WAT      O26344   9.755   1.132   7.832
 8701WAT     H126345   9.708   1.106   7.748
 8701WAT     H226346   9.852   1.109   7.824
 8702WAT      O26347   8.418   3.332   2.989
 8702WAT     H126348   8.483   3.391   3.036
 8702WAT     H226349   8.352   3.295   3.055
 8703WAT      O26350   7.537   2.570   1.161
 8703WAT     H126351   7.481   2.632   1.105
 8703WAT     H226352   7.548   2.609   1.252
 8704WAT      O26353   5.843   4.463   9.685
 8704WAT     H126354   5.785   4.382   9.687
 8704WAT     H226355   5.936   4.437   9.658
 8705WAT      O26356   2.166   9.085   2.228
 8705WAT     H126357   2.099   9.014   2.250
 8705WAT     H226358   2.235   9.047   2.166
 8706WAT      O26359   0.181   3.554   0.264
 8706WAT     H126360   0.102   3.492   0.265
 8706WAT     H226361   0.174   3.616   0.186
 8707WAT      O26362   4.254   6.296   6.120
 8707WAT     H126363   4.191   6.275   6.046
 8707WAT     H226364   4.229   6.244   6.201
 8708WAT      O26365   5.867   5.861   7.548
 8708WAT     H126366   5.835   5.914   7.470
 8708WAT     H226367   5.884   5.922   7.625
 8709WAT      O26368   1.277   6.847   2.548
 8709WAT     H126369   1.267   6.820   2.644
 8709WAT     H226370   1.331   6.777   2.500
 8710WAT      O26371   8.331   0.680   3.284
 8710WAT     H126372   8.248   0.734   3.269
 8710WAT     H226373   8.343   0.665   3.382
 8711WAT      O26374   4.917   2.200   2.902
 8711WAT     H126375   4.967   2.174   2.985
 8711WAT     H226376   4.960   2.280   2.861
 8712WAT      O26377   9.894   6.996   0.733
 8712WAT     H126378   9.818   7.049   0.772
 8712WAT     H226379   9.857   6.922   0.677
 8713WAT      O26380   3.617   2.967   6.698
 8713WAT     H126381   3.587   2.942   6.790
 8713WAT     H226382   3.540   2.956   6.635
 8714WAT      O26383   5.282   1.766   9.686
 8714WAT     H126384   5.353   1.834   9.673
 8714WAT     H226385   5.203   1.808   9.731
 8715WAT      O26386   6.352   8.144   8.194
 8715WAT     H126387   6.367   8.243   8.192
 8715WAT     H226388   6.278   8.123   8.257
 8716WAT      O26389   5.568   0.572   7.331
 8716WAT     H126390   5.543   0.528   7.418
 8716WAT     H226391   5.597   0.666   7.349
 8717WAT      O26392   6.183   3.897   8.504
 8717WAT     H126393   6.104   3.857   8.549
 8717WAT     H226394   6.223   3.830   8.441
 8718WAT      O26395   3.955   9.293   5.840
 8718WAT     H126396   3.873   9.314   5.787
 8718WAT     H226397   3.971   9.194   5.838
 8719WAT      O26398   5.402   8.362   5.495
 8719WAT     H126399   5.446   8.358   5.405
 8719WAT     H226400   5.385   8.457   5.521
 8720WAT      O26401   3.768   6.239   9.840
 8720WAT     H126402   3.772   6.269   9.745
 8720WAT     H226403   3.783   6.140   9.844
 8721WAT      O26404   9.709   8.575   6.871
 8721WAT     H126405   9.691   8.590   6.968
 8721WAT     H226406   9.808   8.561   6.857
 8722WAT      O26407   8.098   1.212   1.829
 8722WAT     H126408   8.143   1.261   1.754
 8722WAT     H226409   8.034   1.146   1.791
 8723WAT      O26410   6.632   9.418   9.228
 8723WAT     H126411   6.714   9.416   9.285
 8723WAT     H226412   6.654   9.379   9.138
 8724WAT      O26413   0.364   9.285   6.229
 8724WAT     H126414   0.459   9.267   6.254
 8724WAT     H226415   0.359   9.311   6.133
 8725WAT      O26416   5.735   3.619   0.553
 8725WAT     H126417   5.732   3.705   0.604
 8725WAT     H226418   5.698   3.634   0.461
 8726WAT      O26419   1.977   4.932   7.071
 8726WAT     H126420   2.039   4.862   7.106
 8726WAT     H226421   1.894   4.889   7.036
 8727WAT      O26422   9.062   7.782   6.027
 8727WAT     H126423   9.113   7.861   5.994
 8727WAT     H226424   8.966   7.791   6.001
 8728WAT      O26425   9.602   9.675   1.243
 8728WAT     H126426   9.570   9.588   1.280
 8728WAT     H226427   9.636   9.661   1.150
 8729WAT      O26428   5.845   2.081   1.521
 8729WAT     H126429   5.764   2.138   1.535
 8729WAT     H226430   5.922   2.139   1.495
 8730WAT      O26431   6.205   8.344   3.924
 8730WAT     H126432   6.117   8.352   3.876
 8730WAT     H226433   6.207   8.257   3.974
 8731WAT      O26434   3.131   8.048   3.968
 8731WAT     H126435   3.208   7.985   3.958
 8731WAT     H226436   3.060   8.006   4.025
 8732WAT      O26437   5.695   4.612   4.200
 8732WAT     H126438   5.709   4.531   4.144
 8732WAT     H226439   5.766   4.680   4.179
 8733WAT      O26440   1.727   6.457   6.602
 8733WAT     H126441   1.629   6.465   6.583
 8733WAT     H226442   1.774   6.425   6.520
 8734WAT      O26443   1.198   2.989   5.773
 8734WAT     H126444   1.112   3.029   5.805
 8734WAT     H226445   1.259   2.976   5.851
 8735WAT      O26446   2.843   6.615   2.531
 8735WAT     H126447   2.787   6.653   2.605
 8735WAT     H226448   2.821   6.518   2.520
 8736WAT      O26449   4.178   9.789   5.672
 8736WAT     H126450   4.158   9.829   5.583
 8736WAT     H226451   4.274   9.764   5.677
 8737WAT      O26452   5.165   0.427   8.995
 8737WAT     H126453   5.180   0.525   9.006
 8737WAT     H226454   5.089   0.397   9.053
 8738WAT      O26455   0.575   9.666   5.510
 8738WAT     H126456   0.619   9.706   5.591
 8738WAT     H226457   0.476   9.662   5.525
 8739WAT      O26458   8.081   2.074   3.948
 8739WAT     H126459   8.161   2.130   3.923
 8739WAT     H226460   8.096   1.980   3.917
 8740WAT      O26461   8.771   0.222   0.092
 8740WAT     H126462   8.677   0.226   0.124
 8740WAT     H226463   8.833   0.224   0.171
 8741WAT      O26464   4.456   9.173   4.063
 8741WAT     H126465   4.491   9.087   4.026
 8741WAT     H226466   4.391   9.214   3.999
 8742WAT      O26467   7.535   4.127   3.565
 8742WAT     H126468   7.491   4.170   3.486
 8742WAT     H226469   7.601   4.058   3.533
 8743WAT      O26470   1.313   9.630   5.416
 8743WAT     H126471   1.355   9.540   5.431
 8743WAT     H226472   1.345   9.668   5.330
 8744WAT      O26473   5.877   8.840   5.370
 8744WAT     H126474   5.952   8.804   5.314
 8744WAT     H226475   5.884   8.804   5.463
 8745WAT      O26476   6.003   2.908   1.757
 8745WAT     H126477   5.906   2.885   1.755
 8745WAT     H226478   6.036   2.904   1.851
 8746WAT      O26479   2.523   3.694   0.623
 8746WAT     H126480   2.492   3.739   0.540
 8746WAT     H226481   2.606   3.642   0.604
 8747WAT      O26482   2.468   3.536   5.299
 8747WAT     H126483   2.409   3.491   5.366
 8747WAT     H226484   2.511   3.467   5.241
 8748WAT      O26485   2.476   7.329   6.052
 8748WAT     H126486   2.381   7.338   6.021
 8748WAT     H226487   2.495   7.398   6.122
 8749WAT      O26488   8.508   6.615   4.483
 8749WAT     H126489   8.588   6.636   4.539
 8749WAT     H226490   8.453   6.698   4.470
 8750WAT      O26491   4.900   7.214   4.626
 8750WAT     H126492   4.860   7.305   4.616
 8750WAT     H226493   4.890   7.183   4.720
 8751WAT      O26494   5.896   5.267   0.931
 8751WAT     H126495   5.916   5.195   0.864
 8751WAT     H226496   5.883   5.226   1.021
 8752WAT      O26497   5.340   1.214   8.913
 8752WAT     H126498   5.413   1.147   8.926
 8752WAT     H226499   5.375   1.292   8.861
 8753WAT      O26500   0.570   4.929   0.883
 8753WAT     H126501   0.526   4.949   0.795
 8753WAT     H226502   0.536   4.992   0.953
 8754WAT      O26503   7.577   6.900   9.747
 8754WAT     H126504   7.556   6.816   9.698
 8754WAT     H226505   7.492   6.943   9.777
 8755WAT      O26506   3.868   4.371   3.633
 8755WAT     H126507   3.863   4.425   3.549
 8755WAT     H226508   3.786   4.314   3.640
 8756WAT      O26509   3.445   6.657   9.386
 8756WAT     H126510   3.392   6.733   9.421
 8756WAT     H226511   3.428   6.575   9.440
 8757WAT      O26512   3.936   0.617   4.391
 8757WAT     H126513   3.852   0.572   4.361
 8757WAT     H226514   3.938   0.622   4.491
 8758WAT      O26515   8.109   4.811   4.201
 8758WAT     H126516   8.087   4.716   4.179
 8758WAT     H226517   8.046   4.844   4.271
 8759WAT      O26518   6.214   4.517   5.509
 8759WAT     H126519   6.173   4.566   5.585
 8759WAT     H226520   6.311   4.539   5.503
 8760WAT      O26521   5.309   6.079   3.346
 8760WAT     H126522   5.316   5.980   3.358
 8760WAT     H226523   5.256   6.119   3.421
 8761WAT      O26524   1.089   6.904   1.574
 8761WAT     H126525   1.150   6.832   1.608
 8761WAT     H226526   1.105   6.987   1.627
 8762WAT      O26527   5.190   9.461   2.620
 8762WAT     H126528   5.107   9.416   2.585
 8762WAT     H226529   5.212   9.539   2.562
 8763WAT      O26530   7.596   5.535   4.901
 8763WAT     H126531   7.667   5.508   4.967
 8763WAT     H226532   7.520   5.470   4.905
 8764WAT      O26533   4.940   3.254   8.965
 8764WAT     H126534   5.006   3.283   8.896
 8764WAT     H226535   4.874   3.328   8.981
 8765WAT      O26536   7.115   3.323   3.877
 8765WAT     H126537   7.177   3.284   3.946
 8765WAT     H226538   7.090   3.416   3.904
 8766WAT      O26539   3.740   2.469   4.482
 8766WAT     H126540   3.720   2.471   4.580
 8766WAT     H226541   3.838   2.475   4.467
 8767WAT      O26542   6.659   7.258   2.033
 8767WAT     H126543   6.719   7.318   1.980
 8767WAT     H226544   6.691   7.255   2.128
 8768WAT      O26545   1.260   5.305   8.475
 8768WAT     H126546   1.170   5.332   8.443
 8768WAT     H226547   1.328   5.371   8.444
 8769WAT      O26548   2.103   0.350   5.052
 8769WAT     H126549   2.111   0.359   4.953
 8769WAT     H226550   2.007   0.359   5.078
 8770WAT      O26551   2.161   8.429   2.827
 8770WAT     H126552   2.094   8.476   2.770
 8770WAT     H226553   2.200   8.493   2.894
 8771WAT      O26554   7.563   8.375   0.791
 8771WAT     H126555   7.498   8.408   0.722
 8771WAT     H226556   7.566   8.275   0.790
 8772WAT      O26557   0.094   1.038   0.771
 8772WAT     H126558   0.147   1.019   0.688
 8772WAT     H226559   0.127   0.981   0.846
 8773WAT      O26560   6.970   4.699   9.265
 8773WAT     H126561   7.039   4.635   9.232
 8773WAT     H226562   6.881   4.652   9.269
 8774WAT      O26563   3.870   8.602   6.848
 8774WAT     H126564   3.780   8.590   6.806
 8774WAT     H226565   3.928   8.656   6.787
 8775WAT      O26566   5.142   0.084   5.420
 8775WAT     H126567   5.231   0.039   5.405
 8775WAT     H226568   5.110   0.123   5.334
 8776WAT      O26569   3.091   6.517   1.398
 8776WAT     H126570   3.090   6.418   1.406
 8776WAT     H226571   3.009   6.555   1.440
 8777WAT      O26572   2.915   9.455   3.672
 8777WAT     H126573   2.963   9.370   3.692
 8777WAT     H226574   2.978   9.518   3.627
 8778WAT      O26575   9.705   9.823   3.367
 8778WAT     H126576   9.679   9.920   3.371
 8778WAT     H226577   9.725   9.791   3.460
 8779WAT      O26578   4.420   9.295   2.647
 8779WAT     H126579   4.507   9.251   2.669
 8779WAT     H226580   4.410   9.302   2.548
 8780WAT      O26581   0.920   6.217   2.923
 8780WAT     H126582   0.883   6.267   2.844
 8780WAT     H226583   0.844   6.192   2.984
 8781WAT      O26584   2.202   7.607   7.828
 8781WAT     H126585   2.205   7.693   7.776
 8781WAT     H226586   2.289   7.560   7.819
 8782WAT      O26587   4.717   5.826   4.222
 8782WAT     H126588   4.814   5.809   4.242
 8782WAT     H226589   4.690   5.914   4.261
 8783WAT      O26590   8.407   6.541   5.971
 8783WAT     H126591   8.459   6.493   6.041
 8783WAT     H226592   8.314   6.505   5.968
 8784WAT      O26593   1.988   3.932   5.394
 8784WAT     H126594   2.032   3.880   5.467
 8784WAT     H226595   1.891   3.946   5.416
 8785WAT      O26596   5.649   6.720   3.991
 8785WAT     H126597   5.593   6.661   3.933
 8785WAT     H226598   5.637   6.815   3.963
 8786WAT      O26599   7.119   8.954   2.351
 8786WAT     H126600   7.021   8.972   2.353
 8786WAT     H226601   7.169   9.039   2.363
 8787WAT      O26602   2.062   2.618   5.844
 8787WAT     H126603   2.031   2.530   5.809
 8787WAT     H226604   1.984   2.680   5.854
 8788WAT      O26605   8.915   0.428   6.246
 8788WAT     H126606   8.824   0.464   6.225
 8788WAT     H226607   8.972   0.503   6.281
 8789WAT      O26608   4.416   2.539   1.114
 8789WAT     H126609   4.451   2.632   1.114
 8789WAT     H226610   4.352   2.528   1.189
 8790WAT      O26611   6.733   0.271   4.684
 8790WAT     H126612   6.829   0.294   4.674
 8790WAT     H226613   6.718   0.229   4.774
 8791WAT      O26614   1.474   5.945   0.575
 8791WAT     H126615   1.449   5.874   0.509
 8791WAT     H226616   1.438   6.033   0.545
 8792WAT      O26617   4.901   7.120   3.528
 8792WAT     H126618   4.918   7.218   3.534
 8792WAT     H226619   4.941   7.084   3.444
 8793WAT      O26620   2.392   9.458   3.169
 8793WAT     H126621   2.442   9.399   3.105
 8793WAT     H226622   2.396   9.418   3.261
 8794WAT      O26623   9.883   1.376   3.188
 8794WAT     H126624   9.905   1.293   3.239
 8794WAT     H226625   9.826   1.436   3.245
 8795WAT      O26626   7.598   6.992   0.942
 8795WAT     H126627   7.630   6.996   0.847
 8795WAT     H226628   7.674   7.016   1.003
 8796WAT      O26629   5.991   1.792   4.214
 8796WAT     H126630   5.990   1.722   4.143
 8796WAT     H226631   5.950   1.756   4.297
 8797WAT      O26632   9.813   2.333   4.916
 8797WAT     H126633   9.797   2.343   5.014
 8797WAT     H226634   9.731   2.296   4.872
 8798WAT      O26635   1.593   3.915   8.864
 8798WAT     H126636   1.680   3.868   8.880
 8798WAT     H226637   1.568   3.967   8.946
 8799WAT      O26638   9.685   1.139   3.556
 8799WAT     H126639   9.725   1.107   3.470
 8799WAT     H226640   9.684   1.239   3.556
 8800WAT      O26641   5.738   1.527   4.878
 8800WAT     H126642   5.783   1.617   4.874
 8800WAT     H226643   5.645   1.538   4.912
 8801WAT      O26644   0.189   7.443   2.633
 8801WAT     H126645   0.247   7.421   2.554
 8801WAT     H226646   0.135   7.362   2.658
 8802WAT      O26647   5.367   3.353   8.221
 8802WAT     H126648   5.407   3.298   8.148
 8802WAT     H226649   5.309   3.295   8.279
 8803WAT      O26650   5.342   5.692   2.811
 8803WAT     H126651   5.312   5.662   2.902
 8803WAT     H226652   5.382   5.614   2.763
 8804WAT      O26653   0.113   1.962   9.139
 8804WAT     H126654   0.211   1.942   9.140
 8804WAT     H226655   0.063   1.882   9.105
 8805WAT      O26656   3.665   9.219   0.988
 8805WAT     H126657   3.720   9.191   1.067
 8805WAT     H226658   3.616   9.140   0.952
 8806WAT      O26659   1.336   3.372   2.231
 8806WAT     H126660   1.268   3.314   2.276
 8806WAT     H226661   1.365   3.328   2.146
 8807WAT      O26662   5.151   1.318   3.082
 8807WAT     H126663   5.154   1.286   2.987
 8807WAT     H226664   5.090   1.397   3.089
 8808WAT      O26665   2.348   9.444   4.955
 8808WAT     H126666   2.314   9.509   5.022
 8808WAT     H226667   2.443   9.467   4.932
 8809WAT      O26668   0.074   4.836   2.685
 8809WAT     H126669   0.170   4.817   2.704
 8809WAT     H226670   0.017   4.785   2.749
 8810WAT      O26671   9.850   8.439   3.168
 8810WAT     H126672   9.903   8.513   3.128
 8810WAT     H226673   9.817   8.466   3.259
 8811WAT      O26674   7.547   0.387   9.723
 8811WAT     H126675   7.517   0.301   9.683
 8811WAT     H226676   7.475   0.423   9.783
 8812WAT      O26677   7.864   7.651   8.912
 8812WAT     H126678   7.900   7.618   8.999
 8812WAT     H226679   7.806   7.580   8.871
 8813WAT      O26680   6.469   2.035   9.460
 8813WAT     H126681   6.520   1.995   9.536
 8813WAT     H226682   6.387   1.981   9.442
 8814WAT      O26683   6.790   9.589   6.731
 8814WAT     H126684   6.829   9.497   6.725
 8814WAT     H226685   6.698   9.590   6.692
 8815WAT      O26686   6.405   3.209   6.002
 8815WAT     H126687   6.447   3.256   5.924
 8815WAT     H226688   6.314   3.249   6.019
 8816WAT      O26689   4.450   0.395   7.299
 8816WAT     H126690   4.448   0.484   7.254
 8816WAT     H226691   4.471   0.408   7.396
 8817WAT      O26692   6.126   8.417   8.563
 8817WAT     H126693   6.174   8.502   8.582
 8817WAT     H226694   6.088   8.421   8.470
 8818WAT      O26695   7.170   8.867   5.068
 8818WAT     H126696   7.208   8.957   5.090
 8818WAT     H226697   7.203   8.837   4.979
 8819WAT      O26698   2.555   4.663   0.112
 8819WAT     H126699   2.609   4.698   0.035
 8819WAT     H226700   2.609   4.598   0.165
 8820WAT      O26701   9.795   8.175   1.508
 8820WAT     H126702   9.796   8.204   1.413
 8820WAT     H226703   9.832   8.082   1.515
 8821WAT      O26704   0.571   3.107   6.320
 8821WAT     H126705   0.653   3.143   6.364
 8821WAT     H226706   0.516   3.183   6.285
 8822WAT      O26707   1.309   3.013   4.285
 8822WAT     H126708   1.312   2.992   4.382
 8822WAT     H226709   1.364   2.947   4.234
 8823WAT      O26710   8.600   2.974   2.757
 8823WAT     H126711   8.595   3.036   2.679
 8823WAT     H226712   8.523   2.992   2.818
 8824WAT      O26713   8.839   8.484   7.745
 8824WAT     H126714   8.790   8.432   7.674
 8824WAT     H226715   8.795   8.467   7.833
 8825WAT      O26716   4.523   6.913   4.723
 8825WAT     H126717   4.551   7.006   4.747
 8825WAT     H226718   4.483   6.868   4.803
 8826WAT      O26719   4.862   8.112   4.815
 8826WAT     H126720   4.858   8.053   4.896
 8826WAT     H226721   4.903   8.200   4.840
 8827WAT      O26722   8.958   8.375   7.203
 8827WAT     H126723   9.056   8.394   7.198
 8827WAT     H226724   8.928   8.332   7.117
 8828WAT      O26725   9.570   6.140   9.674
 8828WAT     H126726   9.651   6.106   9.721
 8828WAT     H226727   9.497   6.155   9.741
 8829WAT      O26728   4.875   2.557   2.064
 8829WAT     H126729   4.891   2.568   2.162
 8829WAT     H226730   4.874   2.647   2.019
 8830WAT      O26731   2.846   3.554   5.090
 8830WAT     H126732   2.835   3.653   5.079
 8830WAT     H226733   2.926   3.524   5.038
 8831WAT      O26734   0.069   1.317   4.521
 8831WAT     H126735   0.142   1.274   4.469
 8831WAT     H226736   0.076   1.292   4.618
 8832WAT      O26737   1.121   0.155   2.820
 8832WAT     H126738   1.092   0.246   2.788
 8832WAT     H226739   1.112   0.151   2.919
 8833WAT      O26740   9.427   4.367   8.992
 8833WAT     H126741   9.390   4.454   8.959
 8833WAT     H226742   9.443   4.306   8.915
 8834WAT      O26743   5.608   3.314   6.835
 8834WAT     H126744   5.654   3.402   6.822
 8834WAT     H226745   5.510   3.325   6.813
 8835WAT      O26746   9.303   9.011   1.691
 8835WAT     H126747   9.361   9.049   1.763
 8835WAT     H226748   9.228   8.959   1.732
 8836WAT      O26749   6.391   7.153   6.586
 8836WAT     H126750   6.439   7.124   6.504
 8836WAT     H226751   6.457   7.181   6.655
 8837WAT      O26752   9.554   7.855   1.857
 8837WAT     H126753   9.510   7.912   1.927
 8837WAT     H226754   9.484   7.820   1.794
 8838WAT      O26755   0.005   7.446   4.416
 8838WAT     H126756  -0.042   7.364   4.386
 8838WAT     H226757   0.069   7.423   4.489
 8839WAT      O26758   3.796   2.418   6.947
 8839WAT     H126759   3.731   2.391   7.018
 8839WAT     H226760   3.754   2.488   6.889
 8840WAT      O26761   0.432   5.501   0.377
 8840WAT     H126762   0.387   5.575   0.427
 8840WAT     H226763   0.456   5.532   0.285
 8841WAT      O26764   9.056   0.277   2.473
 8841WAT     H126765   9.037   0.250   2.568
 8841WAT     H226766   8.979   0.330   2.437
 8842WAT      O26767   4.953   7.373   3.513
 8842WAT     H126768   4.981   7.362   3.417
 8842WAT     H226769   4.897   7.455   3.522
 8843WAT      O26770   7.320   1.922   0.672
 8843WAT     H126771   7.262   1.910   0.591
 8843WAT     H226772   7.366   1.836   0.692
 8844WAT      O26773   8.765   6.938   4.425
 8844WAT     H126774   8.844   6.905   4.373
 8844WAT     H226775   8.692   6.964   4.361
 8845WAT      O26776   9.314   6.051   6.400
 8845WAT     H126777   9.374   6.005   6.465
 8845WAT     H226778   9.316   6.149   6.416
 8846WAT      O26779   6.797   2.263   3.955
 8846WAT     H126780   6.712   2.313   3.972
 8846WAT     H226781   6.841   2.299   3.873
 8847WAT      O26782   9.649   0.934   4.141
 8847WAT     H126783   9.579   0.876   4.098
 8847WAT     H226784   9.713   0.877   4.191
 8848WAT      O26785   5.043   8.920   0.168
 8848WAT     H126786   5.123   8.898   0.223
 8848WAT     H226787   4.966   8.864   0.196
 8849WAT      O26788   9.110   2.384   1.704
 8849WAT     H126789   9.013   2.410   1.698
 8849WAT     H226790   9.160   2.424   1.627
 8850WAT      O26791   0.948   7.647   7.314
 8850WAT     H126792   0.918   7.647   7.218
 8850WAT     H226793   0.870   7.630   7.374
 8851WAT      O26794   8.362   9.715   9.500
 8851WAT     H126795   8.288   9.678   9.557
 8851WAT     H226796   8.439   9.651   9.501
 8852WAT      O26797   4.221   5.167   6.390
 8852WAT     H126798   4.208   5.103   6.467
 8852WAT     H226799   4.226   5.115   6.305
 8853WAT      O26800   5.814   2.254   5.864
 8853WAT     H126801   5.854   2.345   5.875
 8853WAT     H226802   5.877   2.196   5.812
 8854WAT      O26803   2.406   8.072   0.147
 8854WAT     H126804   2.434   8.030   0.233
 8854WAT     H226805   2.307   8.067   0.138
 8855WAT      O26806   6.782   4.020   9.152
 8855WAT     H126807   6.730   3.935   9.161
 8855WAT     H226808   6.752   4.069   9.071
 8856WAT      O26809   3.422   9.826   1.266
 8856WAT     H126810   3.355   9.760   1.233
 8856WAT     H226811   3.463   9.874   1.189
 8857WAT      O26812   8.185   6.561   2.903
 8857WAT     H126813   8.282   6.577   2.885
 8857WAT     H226814   8.175   6.510   2.988
 8858WAT      O26815   2.146   4.321   1.256
 8858WAT     H126816   2.084   4.271   1.316
 8858WAT     H226817   2.240   4.292   1.274
 8859WAT      O26818   1.363   8.526   6.562
 8859WAT     H126819   1.427   8.597   6.535
 8859WAT     H226820   1.323   8.548   6.651
 8860WAT      O26821   0.042   3.717   8.412
 8860WAT     H126822   0.095   3.742   8.331
 8860WAT     H226823  -0.052   3.748   8.402
 8861WAT      O26824   1.400   9.231   9.287
 8861WAT     H126825   1.396   9.309   9.350
 8861WAT     H226826   1.310   9.189   9.280
 8862WAT      O26827   5.327   0.240   8.503
 8862WAT     H126828   5.305   0.157   8.452
 8862WAT     H226829   5.410   0.225   8.556
 8863WAT      O26830   9.454   8.573   2.444
 8863WAT     H126831   9.521   8.582   2.371
 8863WAT     H226832   9.481   8.631   2.521
 8864WAT      O26833   5.136   7.230   7.080
 8864WAT     H126834   5.177   7.265   7.163
 8864WAT     H226835   5.117   7.132   7.091
 8865WAT      O26836   0.407   7.096   6.909
 8865WAT     H126837   0.407   7.069   7.005
 8865WAT     H226838   0.468   7.173   6.895
 8866WAT      O26839   0.561   0.946   8.514
 8866WAT     H126840   0.484   0.893   8.548
 8866WAT     H226841   0.540   0.981   8.423
 8867WAT      O26842   7.075   6.283   4.296
 8867WAT     H126843   7.127   6.258   4.214
 8867WAT     H226844   6.989   6.232   4.299
 8868WAT      O26845   4.854   8.936   5.719
 8868WAT     H126846   4.937   8.992   5.713
 8868WAT     H226847   4.843   8.885   5.634
 8869WAT      O26848   7.529   0.766   4.916
 8869WAT     H126849   7.470   0.838   4.953
 8869WAT     H226850   7.514   0.681   4.967
 8870WAT      O26851   6.308   0.827   9.862
 8870WAT     H126852   6.340   0.740   9.900
 8870WAT     H226853   6.360   0.849   9.779
 8871WAT      O26854   5.727   4.757   6.694
 8871WAT     H126855   5.733   4.666   6.735
 8871WAT     H226856   5.802   4.768   6.628
 8872WAT      O26857   2.675   0.526   2.146
 8872WAT     H126858   2.773   0.532   2.167
 8872WAT     H226859   2.663   0.515   2.047
 8873WAT      O26860   7.773   8.803   4.616
 8873WAT     H126861   7.749   8.708   4.636
 8873WAT     H226862   7.689   8.856   4.604
 8874WAT      O26863   6.134   8.190   5.849
 8874WAT     H126864   6.206   8.149   5.794
 8874WAT     H226865   6.134   8.290   5.836
 8875WAT      O26866   5.412   4.229   2.719
 8875WAT     H126867   5.496   4.223   2.773
 8875WAT     H226868   5.339   4.178   2.765
 8876WAT      O26869   2.953   9.782   5.114
 8876WAT     H126870   3.005   9.833   5.046
 8876WAT     H226871   2.963   9.826   5.203
 8877WAT      O26872   2.976   7.465   2.619
 8877WAT     H126873   2.925   7.462   2.533
 8877WAT     H226874   2.913   7.487   2.694
 8878WAT      O26875   1.495   3.239   9.742
 8878WAT     H126876   1.477   3.336   9.732
 8878WAT     H226877   1.413   3.187   9.716
 8879WAT      O26878   0.180   8.046   4.391
 8879WAT     H126879   0.228   7.958   4.387
 8879WAT     H226880   0.217   8.101   4.466
 8880WAT      O26881   8.921   0.749   6.072
 8880WAT     H126882   8.986   0.797   6.013
 8880WAT     H226883   8.828   0.769   6.042
 8881WAT      O26884   3.992   5.194   7.707
 8881WAT     H126885   4.023   5.286   7.733
 8881WAT     H226886   3.893   5.194   7.697
 8882WAT      O26887   9.681   7.958   8.687
 8882WAT     H126888   9.630   8.038   8.656
 8882WAT     H226889   9.771   7.987   8.720
 8883WAT      O26890   2.715   2.716   4.591
 8883WAT     H126891   2.678   2.767   4.669
 8883WAT     H226892   2.799   2.670   4.619
 8884WAT      O26893   2.253   4.192   6.146
 8884WAT     H126894   2.315   4.197   6.067
 8884WAT     H226895   2.160   4.176   6.113
 8885WAT      O26896   7.893   6.350   5.843
 8885WAT     H126897   7.832   6.271   5.839
 8885WAT     H226898   7.838   6.434   5.836
 8886WAT      O26899   7.320   5.367   4.273
 8886WAT     H126900   7.255   5.409   4.336
 8886WAT     H226901   7.384   5.436   4.240
 8887WAT      O26902   5.907   8.953   6.332
 8887WAT     H126903   5.834   8.981   6.271
 8887WAT     H226904   5.872   8.888   6.400
 8888WAT      O26905   9.772   8.699   5.952
 8888WAT     H126906   9.673   8.704   5.940
 8888WAT     H226907   9.799   8.754   6.031
 8889WAT      O26908   3.606   3.578   0.245
 8889WAT     H126909   3.517   3.609   0.210
 8889WAT     H226910   3.677   3.643   0.217
 8890WAT      O26911   3.022   2.478   1.504
 8890WAT     H126912   3.052   2.445   1.593
 8890WAT     H226913   2.993   2.573   1.511
 8891WAT      O26914   4.559   1.193   1.227
 8891WAT     H126915   4.503   1.118   1.262
 8891WAT     H226916   4.643   1.156   1.188
 8892WAT      O26917   6.356   5.547   8.902
 8892WAT     H126918   6.326   5.539   8.807
 8892WAT     H226919   6.296   5.493   8.960
 8893WAT      O26920   5.074   6.304   5.208
 8893WAT     H126921   5.005   6.271   5.272
 8893WAT     H226922   5.130   6.227   5.177
 8894WAT      O26923   3.747   3.208   7.163
 8894WAT     H126924   3.685   3.257   7.101
 8894WAT     H226925   3.824   3.171   7.110
 8895WAT      O26926   9.706   2.645   2.415
 8895WAT     H126927   9.739   2.713   2.480
 8895WAT     H226928   9.782   2.591   2.381
 8896WAT      O26929   4.176   2.326   4.022
 8896WAT     H126930   4.263   2.373   4.003
 8896WAT     H226931   4.168   2.310   4.120
 8897WAT      O26932   0.942   3.048   7.185
 8897WAT     H126933   0.956   3.125   7.248
 8897WAT     H226934   0.973   2.964   7.228
 8898WAT      O26935   1.534   1.923   1.745
 8898WAT     H126936   1.452   1.882   1.706
 8898WAT     H226937   1.516   2.018   1.770
 8899WAT      O26938   2.942   2.932   0.536
 8899WAT     H126939   2.935   2.873   0.455
 8899WAT     H226940   2.852   2.969   0.558
 8900WAT      O26941   9.717   2.459   4.554
 8900WAT     H126942   9.793   2.470   4.619
 8900WAT     H226943   9.660   2.541   4.555
 8901WAT      O26944   5.959   4.130   5.602
 8901WAT     H126945   5.869   4.166   5.627
 8901WAT     H226946   6.005   4.096   5.683
 8902WAT      O26947   8.307   2.213   3.837
 8902WAT     H126948   8.312   2.244   3.742
 8902WAT     H226949   8.395   2.227   3.882
 8903WAT      O26950   0.518   0.239   5.950
 8903WAT     H126951   0.580   0.314   5.927
 8903WAT     H226952   0.502   0.182   5.870
 8904WAT      O26953   6.837   7.407   2.809
 8904WAT     H126954   6.805   7.500   2.792
 8904WAT     H226955   6.773   7.361   2.871
 8905WAT      O26956   4.916   4.988   2.743
 8905WAT     H126957   4.816   4.983   2.742
 8905WAT     H226958   4.952   4.959   2.655
 8906WAT      O26959   2.607   5.099   9.875
 8906WAT     H126960   2.625   5.190   9.912
 8906WAT     H226961   2.572   5.040   9.948
 8907WAT      O26962   0.129   3.522   1.592
 8907WAT     H126963   0.168   3.531   1.501
 8907WAT     H226964   0.075   3.437   1.597
 8908WAT      O26965   7.215   5.701   7.017
 8908WAT     H126966   7.150   5.740   7.082
 8908WAT     H226967   7.301   5.681   7.064
 8909WAT      O26968   0.264   6.188   6.203
 8909WAT     H126969   0.211   6.272   6.194
 8909WAT     H226970   0.282   6.149   6.113
 8910WAT      O26971   6.886   0.684   0.237
 8910WAT     H126972   6.926   0.624   0.168
 8910WAT     H226973   6.871   0.633   0.321
 8911WAT      O26974   9.574   5.091   7.496
 8911WAT     H126975   9.640   5.164   7.480
 8911WAT     H226976   9.486   5.117   7.457
 8912WAT      O26977   4.676   8.238   6.044
 8912WAT     H126978   4.613   8.221   5.968
 8912WAT     H226979   4.745   8.166   6.047
 8913WAT      O26980   0.666   6.329   3.818
 8913WAT     H126981   0.617   6.417   3.809
 8913WAT     H226982   0.709   6.324   3.908
 8914WAT      O26983   6.841   0.103   2.867
 8914WAT     H126984   6.744   0.079   2.867
 8914WAT     H226985   6.876   0.096   2.960
 8915WAT      O26986   7.191   0.445   1.308
 8915WAT     H126987   7.192   0.345   1.300
 8915WAT     H226988   7.164   0.471   1.400
 8916WAT      O26989   2.909   4.346   8.148
 8916WAT     H126990   2.985   4.341   8.212
 8916WAT     H226991   2.943   4.332   8.055
 8917WAT      O26992   6.969   7.465   6.299
 8917WAT     H126993   7.010   7.413   6.225
 8917WAT     H226994   7.042   7.506   6.355
 8918WAT      O26995   9.226   8.401   7.197
 8918WAT     H126996   9.313   8.372   7.236
 8918WAT     H226997   9.240   8.483   7.142
 8919WAT      O26998   7.364   9.410   9.322
 8919WAT     H126999   7.422   9.427   9.242
 8919WAT     H227000   7.422   9.406   9.404
 8920WAT      O27001   4.514   4.992   5.452
 8920WAT     H127002   4.420   5.008   5.421
 8920WAT     H227003   4.522   5.018   5.548
 8921WAT      O27004   0.793   1.596   6.260
 8921WAT     H127005   0.759   1.537   6.334
 8921WAT     H227006   0.723   1.602   6.188
 8922WAT      O27007   7.338   1.974   2.480
 8922WAT     H127008   7.288   1.947   2.398
 8922WAT     H227009   7.424   2.016   2.454
 8923WAT      O27010   4.513   8.313   0.193
 8923WAT     H127011   4.558   8.388   0.145
 8923WAT     H227012   4.414   8.317   0.175
 8924WAT      O27013   2.587   0.932   9.229
 8924WAT     H127014   2.659   0.894   9.170
 8924WAT     H227015   2.559   1.021   9.194
 8925WAT      O27016   1.751   2.461   5.041
 8925WAT     H127017   1.805   2.520   5.101
 8925WAT     H227018   1.673   2.424   5.092
 8926WAT      O27019   4.677   7.049   6.027
 8926WAT     H127020   4.761   7.104   6.026
 8926WAT     H227021   4.623   7.072   6.107
 8927WAT      O27022   1.239   9.041   8.791
 8927WAT     H127023   1.333   9.024   8.761
 8927WAT     H227024   1.238   9.121   8.850
 8928WAT      O27025   8.705   6.241   8.102
 8928WAT     H127026   8.694   6.220   8.005
 8928WAT     H227027   8.799   6.222   8.129
 8929WAT      O27028   8.501   8.554   2.942
 8929WAT     H127029   8.492   8.455   2.948
 8929WAT     H227030   8.484   8.583   2.848
 8930WAT      O27031   3.334   9.430   4.855
 8930WAT     H127032   3.374   9.433   4.764
 8930WAT     H227033   3.393   9.481   4.919
 8931WAT      O27034   5.326   6.623   0.391
 8931WAT     H127035   5.420   6.632   0.358
 8931WAT     H227036   5.326   6.569   0.475
 8932WAT      O27037   7.221   6.789   9.658
 8932WAT     H127038   7.258   6.716   9.600
 8932WAT     H227039   7.244   6.878   9.619
 8933WAT      O27040   8.588   4.862   8.075
 8933WAT     H127041   8.511   4.838   8.015
 8933WAT     H227042   8.607   4.786   8.137
 8934WAT      O27043   3.776   7.552   2.763
 8934WAT     H127044   3.747   7.517   2.674
 8934WAT     H227045   3.713   7.624   2.793
 8935WAT      O27046   6.846   2.223   9.895
 8935WAT     H127047   6.809   2.316   9.886
 8935WAT     H227048   6.902   2.203   9.815
 8936WAT      O27049   0.403   6.684   0.975
 8936WAT     H127050   0.352   6.705   0.892
 8936WAT     H227051   0.500   6.676   0.953
 8937WAT      O27052   3.647   2.912   9.065
 8937WAT     H127053   3.687   2.993   9.107
 8937WAT     H227054   3.656   2.919   8.965
 8938WAT      O27055   5.968   7.431   2.836
 8938WAT     H127056   5.932   7.387   2.918
 8938WAT     H227057   6.038   7.498   2.862
 8939WAT      O27058   1.920   9.495   4.161
 8939WAT     H127059   1.841   9.441   4.188
 8939WAT     H227060   1.890   9.586   4.131
 8940WAT      O27061   3.760   0.230   5.149
 8940WAT     H127062   3.684   0.291   5.124
 8940WAT     H227063   3.813   0.207   5.067
 8941WAT      O27064   3.496   8.326   8.767
 8941WAT     H127065   3.535   8.238   8.794
 8941WAT     H227066   3.438   8.314   8.687
 8942WAT      O27067   1.460   4.379   7.082
 8942WAT     H127068   1.548   4.333   7.067
 8942WAT     H227069   1.439   4.437   7.003
 8943WAT      O27070   2.604   6.921   0.652
 8943WAT     H127071   2.680   6.878   0.602
 8943WAT     H227072   2.577   6.863   0.728
 8944WAT      O27073   1.540   7.195   6.121
 8944WAT     H127074   1.613   7.183   6.053
 8944WAT     H227075   1.569   7.154   6.208
 8945WAT      O27076   5.213   3.253   9.242
 8945WAT     H127077   5.232   3.176   9.301
 8945WAT     H227078   5.118   3.283   9.255
 8946WAT      O27079   0.166   1.884   6.876
 8946WAT     H127080   0.198   1.877   6.971
 8946WAT     H227081   0.233   1.935   6.822
 8947WAT      O27082   1.105   9.707   0.800
 8947WAT     H127083   1.013   9.669   0.786
 8947WAT     H227084   1.124   9.711   0.898
 8948WAT      O27085   2.598   1.304   2.230
 8948WAT     H127086   2.673   1.239   2.216
 8948WAT     H227087   2.563   1.295   2.323
 8949WAT      O27088   2.830   4.756   8.711
 8949WAT     H127089   2.888   4.722   8.786
 8949WAT     H227090   2.750   4.802   8.750
 8950WAT      O27091   4.247   7.114   0.212
 8950WAT     H127092   4.258   7.099   0.310
 8950WAT     H227093   4.179   7.186   0.197
 8951WAT      O27094   3.661   8.090   1.256
 8951WAT     H127095   3.721   8.015   1.283
 8951WAT     H227096   3.637   8.081   1.159
 8952WAT      O27097   0.128   8.327   1.523
 8952WAT     H127098   0.045   8.272   1.516
 8952WAT     H227099   0.153   8.337   1.619
 8953WAT      O27100   5.647   3.377   0.657
 8953WAT     H127101   5.629   3.382   0.755
 8953WAT     H227102   5.672   3.468   0.623
 8954WAT      O27103   5.839   4.226   9.321
 8954WAT     H127104   5.903   4.185   9.386
 8954WAT     H227105   5.863   4.322   9.306
 8955WAT      O27106   4.101   0.585   4.924
 8955WAT     H127107   4.185   0.633   4.897
 8955WAT     H227108   4.091   0.502   4.869
 8956WAT      O27109   3.491   0.567   3.434
 8956WAT     H127110   3.561   0.529   3.373
 8956WAT     H227111   3.511   0.541   3.529
 8957WAT      O27112   9.710   6.969   4.537
 8957WAT     H127113   9.617   6.958   4.573
 8957WAT     H227114   9.706   6.986   4.438
 8958WAT      O27115   4.528   5.834   6.569
 8958WAT     H127116   4.558   5.847   6.474
 8958WAT     H227117   4.602   5.793   6.622
 8959WAT      O27118   5.270   4.500   3.755
 8959WAT     H127119   5.182   4.465   3.787
 8959WAT     H227120   5.258   4.539   3.663
 8960WAT      O27121   4.180   7.911   5.117
 8960WAT     H127122   4.155   7.819   5.085
 8960WAT     H227123   4.260   7.943   5.067
 8961WAT      O27124   3.146   8.105   1.686
 8961WAT     H127125   3.057   8.104   1.731
 8961WAT     H227126   3.134   8.097   1.587
 8962WAT      O27127   4.473   0.622   4.175
 8962WAT     H127128   4.546   0.679   4.138
 8962WAT     H227129   4.446   0.553   4.108
 8963WAT      O27130   1.173   7.484   1.045
 8963WAT     H127131   1.097   7.462   0.983
 8963WAT     H227132   1.140   7.544   1.118
 8964WAT      O27133   5.983   8.908   9.071
 8964WAT     H127134   5.918   8.880   9.142
 8964WAT     H227135   6.028   8.828   9.033
 8965WAT      O27136   3.210   4.577   1.452
 8965WAT     H127137   3.283   4.543   1.394
 8965WAT     H227138   3.223   4.543   1.546
 8966WAT      O27139   6.915   6.232   5.016
 8966WAT     H127140   6.983   6.305   5.011
 8966WAT     H227141   6.949   6.152   4.966
 8967WAT      O27142   9.754   3.762   4.513
 8967WAT     H127143   9.705   3.724   4.592
 8967WAT     H227144   9.725   3.715   4.430
 8968WAT      O27145   3.552   3.543   2.191
 8968WAT     H127146   3.556   3.575   2.286
 8968WAT     H227147   3.619   3.593   2.136
 8969WAT      O27148   8.328   1.549   4.877
 8969WAT     H127149   8.329   1.450   4.894
 8969WAT     H227150   8.327   1.598   4.964
 8970WAT      O27151   0.865   3.385   3.881
 8970WAT     H127152   0.885   3.460   3.817
 8970WAT     H227153   0.949   3.335   3.902
 8971WAT      O27154   4.907   7.113   2.539
 8971WAT     H127155   4.919   7.209   2.563
 8971WAT     H227156   4.989   7.062   2.564
 8972WAT      O27157   5.403   5.374   5.049
 8972WAT     H127158   5.404   5.405   4.954
 8972WAT     H227159   5.408   5.274   5.051
 8973WAT      O27160   2.540   3.029   3.661
 8973WAT     H127161   2.551   3.124   3.631
 8973WAT     H227162   2.473   2.984   3.602
 8974WAT      O27163   2.287   9.635   4.071
 8974WAT     H127164   2.320   9.555   4.121
 8974WAT     H227165   2.363   9.697   4.053
 8975WAT      O27166   2.293   3.200   7.705
 8975WAT     H127167   2.209   3.237   7.665
 8975WAT     H227168   2.354   3.275   7.729
 8976WAT      O27169   7.189   6.470   0.262
 8976WAT     H127170   7.105   6.472   0.209
 8976WAT     H227171   7.241   6.554   0.246
 8977WAT      O27172   8.926   8.081   4.716
 8977WAT     H127173   8.907   7.985   4.697
 8977WAT     H227174   9.004   8.112   4.661
 8978WAT      O27175   1.582   1.777   2.692
 8978WAT     H127176   1.673   1.762   2.653
 8978WAT     H227177   1.581   1.743   2.786
 8979WAT      O27178   1.715   7.781   6.783
 8979WAT     H127179   1.740   7.856   6.843
 8979WAT     H227180   1.797   7.732   6.754
 8980WAT      O27181   8.316   7.138   2.811
 8980WAT     H127182   8.383   7.070   2.838
 8980WAT     H227183   8.225   7.097   2.809
 8981WAT      O27184   1.428   2.466   0.638
 8981WAT     H127185   1.396   2.380   0.677
 8981WAT     H227186   1.524   2.479   0.661
 8982WAT      O27187   0.798   0.570   6.748
 8982WAT     H127188   0.817   0.550   6.845
 8982WAT     H227189   0.825   0.491   6.692
 8983WAT      O27190   2.548   8.912   7.920
 8983WAT     H127191   2.538   8.940   8.016
 8983WAT     H227192   2.493   8.973   7.863
 8984WAT      O27193   1.105   5.115   1.209
 8984WAT     H127194   1.122   5.063   1.125
 8984WAT     H227195   1.043   5.064   1.268
 8985WAT      O27196   3.514   6.841   2.106
 8985WAT     H127197   3.554   6.840   2.197
 8985WAT     H227198   3.415   6.827   2.112
 8986WAT      O27199   2.330   9.793   5.526
 8986WAT     H127200   2.378   9.866   5.576
 8986WAT     H227201   2.394   9.749   5.463
 8987WAT      O27202   5.832   0.193   4.301
 8987WAT     H127203   5.798   0.197   4.395
 8987WAT     H227204   5.814   0.280   4.255
 8988WAT      O27205   3.303   2.996   3.426
 8988WAT     H127206   3.336   3.090   3.438
 8988WAT     H227207   3.376   2.940   3.388
 8989WAT      O27208   6.584   8.578   4.197
 8989WAT     H127209   6.606   8.484   4.222
 8989WAT     H227210   6.486   8.587   4.182
 8990WAT      O27211   7.581   3.760   1.813
 8990WAT     H127212   7.654   3.822   1.839
 8990WAT     H227213   7.609   3.665   1.831
 8991WAT      O27214   8.869   6.524   5.323
 8991WAT     H127215   8.877   6.426   5.303
 8991WAT     H227216   8.946   6.573   5.283
 8992WAT      O27217   7.333   1.998   8.785
 8992WAT     H127218   7.278   2.078   8.807
 8992WAT     H227219   7.317   1.926   8.852
 8993WAT      O27220   2.122   3.533   8.716
 8993WAT     H127221   2.023   3.523   8.716
 8993WAT     H227222   2.149   3.595   8.789
 8994WAT      O27223   5.714   2.067   9.855
 8994WAT     H127224   5.731   2.024   9.766
 8994WAT     H227225   5.799   2.103   9.891
 8995WAT      O27226   6.244   3.807   6.376
 8995WAT     H127227   6.288   3.894   6.395
 8995WAT     H227228   6.185   3.782   6.453
 8996WAT      O27229   1.719   2.710   3.797
 8996WAT     H127230   1.755   2.740   3.709
 8996WAT     H227231   1.650   2.775   3.828
 8997WAT      O27232   5.541   9.044   0.406
 8997WAT     H127233   5.631   9.028   0.366
 8997WAT     H227234   5.497   8.956   0.424
 8998WAT      O27235   8.679   6.228   5.331
 8998WAT     H127236   8.778   6.226   5.348
 8998WAT     H227237   8.650   6.142   5.288
 8999WAT      O27238   1.924   4.562   5.066
 8999WAT     H127239   1.958   4.598   4.979
 8999WAT     H227240   1.897   4.638   5.125
 9000WAT      O27241   5.644   6.200   1.483
 9000WAT     H127242   5.635   6.128   1.552
 9000WAT     H227243   5.556   6.245   1.469
 9001WAT      O27244   0.567   4.545   1.395
 9001WAT     H127245   0.510   4.627   1.396
 9001WAT     H227246   0.511   4.465   1.371
 9002WAT      O27247   6.891   6.559   7.933
 9002WAT     H127248   6.941   6.477   7.907
 9002WAT     H227249   6.919   6.588   8.025
 9003WAT      O27250   1.557   4.357   9.668
 9003WAT     H127251   1.604   4.377   9.582
 9003WAT     H227252   1.460   4.343   9.650
 9004WAT      O27253   4.640   3.300   1.523
 9004WAT     H127254   4.673   3.313   1.430
 9004WAT     H227255   4.548   3.261   1.520
 9005WAT      O27256   8.737   6.999   1.945
 9005WAT     H127257   8.827   7.041   1.932
 9005WAT     H227258   8.721   6.985   2.043
 9006WAT      O27259   7.044   4.182   9.306
 9006WAT     H127260   7.037   4.130   9.221
 9006WAT     H227261   7.114   4.139   9.365
 9007WAT      O27262   6.894   1.089   9.628
 9007WAT     H127263   6.808   1.052   9.662
 9007WAT     H227264   6.963   1.087   9.701
 9008WAT      O27265   3.505   6.570   4.834
 9008WAT     H127266   3.460   6.595   4.748
 9008WAT     H227267   3.551   6.482   4.823
 9009WAT      O27268   5.049   0.362   3.068
 9009WAT     H127269   4.995   0.397   2.991
 9009WAT     H227270   5.116   0.297   3.033
 9010WAT      O27271   5.004   1.810   8.651
 9010WAT     H127272   5.031   1.883   8.714
 9010WAT     H227273   4.975   1.851   8.564
 9011WAT      O27274   2.828   2.072   3.724
 9011WAT     H127275   2.901   2.129   3.687
 9011WAT     H227276   2.865   1.983   3.751
 9012WAT      O27277   6.209   4.233   4.736
 9012WAT     H127278   6.295   4.205   4.779
 9012WAT     H227279   6.228   4.293   4.659
 9013WAT      O27280   7.217   9.820   2.705
 9013WAT     H127281   7.249   9.745   2.762
 9013WAT     H227282   7.234   9.907   2.751
 9014WAT      O27283   0.648   7.692   1.488
 9014WAT     H127284   0.591   7.611   1.495
 9014WAT     H227285   0.726   7.673   1.428
 9015WAT      O27286   0.401   3.335   2.483
 9015WAT     H127287   0.356   3.397   2.419
 9015WAT     H227288   0.341   3.257   2.502
 9016WAT      O27289   1.192   5.132   8.212
 9016WAT     H127290   1.200   5.209   8.148
 9016WAT     H227291   1.162   5.166   8.301
 9017WAT      O27292   2.456   4.322   0.271
 9017WAT     H127293   2.374   4.377   0.254
 9017WAT     H227294   2.533   4.383   0.290
 9018WAT      O27295   8.285   3.809   8.290
 9018WAT     H127296   8.222   3.746   8.245
 9018WAT     H227297   8.282   3.795   8.389
 9019WAT      O27298   5.568   3.956   1.861
 9019WAT     H127299   5.481   3.974   1.816
 9019WAT     H227300   5.644   3.984   1.802
 9020WAT      O27301   6.599   8.847   1.652
 9020WAT     H127302   6.690   8.854   1.609
 9020WAT     H227303   6.593   8.760   1.700
 9021WAT      O27304   6.307   2.197   7.516
 9021WAT     H127305   6.377   2.222   7.582
 9021WAT     H227306   6.328   2.239   7.428
 9022WAT      O27307   4.383   9.053   4.980
 9022WAT     H127308   4.298   9.002   4.971
 9022WAT     H227309   4.374   9.141   4.933
 9023WAT      O27310   5.444   8.146   3.028
 9023WAT     H127311   5.445   8.137   3.127
 9023WAT     H227312   5.359   8.109   2.992
 9024WAT      O27313   6.410   3.466   9.232
 9024WAT     H127314   6.408   3.369   9.207
 9024WAT     H227315   6.445   3.519   9.154
 9025WAT      O27316   5.846   0.707   4.354
 9025WAT     H127317   5.852   0.806   4.358
 9025WAT     H227318   5.817   0.672   4.444
 9026WAT      O27319   5.351   6.187   2.455
 9026WAT     H127320   5.273   6.150   2.403
 9026WAT     H227321   5.436   6.160   2.410
 9027WAT      O27322   9.811   3.565   0.950
 9027WAT     H127323   9.797   3.469   0.926
 9027WAT     H227324   9.734   3.620   0.918
 9028WAT      O27325   6.655   5.495   0.234
 9028WAT     H127326   6.557   5.473   0.238
 9028WAT     H227327   6.667   5.594   0.239
 9029WAT      O27328   0.538   0.209   6.691
 9029WAT     H127329   0.501   0.120   6.665
 9029WAT     H227330   0.553   0.264   6.608
 9030WAT      O27331   5.725   9.389   0.342
 9030WAT     H127332   5.802   9.331   0.368
 9030WAT     H227333   5.668   9.407   0.422
 9031WAT      O27334   9.762   6.382   0.556
 9031WAT     H127335   9.855   6.403   0.587
 9031WAT     H227336   9.736   6.446   0.483
 9032WAT      O27337   8.234   6.994   3.481
 9032WAT     H127338   8.252   6.910   3.430
 9032WAT     H227339   8.302   7.063   3.456
 9033WAT      O27340   0.436   4.009   5.014
 9033WAT     H127341   0.367   4.081   5.013
 9033WAT     H227342   0.506   4.028   4.946
 9034WAT      O27343   1.039   2.725   4.495
 9034WAT     H127344   1.136   2.733   4.515
 9034WAT     H227345   1.008   2.632   4.512
 9035WAT      O27346   8.480   3.980   8.230
 9035WAT     H127347   8.414   3.905   8.235
 9035WAT     H227348   8.462   4.046   8.303
 9036WAT      O27349   1.331   9.425   1.211
 9036WAT     H127350   1.246   9.430   1.159
 9036WAT     H227351   1.339   9.506   1.269
 9037WAT      O27352   8.519   5.206   9.336
 9037WAT     H127353   8.425   5.214   9.370
 9037WAT     H227354   8.536   5.277   9.268
 9038WAT      O27355   4.862   3.773   3.267
 9038WAT     H127356   4.881   3.853   3.324
 9038WAT     H227357   4.845   3.802   3.173
 9039WAT      O27358   0.016   7.019   2.220
 9039WAT     H127359   0.048   6.984   2.308
 9039WAT     H227360  -0.045   7.097   2.235
 9040WAT      O27361   0.919   7.939   5.743
 9040WAT     H127362   0.963   7.963   5.830
 9040WAT     H227363   0.920   7.840   5.732
 9041WAT      O27364   3.222   1.389   4.749
 9041WAT     H127365   3.152   1.321   4.727
 9041WAT     H227366   3.302   1.343   4.787
 9042WAT      O27367   3.260   4.805   8.818
 9042WAT     H127368   3.273   4.763   8.728
 9042WAT     H227369   3.295   4.898   8.817
 9043WAT      O27370   2.500   2.106   3.898
 9043WAT     H127371   2.497   2.110   3.799
 9043WAT     H227372   2.513   2.198   3.935
 9044WAT      O27373   4.029   9.428   4.003
 9044WAT     H127374   3.992   9.467   3.918
 9044WAT     H227375   4.111   9.478   4.030
 9045WAT      O27376   5.609   0.533   5.449
 9045WAT     H127377   5.624   0.623   5.410
 9045WAT     H227378   5.650   0.529   5.541
 9046WAT      O27379   3.698   5.836   6.420
 9046WAT     H127380   3.724   5.888   6.501
 9046WAT     H227381   3.748   5.871   6.340
 9047WAT      O27382   8.961   2.994   7.654
 9047WAT     H127383   8.880   3.052   7.667
 9047WAT     H227384   8.933   2.908   7.613
 9048WAT      O27385   9.450   1.992   4.396
 9048WAT     H127386   9.415   2.082   4.420
 9048WAT     H227387   9.542   1.981   4.432
 9049WAT      O27388   4.360   5.786   6.304
 9049WAT     H127389   4.310   5.739   6.377
 9049WAT     H227390   4.355   5.731   6.220
 9050WAT      O27391   2.787   7.901   2.332
 9050WAT     H127392   2.778   7.874   2.428
 9050WAT     H227393   2.881   7.927   2.312
 9051WAT      O27394   4.923   2.490   9.337
 9051WAT     H127395   4.840   2.520   9.384
 9051WAT     H227396   4.924   2.527   9.244
 9052WAT      O27397   2.043   5.866   3.860
 9052WAT     H127398   2.025   5.936   3.791
 9052WAT     H227399   1.970   5.798   3.859
 9053WAT      O27400   3.369   1.648   5.231
 9053WAT     H127401   3.280   1.613   5.259
 9053WAT     H227402   3.359   1.702   5.147
 9054WAT      O27403   2.013   3.538   9.037
 9054WAT     H127404   2.052   3.447   9.023
 9054WAT     H227405   2.066   3.605   8.986
 9055WAT      O27406   1.277   8.438   0.289
 9055WAT     H127407   1.279   8.521   0.346
 9055WAT     H227408   1.193   8.387   0.308
 9056WAT      O27409   6.548   5.626   3.905
 9056WAT     H127410   6.455   5.615   3.868
 9056WAT     H227411   6.613   5.588   3.840
 9057WAT      O27412   6.051   5.573   9.594
 9057WAT     H127413   6.047   5.652   9.655
 9057WAT     H227414   6.102   5.499   9.639
 9058WAT      O27415   9.174   0.425   3.881
 9058WAT     H127416   9.133   0.378   3.803
 9058WAT     H227417   9.273   0.412   3.880
 9059WAT      O27418   9.125   6.470   5.461
 9059WAT     H127419   9.084   6.526   5.532
 9059WAT     H227420   9.061   6.399   5.433
 9060WAT      O27421   1.083   7.729   1.138
 9060WAT     H127422   1.094   7.762   1.044
 9060WAT     H227423   1.144   7.781   1.198
 9061WAT      O27424   2.665   7.822   1.017
 9061WAT     H127425   2.634   7.859   1.105
 9061WAT     H227426   2.737   7.881   0.980
 9062WAT      O27427   2.522   4.992   5.439
 9062WAT     H127428   2.524   4.911   5.497
 9062WAT     H227429   2.538   5.074   5.495
 9063WAT      O27430   7.159   1.647   2.657
 9063WAT     H127431   7.091   1.651   2.730
 9063WAT     H227432   7.135   1.711   2.584
 9064WAT      O27433   2.520   3.606   2.659
 9064WAT     H127434   2.437   3.630   2.710
 9064WAT     H227435   2.528   3.507   2.653
 9065WAT      O27436   7.931   1.997   2.400
 9065WAT     H127437   7.832   2.000   2.392
 9065WAT     H227438   7.971   2.070   2.346
 9066WAT      O27439   8.868   6.426   6.444
 9066WAT     H127440   8.927   6.500   6.476
 9066WAT     H227441   8.774   6.443   6.474
 9067WAT      O27442   6.043   7.598   9.478
 9067WAT     H127443   6.045   7.628   9.574
 9067WAT     H227444   5.985   7.660   9.425
 9068WAT      O27445   8.055   2.519   4.677
 9068WAT     H127446   8.021   2.551   4.588
 9068WAT     H227447   8.135   2.462   4.663
 9069WAT      O27448   5.419   7.554   1.374
 9069WAT     H127449   5.345   7.498   1.336
 9069WAT     H227450   5.454   7.614   1.303
 9070WAT      O27451   8.671   5.759   1.924
 9070WAT     H127452   8.726   5.791   1.847
 9070WAT     H227453   8.656   5.661   1.917
 9071WAT      O27454   4.401   5.720   2.299
 9071WAT     H127455   4.354   5.753   2.217
 9071WAT     H227456   4.389   5.786   2.373
 9072WAT      O27457   9.571   2.946   5.303
 9072WAT     H127458   9.608   2.930   5.211
 9072WAT     H227459   9.544   2.859   5.343
 9073WAT      O27460   4.425   6.157   5.580
 9073WAT     H127461   4.395   6.250   5.558
 9073WAT     H227462   4.412   6.098   5.501
 9074WAT      O27463   7.114   4.988   3.659
 9074WAT     H127464   7.185   5.053   3.628
 9074WAT     H227465   7.043   4.982   3.589
 9075WAT      O27466   9.656   0.263   5.499
 9075WAT     H127467   9.580   0.325   5.517
 9075WAT     H227468   9.687   0.221   5.585
 9076WAT      O27469   1.743   0.393   6.222
 9076WAT     H127470   1.794   0.351   6.146
 9076WAT     H227471   1.761   0.343   6.306
 9077WAT      O27472   2.227   0.244   9.650
 9077WAT     H127473   2.268   0.175   9.591
 9077WAT     H227474   2.171   0.199   9.719
 9078WAT      O27475   2.315   2.950   6.775
 9078WAT     H127476   2.347   3.007   6.850
 9078WAT     H227477   2.315   2.854   6.803
 9079WAT      O27478   0.622   5.346   6.146
 9079WAT     H127479   0.689   5.419   6.139
 9079WAT     H227480   0.581   5.329   6.056
 9080WAT      O27481   1.382   1.618   9.110
 9080WAT     H127482   1.467   1.647   9.155
 9080WAT     H227483   1.386   1.641   9.013
 9081WAT      O27484   5.184   8.589   0.857
 9081WAT     H127485   5.109   8.625   0.802
 9081WAT     H227486   5.148   8.527   0.927
 9082WAT      O27487   4.693   5.635   0.925
 9082WAT     H127488   4.609   5.636   0.979
 9082WAT     H227489   4.732   5.543   0.927
 9083WAT      O27490   4.540   0.743   8.252
 9083WAT     H127491   4.520   0.679   8.326
 9083WAT     H227492   4.455   0.775   8.211
 9084WAT      O27493   4.936   7.027   8.264
 9084WAT     H127494   4.941   7.066   8.173
 9084WAT     H227495   4.841   7.027   8.295
 9085WAT      O27496   9.765   8.977   7.411
 9085WAT     H127497   9.687   8.922   7.439
 9085WAT     H227498   9.831   8.981   7.486
 9086WAT      O27499   1.290   8.158   0.481
 9086WAT     H127500   1.381   8.199   0.466
 9086WAT     H227501   1.223   8.231   0.496
 9087WAT      O27502   8.968   6.201   2.440
 9087WAT     H127503   8.972   6.282   2.499
 9087WAT     H227504   8.876   6.161   2.445
 9088WAT      O27505   5.934   2.584   5.524
 9088WAT     H127506   5.963   2.558   5.432
 9088WAT     H227507   5.838   2.559   5.537
 9089WAT      O27508   8.753   7.164   1.172
 9089WAT     H127509   8.844   7.148   1.211
 9089WAT     H227510   8.694   7.087   1.195
 9090WAT      O27511   5.896   6.853   9.832
 9090WAT     H127512   5.976   6.793   9.821
 9090WAT     H227513   5.922   6.947   9.811
 9091WAT      O27514   8.014   4.438   3.004
 9091WAT     H127515   7.962   4.390   3.075
 9091WAT     H227516   8.051   4.372   2.940
 9092WAT      O27517   5.042   7.776   0.166
 9092WAT     H127518   4.998   7.762   0.078
 9092WAT     H227519   5.141   7.770   0.156
 9093WAT      O27520   3.882   9.829   5.818
 9093WAT     H127521   3.868   9.865   5.910
 9093WAT     H227522   3.981   9.818   5.802
 9094WAT      O27523   6.493   2.538   1.757
 9094WAT     H127524   6.553   2.608   1.718
 9094WAT     H227525   6.399   2.572   1.759
 9095WAT      O27526   4.170   8.284   3.855
 9095WAT     H127527   4.074   8.312   3.850
 9095WAT     H227528   4.175   8.196   3.902
 9096WAT      O27529   2.439   6.430   5.728
 9096WAT     H127530   2.414   6.472   5.815
 9096WAT     H227531   2.502   6.354   5.744
 9097WAT      O27532   2.542   3.921   5.548
 9097WAT     H127533   2.587   3.866   5.477
 9097WAT     H227534   2.479   3.985   5.505
 9098WAT      O27535   4.342   9.103   1.659
 9098WAT     H127536   4.306   9.068   1.573
 9098WAT     H227537   4.440   9.084   1.665
 9099WAT      O27538   5.379   3.804   8.052
 9099WAT     H127539   5.384   3.759   7.962
 9099WAT     H227540   5.343   3.739   8.119
 9100WAT      O27541   8.567   2.745   5.709
 9100WAT     H127542   8.665   2.738   5.728
 9100WAT     H227543   8.516   2.695   5.779
 9101WAT      O27544   5.571   1.062   8.912
 9101WAT     H127545   5.568   0.974   8.959
 9101WAT     H227546   5.651   1.114   8.943
 9102WAT      O27547   1.111   6.939   3.436
 9102WAT     H127548   1.177   7.014   3.434
 9102WAT     H227549   1.150   6.859   3.390
 9103WAT      O27550   6.684   9.064   5.876
 9103WAT     H127551   6.586   9.067   5.854
 9103WAT     H227552   6.708   9.142   5.934
 9104WAT      O27553   3.298   5.819   7.616
 9104WAT     H127554   3.305   5.870   7.701
 9104WAT     H227555   3.376   5.757   7.607
 9105WAT      O27556   5.342   3.953   4.502
 9105WAT     H127557   5.317   3.935   4.597
 9105WAT     H227558   5.279   4.019   4.463
 9106WAT      O27559   8.952   3.419   1.676
 9106WAT     H127560   8.956   3.331   1.722
 9106WAT     H227561   9.037   3.469   1.692
 9107WAT      O27562   9.309   6.588   5.301
 9107WAT     H127563   9.304   6.687   5.315
 9107WAT     H227564   9.237   6.543   5.353
 9108WAT      O27565   0.133   5.956   8.079
 9108WAT     H127566   0.113   5.869   8.124
 9108WAT     H227567   0.049   5.993   8.040
 9109WAT      O27568   3.335   1.414   3.961
 9109WAT     H127569   3.405   1.346   3.981
 9109WAT     H227570   3.363   1.503   3.998
 9110WAT      O27571   0.958   2.454   7.888
 9110WAT     H127572   0.909   2.434   7.973
 9110WAT     H227573   1.047   2.410   7.889
 9111WAT      O27574   7.888   2.461   4.139
 9111WAT     H127575   7.816   2.396   4.113
 9111WAT     H227576   7.975   2.430   4.103
 9112WAT      O27577   0.327   5.109   5.874
 9112WAT     H127578   0.371   5.029   5.834
 9112WAT     H227579   0.318   5.096   5.973
 9113WAT      O27580   6.824   7.160   3.740
 9113WAT     H127581   6.755   7.225   3.774
 9113WAT     H227582   6.800   7.132   3.647
 9114WAT      O27583   2.506   9.242   5.840
 9114WAT     H127584   2.515   9.285   5.930
 9114WAT     H227585   2.595   9.204   5.813
 9115WAT      O27586   8.957   5.631   4.746
 9115WAT     H127587   8.880   5.570   4.725
 9115WAT     H227588   9.006   5.652   4.661
 9116WAT      O27589   0.484   7.866   9.420
 9116WAT     H127590   0.426   7.924   9.477
 9116WAT     H227591   0.559   7.830   9.475
 9117WAT      O27592   3.376   2.603   4.105
 9117WAT     H127593   3.287   2.605   4.150
 9117WAT     H227594   3.445   2.569   4.169
 9118WAT      O27595   9.477   3.179   5.865
 9118WAT     H127596   9.432   3.266   5.884
 9118WAT     H227597   9.560   3.195   5.812
 9119WAT      O27598   2.757   2.144   7.368
 9119WAT     H127599   2.816   2.127   7.290
 9119WAT     H227600   2.697   2.222   7.349
 9120WAT      O27601   2.786   6.527   6.598
 9120WAT     H127602   2.849   6.535   6.675
 9120WAT     H227603   2.697   6.494   6.630
 9121WAT      O27604   9.050   5.951   3.446
 9121WAT     H127605   9.085   6.039   3.415
 9121WAT     H227606   8.966   5.929   3.397
 9122WAT      O27607   4.988   8.782   8.824
 9122WAT     H127608   4.890   8.789   8.842
 9122WAT     H227609   5.037   8.842   8.887
 9123WAT      O27610   1.670   0.676   4.054
 9123WAT     H127611   1.664   0.602   4.122
 9123WAT     H227612   1.585   0.682   4.003
 9124WAT      O27613   8.761   2.342   8.177
 9124WAT     H127614   8.776   2.436   8.206
 9124WAT     H227615   8.815   2.280   8.235
 9125WAT      O27616   6.334   2.672   0.351
 9125WAT     H127617   6.410   2.664   0.287
 9125WAT     H227618   6.351   2.748   0.414
 9126WAT      O27619   9.717   7.823   1.022
 9126WAT     H127620   9.763   7.825   1.111
 9126WAT     H227621   9.618   7.830   1.036
 9127WAT      O27622   8.776   7.391   9.070
 9127WAT     H127623   8.785   7.368   9.167
 9127WAT     H227624   8.864   7.378   9.024
 9128WAT      O27625   9.144   3.063   2.728
 9128WAT     H127626   9.049   3.086   2.703
 9128WAT     H227627   9.190   3.145   2.762
 9129WAT      O27628   6.887   0.735   4.007
 9129WAT     H127629   6.881   0.645   3.964
 9129WAT     H227630   6.955   0.732   4.080
 9130WAT      O27631   0.563   2.680   9.104
 9130WAT     H127632   0.492   2.612   9.086
 9130WAT     H227633   0.581   2.684   9.202
 9131WAT      O27634   8.526   6.428   5.730
 9131WAT     H127635   8.612   6.449   5.683
 9131WAT     H227636   8.489   6.512   5.770
 9132WAT      O27637   8.871   2.272   9.328
 9132WAT     H127638   8.958   2.310   9.359
 9132WAT     H227639   8.800   2.342   9.333
 9133WAT      O27640   1.012   5.377   7.822
 9133WAT     H127641   0.948   5.327   7.880
 9133WAT     H227642   1.060   5.312   7.762
 9134WAT      O27643   3.466   0.599   5.512
 9134WAT     H127644   3.527   0.528   5.547
 9134WAT     H227645   3.517   0.660   5.452
 9135WAT      O27646   5.018   8.611   5.160
 9135WAT     H127647   4.929   8.580   5.125
 9135WAT     H227648   5.089   8.592   5.092
 9136WAT      O27649   1.737   0.811   6.213
 9136WAT     H127650   1.821   0.829   6.162
 9136WAT     H227651   1.685   0.739   6.167
 9137WAT      O27652   1.098   8.369   0.544
 9137WAT     H127653   1.037   8.290   0.550
 9137WAT     H227654   1.079   8.432   0.620
 9138WAT      O27655   4.817   2.727   7.453
 9138WAT     H127656   4.894   2.683   7.500
 9138WAT     H227657   4.733   2.713   7.507
 9139WAT      O27658   6.067   3.259   0.006
 9139WAT     H127659   6.141   3.262   0.073
 9139WAT     H227660   6.098   3.301  -0.080
 9140WAT      O27661   1.957   7.285   9.849
 9140WAT     H127662   1.961   7.287   9.949
 9140WAT     H227663   1.980   7.375   9.813
 9141WAT      O27664   5.199   6.896   4.388
 9141WAT     H127665   5.177   6.950   4.306
 9141WAT     H227666   5.152   6.808   4.383
 9142WAT      O27667   5.884   3.904   8.363
 9142WAT     H127668   5.937   3.837   8.414
 9142WAT     H227669   5.916   3.907   8.268
 9143WAT      O27670   8.689   8.418   7.989
 9143WAT     H127671   8.754   8.443   8.060
 9143WAT     H227672   8.666   8.321   7.996
 9144WAT      O27673   1.175   5.752   7.524
 9144WAT     H127674   1.237   5.778   7.450
 9144WAT     H227675   1.221   5.765   7.612
 9145WAT      O27676   1.349   2.837   5.432
 9145WAT     H127677   1.322   2.792   5.517
 9145WAT     H227678   1.335   2.936   5.440
 9146WAT      O27679   8.681   4.974   1.259
 9146WAT     H127680   8.700   5.052   1.199
 9146WAT     H227681   8.768   4.934   1.289
 9147WAT      O27682   0.028   6.319   7.567
 9147WAT     H127683  -0.056   6.353   7.526
 9147WAT     H227684   0.053   6.231   7.525
 9148WAT      O27685   6.817   5.102   2.964
 9148WAT     H127686   6.867   5.103   3.051
 9148WAT     H227687   6.721   5.125   2.980
 9149WAT      O27688   1.013   5.560   7.413
 9149WAT     H127689   0.939   5.560   7.479
 9149WAT     H227690   1.079   5.633   7.437
 9150WAT      O27691   1.744   6.680   8.082
 9150WAT     H127692   1.776   6.626   8.159
 9150WAT     H227693   1.803   6.760   8.071
 9151WAT      O27694   6.332   5.559   1.805
 9151WAT     H127695   6.348   5.466   1.839
 9151WAT     H227696   6.235   5.568   1.780
 9152WAT      O27697   8.702   4.893   9.650
 9152WAT     H127698   8.683   4.859   9.558
 9152WAT     H227699   8.635   4.962   9.675
 9153WAT      O27700   2.567   7.240   2.974
 9153WAT     H127701   2.588   7.337   2.959
 9153WAT     H227702   2.581   7.190   2.889
 9154WAT      O27703   2.180   2.588   2.834
 9154WAT     H127704   2.157   2.517   2.901
 9154WAT     H227705   2.177   2.678   2.878
 9155WAT      O27706   4.280   5.895   1.056
 9155WAT     H127707   4.365   5.886   1.109
 9155WAT     H227708   4.202   5.875   1.115
 9156WAT      O27709   7.976   3.915   4.110
 9156WAT     H127710   7.887   3.912   4.154
 9156WAT     H227711   8.030   3.991   4.148
 9157WAT      O27712   3.727   8.096   7.227
 9157WAT     H127713   3.779   8.052   7.154
 9157WAT     H227714   3.635   8.057   7.230
 9158WAT      O27715   3.818   7.151   1.152
 9158WAT     H127716   3.769   7.235   1.129
 9158WAT     H227717   3.759   7.072   1.137
 9159WAT      O27718   0.661   6.463   2.147
 9159WAT     H127719   0.639   6.560   2.133
 9159WAT     H227720   0.611   6.408   2.080
 9160WAT      O27721   5.833   3.759   9.857
 9160WAT     H127722   5.825   3.840   9.916
 9160WAT     H227723   5.746   3.709   9.858
 9161WAT      O27724   8.290   5.962   0.802
 9161WAT     H127725   8.198   6.000   0.795
 9161WAT     H227726   8.304   5.925   0.893
 9162WAT      O27727   6.195   6.180   3.690
 9162WAT     H127728   6.179   6.279   3.682
 9162WAT     H227729   6.124   6.131   3.638
 9163WAT      O27730   2.050   8.581   5.053
 9163WAT     H127731   1.992   8.505   5.082
 9163WAT     H227732   2.097   8.555   4.968
 9164WAT      O27733   1.136   7.127   8.351
 9164WAT     H127734   1.123   7.082   8.439
 9164WAT     H227735   1.048   7.147   8.310
 9165WAT      O27736   7.983   5.250   2.554
 9165WAT     H127737   7.895   5.217   2.521
 9165WAT     H227738   8.049   5.174   2.554
 9166WAT      O27739   1.575   6.277   7.340
 9166WAT     H127740   1.532   6.282   7.431
 9166WAT     H227741   1.600   6.182   7.321
 9167WAT      O27742   6.873   5.874   2.041
 9167WAT     H127743   6.931   5.796   2.017
 9167WAT     H227744   6.890   5.949   1.978
 9168WAT      O27745   1.482   2.012   8.190
 9168WAT     H127746   1.438   2.094   8.227
 9168WAT     H227747   1.413   1.940   8.177
 9169WAT      O27748   1.759   9.189   7.693
 9169WAT     H127749   1.675   9.153   7.654
 9169WAT     H227750   1.820   9.220   7.620
 9170WAT      O27751   5.942   3.402   7.726
 9170WAT     H127752   5.997   3.318   7.721
 9170WAT     H227753   5.997   3.476   7.765
 9171WAT      O27754   2.598   9.115   2.239
 9171WAT     H127755   2.691   9.151   2.239
 9171WAT     H227756   2.585   9.055   2.319
 9172WAT      O27757   4.863   4.539   7.597
 9172WAT     H127758   4.810   4.483   7.534
 9172WAT     H227759   4.825   4.530   7.689
 9173WAT      O27760   1.330   6.004   6.767
 9173WAT     H127761   1.249   5.980   6.821
 9173WAT     H227762   1.403   5.940   6.787
 9174WAT      O27763   8.532   0.560   9.127
 9174WAT     H127764   8.449   0.614   9.112
 9174WAT     H227765   8.602   0.588   9.061
 9175WAT      O27766   1.976   8.736   6.929
 9175WAT     H127767   1.970   8.640   6.953
 9175WAT     H227768   1.884   8.775   6.922
 9176WAT      O27769   4.413   9.516   1.964
 9176WAT     H127770   4.509   9.495   1.946
 9176WAT     H227771   4.380   9.460   2.040
 9177WAT      O27772   2.292   1.271   4.680
 9177WAT     H127773   2.294   1.171   4.675
 9177WAT     H227774   2.360   1.308   4.618
 9178WAT      O27775   5.109   8.804   9.812
 9178WAT     H127776   5.078   8.867   9.883
 9178WAT     H227777   5.076   8.836   9.723
 9179WAT      O27778   1.957   4.907   1.898
 9179WAT     H127779   1.879   4.888   1.838
 9179WAT     H227780   1.964   5.005   1.913
 9180WAT      O27781   1.452   1.917   3.175
 9180WAT     H127782   1.427   1.978   3.099
 9180WAT     H227783   1.395   1.834   3.170
 9181WAT      O27784   4.842   1.658   0.480
 9181WAT     H127785   4.771   1.714   0.521
 9181WAT     H227786   4.904   1.624   0.551
 9182WAT      O27787   2.056   4.253   1.996
 9182WAT     H127788   2.071   4.296   2.085
 9182WAT     H227789   2.134   4.194   1.973
 9183WAT      O27790   1.338   7.605   2.943
 9183WAT     H127791   1.394   7.530   2.978
 9183WAT     H227792   1.248   7.570   2.915
 9184WAT      O27793   9.864   1.122   7.495
 9184WAT     H127794   9.885   1.219   7.502
 9184WAT     H227795   9.948   1.071   7.474
 9185WAT      O27796   4.093   2.086   6.458
 9185WAT     H127797   4.035   2.160   6.493
 9185WAT     H227798   4.181   2.123   6.429
 9186WAT      O27799   2.139   9.212   9.829
 9186WAT     H127800   2.133   9.191   9.731
 9186WAT     H227801   2.197   9.293   9.842
 9187WAT      O27802   6.196   7.700   1.340
 9187WAT     H127803   6.104   7.711   1.302
 9187WAT     H227804   6.189   7.666   1.434
 9188WAT      O27805   9.217   4.240   3.199
 9188WAT     H127806   9.154   4.189   3.257
 9188WAT     H227807   9.309   4.235   3.237
 9189WAT      O27808   5.520   3.165   3.602
 9189WAT     H127809   5.452   3.230   3.568
 9189WAT     H227810   5.586   3.213   3.660
 9190WAT      O27811   7.896   2.458   5.806
 9190WAT     H127812   7.812   2.512   5.798
 9190WAT     H227813   7.967   2.514   5.849
 9191WAT      O27814   9.504   3.857   3.518
 9191WAT     H127815   9.603   3.840   3.516
 9191WAT     H227816   9.463   3.807   3.594
 9192WAT      O27817   0.106   6.511   0.362
 9192WAT     H127818   0.039   6.582   0.341
 9192WAT     H227819   0.127   6.460   0.278
 9193WAT      O27820   6.544   0.988   2.876
 9193WAT     H127821   6.551   1.085   2.851
 9193WAT     H227822   6.448   0.964   2.886
 9194WAT      O27823   6.049   8.723   7.563
 9194WAT     H127824   6.012   8.815   7.550
 9194WAT     H227825   6.040   8.672   7.478
 9195WAT      O27826   3.293   1.008   6.420
 9195WAT     H127827   3.378   1.043   6.379
 9195WAT     H227828   3.287   1.038   6.515
 9196WAT      O27829   7.227   4.224   8.314
 9196WAT     H127830   7.190   4.193   8.401
 9196WAT     H227831   7.171   4.299   8.279
 9197WAT      O27832   2.473   1.327   4.442
 9197WAT     H127833   2.550   1.326   4.378
 9197WAT     H227834   2.387   1.337   4.391
 9198WAT      O27835   7.149   9.696   5.651
 9198WAT     H127836   7.097   9.777   5.679
 9198WAT     H227837   7.243   9.704   5.684
 9199WAT      O27838   1.491   1.756   4.611
 9199WAT     H127839   1.438   1.690   4.557
 9199WAT     H227840   1.584   1.720   4.624
 9200WAT      O27841   6.443   2.579   1.020
 9200WAT     H127842   6.455   2.481   1.003
 9200WAT     H227843   6.348   2.604   1.002
 9201WAT      O27844   3.295   4.618   0.806
 9201WAT     H127845   3.202   4.585   0.820
 9201WAT     H227846   3.347   4.551   0.753
 9202WAT      O27847   9.525   1.460   4.428
 9202WAT     H127848   9.622   1.480   4.419
 9202WAT     H227849   9.472   1.544   4.416
 9203WAT      O27850   5.261   2.133   5.508
 9203WAT     H127851   5.338   2.180   5.550
 9203WAT     H227852   5.190   2.200   5.485
 9204WAT      O27853   7.522   3.703   1.020
 9204WAT     H127854   7.485   3.700   0.928
 9204WAT     H227855   7.496   3.620   1.070
 9205WAT      O27856   4.492   6.079   7.087
 9205WAT     H127857   4.454   5.987   7.096
 9205WAT     H227858   4.421   6.141   7.052
 9206WAT      O27859   0.434   9.664   4.257
 9206WAT     H127860   0.507   9.727   4.232
 9206WAT     H227861   0.387   9.633   4.174
 9207WAT      O27862   5.763   8.610   2.867
 9207WAT     H127863   5.846   8.663   2.883
 9207WAT     H227864   5.779   8.544   2.794
 9208WAT      O27865   9.183   8.889   1.936
 9208WAT     H127866   9.233   8.937   2.008
 9208WAT     H227867   9.088   8.876   1.965
 9209WAT      O27868   3.346   5.030   8.942
 9209WAT     H127869   3.380   5.113   8.986
 9209WAT     H227870   3.384   4.950   8.989
 9210WAT      O27871   0.532   7.480   7.571
 9210WAT     H127872   0.481   7.480   7.657
 9210WAT     H227873   0.506   7.559   7.516
 9211WAT      O27874   2.584   1.960   6.667
 9211WAT     H127875   2.669   1.988   6.623
 9211WAT     H227876   2.605   1.901   6.745
 9212WAT      O27877   8.386   1.317   3.874
 9212WAT     H127878   8.366   1.273   3.962
 9212WAT     H227879   8.478   1.355   3.876
 9213WAT      O27880   7.997   0.235   7.497
 9213WAT     H127881   7.948   0.171   7.439
 9213WAT     H227882   8.020   0.192   7.584
 9214WAT      O27883   5.892   8.048   7.804
 9214WAT     H127884   5.972   8.105   7.823
 9214WAT     H227885   5.832   8.095   7.740
 9215WAT      O27886   8.968   4.322   8.966
 9215WAT     H127887   8.880   4.277   8.947
 9215WAT     H227888   9.006   4.286   9.052
 9216WAT      O27889   1.640   6.672   0.493
 9216WAT     H127890   1.678   6.732   0.423
 9216WAT     H227891   1.657   6.577   0.468
 9217WAT      O27892   7.224   3.469   7.295
 9217WAT     H127893   7.283   3.435   7.368
 9217WAT     H227894   7.128   3.449   7.317
 9218WAT      O27895   0.512   3.585   4.920
 9218WAT     H127896   0.609   3.570   4.938
 9218WAT     H227897   0.486   3.535   4.837
 9219WAT      O27898   0.953   2.703   5.151
 9219WAT     H127899   0.874   2.720   5.210
 9219WAT     H227900   0.981   2.607   5.159
 9220WAT      O27901   2.980   7.731   5.257
 9220WAT     H127902   2.902   7.750   5.318
 9220WAT     H227903   2.951   7.669   5.184
 9221WAT      O27904   5.991   2.825   9.563
 9221WAT     H127905   6.031   2.884   9.633
 9221WAT     H227906   6.040   2.838   9.476
 9222WAT      O27907   6.655   6.912   5.401
 9222WAT     H127908   6.654   7.010   5.420
 9222WAT     H227909   6.741   6.887   5.356
 9223WAT      O27910   1.821   6.933   4.163
 9223WAT     H127911   1.765   6.939   4.246
 9223WAT     H227912   1.908   6.979   4.178
 9224WAT      O27913   2.495   5.385   5.770
 9224WAT     H127914   2.411   5.348   5.810
 9224WAT     H227915   2.517   5.471   5.815
 9225WAT      O27916   7.694   9.449   6.186
 9225WAT     H127917   7.743   9.373   6.145
 9225WAT     H227918   7.717   9.454   6.284
 9226WAT      O27919   9.505   0.758   0.814
 9226WAT     H127920   9.435   0.724   0.876
 9226WAT     H227921   9.596   0.742   0.854
 9227WAT      O27922   5.149   8.756   2.110
 9227WAT     H127923   5.243   8.782   2.134
 9227WAT     H227924   5.141   8.750   2.010
 9228WAT      O27925   1.768   7.809   4.990
 9228WAT     H127926   1.778   7.739   5.060
 9228WAT     H227927   1.671   7.825   4.972
 9229WAT      O27928   7.075   1.945   8.122
 9229WAT     H127929   7.013   1.867   8.118
 9229WAT     H227930   7.115   1.951   8.214
 9230WAT      O27931   3.689   6.902   9.099
 9230WAT     H127932   3.666   6.853   9.014
 9230WAT     H227933   3.621   6.974   9.115
 9231WAT      O27934   1.057   1.643   5.427
 9231WAT     H127935   1.074   1.635   5.525
 9231WAT     H227936   0.958   1.637   5.410
 9232WAT      O27937   4.615   8.049   2.291
 9232WAT     H127938   4.542   8.104   2.251
 9232WAT     H227939   4.700   8.064   2.239
 9233WAT      O27940   1.991   6.564   4.861
 9233WAT     H127941   1.993   6.599   4.955
 9233WAT     H227942   2.083   6.537   4.834
 9234WAT      O27943   0.968   1.825   1.104
 9234WAT     H127944   1.037   1.771   1.054
 9234WAT     H227945   1.014   1.890   1.165
 9235WAT      O27946   0.148   8.290   7.379
 9235WAT     H127947   0.177   8.329   7.292
 9235WAT     H227948   0.218   8.228   7.413
 9236WAT      O27949   8.937   1.601   5.248
 9236WAT     H127950   9.004   1.666   5.283
 9236WAT     H227951   8.934   1.607   5.148
 9237WAT      O27952   2.477   7.456   0.454
 9237WAT     H127953   2.498   7.532   0.515
 9237WAT     H227954   2.528   7.375   0.483
 9238WAT      O27955   8.393   7.995   8.109
 9238WAT     H127956   8.312   8.012   8.164
 9238WAT     H227957   8.417   7.898   8.113
 9239WAT      O27958   7.416   4.695   3.057
 9239WAT     H127959   7.441   4.699   3.154
 9239WAT     H227960   7.493   4.727   3.002
 9240WAT      O27961   3.076   4.967   0.604
 9240WAT     H127962   2.989   4.977   0.652
 9240WAT     H227963   3.103   5.056   0.566
 9241WAT      O27964   2.142   9.639   0.367
 9241WAT     H127965   2.062   9.641   0.307
 9241WAT     H227966   2.118   9.591   0.451
 9242WAT      O27967   1.717   4.558   6.176
 9242WAT     H127968   1.720   4.483   6.243
 9242WAT     H227969   1.625   4.596   6.173
 9243WAT      O27970   6.809   6.409   9.581
 9243WAT     H127971   6.751   6.409   9.662
 9243WAT     H227972   6.796   6.323   9.532
 9244WAT      O27973   6.253   1.826   7.314
 9244WAT     H127974   6.203   1.740   7.305
 9244WAT     H227975   6.340   1.809   7.361
 9245WAT      O27976   4.778   5.316   8.578
 9245WAT     H127977   4.855   5.309   8.515
 9245WAT     H227978   4.725   5.399   8.557
 9246WAT      O27979   6.105   9.547   3.569
 9246WAT     H127980   6.106   9.447   3.574
 9246WAT     H227981   6.120   9.576   3.474
 9247WAT      O27982   4.537   4.230   2.166
 9247WAT     H127983   4.534   4.239   2.066
 9247WAT     H227984   4.628   4.257   2.199
 9248WAT      O27985   2.585   1.221   7.916
 9248WAT     H127986   2.550   1.164   7.990
 9248WAT     H227987   2.631   1.163   7.848
 9249WAT      O27988   4.402   7.649   9.414
 9249WAT     H127989   4.397   7.562   9.464
 9249WAT     H227990   4.373   7.723   9.473
 9250WAT      O27991   6.795   0.428   9.348
 9250WAT     H127992   6.825   0.522   9.332
 9250WAT     H227993   6.811   0.373   9.265
 9251WAT      O27994   2.151   3.906   7.901
 9251WAT     H127995   2.065   3.871   7.939
 9251WAT     H227996   2.227   3.862   7.948
 9252WAT      O27997   8.500   0.612   6.251
 9252WAT     H127998   8.446   0.660   6.183
 9252WAT     H227999   8.566   0.552   6.206
 9253WAT      O28000   4.681   3.527   1.658
 9253WAT     H128001   4.672   3.435   1.620
 9253WAT     H228002   4.595   3.553   1.702
 9254WAT      O28003   0.274   9.596   4.057
 9254WAT     H128004   0.235   9.511   4.022
 9254WAT     H228005   0.209   9.640   4.118
 9255WAT      O28006   0.831   7.083   8.595
 9255WAT     H128007   0.785   7.025   8.663
 9255WAT     H228008   0.915   7.039   8.565
 9256WAT      O28009   8.812   8.208   5.514
 9256WAT     H128010   8.899   8.162   5.534
 9256WAT     H228011   8.822   8.306   5.527
 9257WAT      O28012   9.770   6.291   3.080
 9257WAT     H128013   9.807   6.205   3.043
 9257WAT     H228014   9.844   6.357   3.091
 9258WAT      O28015   0.057   8.909   4.259
 9258WAT     H128016   0.101   8.852   4.329
 9258WAT     H228017   0.043   8.856   4.176
 9259WAT      O28018   8.413   3.617   0.736
 9259WAT     H128019   8.477   3.542   0.753
 9259WAT     H228020   8.320   3.580   0.732
 9260WAT      O28021   5.789   3.021   6.534
 9260WAT     H128022   5.728   3.060   6.464
 9260WAT     H228023   5.786   2.921   6.527
 9261WAT      O28024   2.386   9.675   8.259
 9261WAT     H128025   2.435   9.589   8.248
 9261WAT     H228026   2.435   9.749   8.213
 9262WAT      O28027   8.787   4.749   4.589
 9262WAT     H128028   8.875   4.776   4.627
 9262WAT     H228029   8.799   4.717   4.495
 9263WAT      O28030   6.692   3.244   9.279
 9263WAT     H128031   6.719   3.287   9.193
 9263WAT     H228032   6.638   3.308   9.333
 9264WAT      O28033   2.525   3.234   3.492
 9264WAT     H128034   2.576   3.294   3.553
 9264WAT     H228035   2.434   3.272   3.476
 9265WAT      O28036   6.094   6.356   1.267
 9265WAT     H128037   6.007   6.319   1.299
 9265WAT     H228038   6.123   6.306   1.185
 9266WAT      O28039   7.176   7.807   8.960
 9266WAT     H128040   7.097   7.769   9.007
 9266WAT     H228041   7.183   7.770   8.868
 9267WAT      O28042   9.459   4.443   1.595
 9267WAT     H128043   9.391   4.412   1.661
 9267WAT     H228044   9.496   4.531   1.625
 9268WAT      O28045   1.414   5.652   3.966
 9268WAT     H128046   1.352   5.595   3.913
 9268WAT     H228047   1.496   5.599   3.990
 9269WAT      O28048   5.188   5.984   8.105
 9269WAT     H128049   5.226   5.969   8.196
 9269WAT     H228050   5.126   6.063   8.107
 9270WAT      O28051   5.059   1.300   7.285
 9270WAT     H128052   5.159   1.308   7.279
 9270WAT     H228053   5.030   1.214   7.242
 9271WAT      O28054   2.777   6.853   3.130
 9271WAT     H128055   2.850   6.806   3.180
 9271WAT     H228056   2.716   6.785   3.089
 9272WAT      O28057   3.623   3.657   6.413
 9272WAT     H128058   3.581   3.748   6.413
 9272WAT     H228059   3.707   3.660   6.358
 9273WAT      O28060   9.697   3.834   1.138
 9273WAT     H128061   9.789   3.842   1.101
 9273WAT     H228062   9.648   3.760   1.092
 9274WAT      O28063   3.641   2.648   4.271
 9274WAT     H128064   3.723   2.613   4.225
 9274WAT     H228065   3.649   2.633   4.369
 9275WAT      O28066   9.809   8.826   5.694
 9275WAT     H128067   9.833   8.743   5.644
 9275WAT     H228068   9.816   8.809   5.792
 9276WAT      O28069   0.093   1.552   5.071
 9276WAT     H128070   0.010   1.558   5.126
 9276WAT     H228071   0.080   1.602   4.986
 9277WAT      O28072   4.578   7.615   2.214
 9277WAT     H128073   4.577   7.614   2.114
 9277WAT     H228074   4.610   7.527   2.249
 9278WAT      O28075   6.337   8.065   2.541
 9278WAT     H128076   6.416   8.036   2.488
 9278WAT     H228077   6.256   8.013   2.513
 9279WAT      O28078   8.387   6.336   7.981
 9279WAT     H128079   8.342   6.409   7.930
 9279WAT     H228080   8.476   6.367   8.013
 9280WAT      O28081   0.507   6.405   2.871
 9280WAT     H128082   0.510   6.317   2.825
 9280WAT     H228083   0.579   6.409   2.941
 9281WAT      O28084   1.936   4.078   8.856
 9281WAT     H128085   1.863   4.016   8.885
 9281WAT     H228086   1.898   4.151   8.799
 9282WAT      O28087   0.810   9.023   8.801
 9282WAT     H128088   0.891   8.991   8.849
 9282WAT     H228089   0.731   8.969   8.828
 9283WAT      O28090   6.593   0.821   8.219
 9283WAT     H128091   6.657   0.870   8.278
 9283WAT     H228092   6.584   0.870   8.132
 9284WAT      O28093   7.931   5.079   4.073
 9284WAT     H128094   7.932   5.038   4.164
 9284WAT     H228095   7.960   5.175   4.079
 9285WAT      O28096   1.083   9.355   1.106
 9285WAT     H128097   1.040   9.315   1.187
 9285WAT     H228098   1.080   9.290   1.031
 9286WAT      O28099   5.176   2.189   1.974
 9286WAT     H128100   5.085   2.229   1.960
 9286WAT     H228101   5.209   2.213   2.065
 9287WAT      O28102   4.196   9.169   0.079
 9287WAT     H128103   4.223   9.099   0.012
 9287WAT     H228104   4.191   9.127   0.170
 9288WAT      O28105   8.101   3.061   2.552
 9288WAT     H128106   8.188   3.108   2.543
 9288WAT     H228107   8.094   2.990   2.482
 9289WAT      O28108   6.694   2.301   4.959
 9289WAT     H128109   6.623   2.358   5.002
 9289WAT     H228110   6.679   2.299   4.860
 9290WAT      O28111   7.747   9.051   5.269
 9290WAT     H128112   7.804   9.087   5.343
 9290WAT     H228113   7.805   9.013   5.197
 9291WAT      O28114   6.945   2.173   8.226
 9291WAT     H128115   6.995   2.101   8.178
 9291WAT     H228116   6.882   2.132   8.291
 9292WAT      O28117   3.140   5.164   8.242
 9292WAT     H128118   3.236   5.183   8.266
 9292WAT     H228119   3.119   5.205   8.153
 9293WAT      O28120   8.392   9.025   9.226
 9293WAT     H128121   8.448   8.950   9.263
 9293WAT     H228122   8.304   9.027   9.275
 9294WAT      O28123   1.000   3.840   4.687
 9294WAT     H128124   1.073   3.908   4.687
 9294WAT     H228125   1.039   3.749   4.702
 9295WAT      O28126   6.135   4.166   8.518
 9295WAT     H128127   6.065   4.172   8.589
 9295WAT     H228128   6.150   4.070   8.494
 9296WAT      O28129   8.611   5.278   4.549
 9296WAT     H128130   8.514   5.262   4.569
 9296WAT     H228131   8.662   5.193   4.561
 9297WAT      O28132   5.916   1.619   6.554
 9297WAT     H128133   5.945   1.704   6.598
 9297WAT     H228134   5.965   1.607   6.468
 9298WAT      O28135   5.080   7.058   3.329
 9298WAT     H128136   5.155   7.016   3.279
 9298WAT     H228137   5.032   7.123   3.270
 9299WAT      O28138   3.334   6.443   9.541
 9299WAT     H128139   3.245   6.475   9.507
 9299WAT     H228140   3.320   6.393   9.627
 9300WAT      O28141   7.839   7.815   5.665
 9300WAT     H128142   7.817   7.882   5.736
 9300WAT     H228143   7.882   7.735   5.708
 9301WAT      O28144   8.599   2.435   3.645
 9301WAT     H128145   8.664   2.489   3.592
 9301WAT     H228146   8.553   2.493   3.712
 9302WAT      O28147   6.345   7.089   4.912
 9302WAT     H128148   6.287   7.076   4.992
 9302WAT     H228149   6.421   7.023   4.915
 9303WAT      O28150   8.681   0.184   5.038
 9303WAT     H128151   8.600   0.232   5.004
 9303WAT     H228152   8.746   0.171   4.964
 9304WAT      O28153   4.340   4.713   9.381
 9304WAT     H128154   4.289   4.630   9.358
 9304WAT     H228155   4.317   4.784   9.315
 9305WAT      O28156   6.167   6.418   2.484
 9305WAT     H128157   6.109   6.498   2.502
 9305WAT     H228158   6.259   6.435   2.520
 9306WAT      O28159   1.186   0.021   6.296
 9306WAT     H128160   1.179   0.069   6.209
 9306WAT     H228161   1.138  -0.067   6.289
 9307WAT      O28162   9.770   4.100   8.488
 9307WAT     H128163   9.768   4.189   8.533
 9307WAT     H228164   9.853   4.092   8.433
 9308WAT      O28165   3.809   0.750   2.754
 9308WAT     H128166   3.824   0.656   2.725
 9308WAT     H228167   3.897   0.795   2.770
 9309WAT      O28168   4.709   9.524   5.490
 9309WAT     H128169   4.782   9.515   5.422
 9309WAT     H228170   4.734   9.472   5.571
 9310WAT      O28171   2.817   3.476   6.814
 9310WAT     H128172   2.834   3.412   6.739
 9310WAT     H228173   2.764   3.431   6.885
 9311WAT      O28174   5.038   1.633   3.913
 9311WAT     H128175   5.054   1.644   3.814
 9311WAT     H228176   4.977   1.555   3.928
 9312WAT      O28177   3.981   0.002   8.099
 9312WAT     H128178   3.931  -0.080   8.071
 9312WAT     H228179   3.947   0.081   8.047
 9313WAT      O28180   7.640   9.202   3.034
 9313WAT     H128181   7.593   9.154   3.108
 9313WAT     H228182   7.654   9.298   3.060
 9314WAT      O28183   3.076   1.896   7.438
 9314WAT     H128184   3.040   1.813   7.481
 9314WAT     H228185   3.167   1.916   7.475
 9315WAT      O28186   0.160   6.368   2.776
 9315WAT     H128187   0.241   6.427   2.772
 9315WAT     H228188   0.085   6.418   2.818
 9316WAT      O28189   2.709   3.860   2.870
 9316WAT     H128190   2.724   3.819   2.960
 9316WAT     H228191   2.776   3.823   2.806
 9317WAT      O28192   8.607   9.316   5.361
 9317WAT     H128193   8.548   9.241   5.389
 9317WAT     H228194   8.602   9.328   5.262
 9318WAT      O28195   8.455   5.186   1.025
 9318WAT     H128196   8.552   5.170   1.042
 9318WAT     H228197   8.411   5.100   1.000
 9319WAT      O28198   8.395   1.537   2.978
 9319WAT     H128199   8.393   1.444   3.016
 9319WAT     H228200   8.440   1.598   3.043
 9320WAT      O28201   4.797   6.123   1.308
 9320WAT     H128202   4.850   6.042   1.281
 9320WAT     H228203   4.837   6.205   1.268
 9321WAT      O28204   6.789   0.461   7.933
 9321WAT     H128205   6.717   0.480   8.000
 9321WAT     H228206   6.752   0.467   7.840
 9322WAT      O28207   0.895   7.112   0.337
 9322WAT     H128208   0.989   7.101   0.370
 9322WAT     H228209   0.883   7.204   0.301
 9323WAT      O28210   1.314   1.707   0.207
 9323WAT     H128211   1.361   1.625   0.239
 9323WAT     H228212   1.378   1.784   0.207
 9324WAT      O28213   4.706   4.020   5.866
 9324WAT     H128214   4.735   4.115   5.860
 9324WAT     H228215   4.640   4.009   5.940
 9325WAT      O28216   8.873   2.628   0.979
 9325WAT     H128217   8.942   2.576   1.030
 9325WAT     H228218   8.872   2.723   1.013
 9326WAT      O28219   6.091   4.318   2.403
 9326WAT     H128220   6.153   4.361   2.468
 9326WAT     H228221   6.020   4.268   2.452
 9327WAT      O28222   5.395   1.684   4.444
 9327WAT     H128223   5.448   1.766   4.465
 9327WAT     H228224   5.305   1.710   4.408
 9328WAT      O28225   0.351   9.072   7.018
 9328WAT     H128226   0.430   9.108   7.067
 9328WAT     H228227   0.322   9.139   6.949
 9329WAT      O28228   0.407   1.062   3.426
 9329WAT     H128229   0.346   1.110   3.490
 9329WAT     H228230   0.456   1.129   3.371
 9330WAT      O28231   6.919   5.656   4.343
 9330WAT     H128232   6.849   5.604   4.294
 9330WAT     H228233   6.883   5.684   4.432
 9331WAT      O28234   0.882   1.765   3.603
 9331WAT     H128235   0.918   1.772   3.695
 9331WAT     H228236   0.863   1.669   3.581
 9332WAT      O28237   7.484   1.762   5.343
 9332WAT     H128238   7.559   1.794   5.284
 9332WAT     H228239   7.416   1.715   5.288
 9333WAT      O28240   1.505   2.599   1.738
 9333WAT     H128241   1.570   2.565   1.806
 9333WAT     H228242   1.463   2.683   1.772
 9334WAT      O28243   8.446   5.836   4.009
 9334WAT     H128244   8.408   5.838   3.917
 9334WAT     H228245   8.382   5.789   4.070
 9335WAT      O28246   2.385   8.606   5.723
 9335WAT     H128247   2.290   8.577   5.732
 9335WAT     H228248   2.389   8.691   5.672
 9336WAT      O28249   9.218   6.001   1.535
 9336WAT     H128250   9.280   6.045   1.599
 9336WAT     H228251   9.211   6.056   1.452
 9337WAT      O28252   0.063   4.453   8.220
 9337WAT     H128253   0.144   4.426   8.272
 9337WAT     H228254   0.037   4.547   8.244
 9338WAT      O28255   3.249   6.999   3.209
 9338WAT     H128256   3.245   6.941   3.290
 9338WAT     H228257   3.178   7.069   3.215
 9339WAT      O28258   1.432   9.190   8.160
 9339WAT     H128259   1.369   9.226   8.091
 9339WAT     H228260   1.491   9.121   8.118
 9340WAT      O28261   2.636   0.538   3.896
 9340WAT     H128262   2.736   0.547   3.898
 9340WAT     H228263   2.612   0.448   3.861
 9341WAT      O28264   2.215   3.068   1.632
 9341WAT     H128265   2.202   2.984   1.578
 9341WAT     H228266   2.223   3.044   1.728
 9342WAT      O28267   2.942   9.267   9.749
 9342WAT     H128268   2.991   9.353   9.758
 9342WAT     H228269   2.917   9.233   9.839
 9343WAT      O28270   1.719   7.270   2.538
 9343WAT     H128271   1.750   7.364   2.526
 9343WAT     H228272   1.662   7.244   2.460
 9344WAT      O28273   3.218   4.736   6.354
 9344WAT     H128274   3.225   4.831   6.384
 9344WAT     H228275   3.292   4.716   6.289
 9345WAT      O28276   6.993   0.747   4.522
 9345WAT     H128277   7.033   0.682   4.457
 9345WAT     H228278   7.033   0.837   4.508
 9346WAT      O28279   3.652   0.201   5.715
 9346WAT     H128280   3.557   0.171   5.726
 9346WAT     H228281   3.710   0.153   5.781
 9347WAT      O28282   5.028   5.643   8.276
 9347WAT     H128283   5.116   5.598   8.260
 9347WAT     H228284   4.997   5.687   8.192
 9348WAT      O28285   5.959   6.667   8.088
 9348WAT     H128286   5.953   6.679   8.187
 9348WAT     H228287   5.969   6.570   8.066
 9349WAT      O28288   9.247   8.337   2.168
 9349WAT     H128289   9.259   8.275   2.090
 9349WAT     H228290   9.235   8.431   2.135
 9350WAT      O28291   2.239   8.032   5.256
 9350WAT     H128292   2.338   8.033   5.249
 9350WAT     H228293   2.204   8.125   5.241
 9351WAT      O28294   3.170   4.298   6.302
 9351WAT     H128295   3.131   4.269   6.214
 9351WAT     H228296   3.258   4.253   6.316
 9352WAT      O28297   8.009   3.730   3.704
 9352WAT     H128298   7.952   3.795   3.753
 9352WAT     H228299   8.045   3.773   3.621
 9353WAT      O28300   8.155   8.470   8.412
 9353WAT     H128301   8.224   8.437   8.347
 9353WAT     H228302   8.190   8.550   8.460
 9354WAT      O28303   5.819   0.694   9.875
 9354WAT     H128304   5.811   0.786   9.913
 9354WAT     H228305   5.827   0.627   9.949
 9355WAT      O28306   5.104   6.694   0.884
 9355WAT     H128307   5.048   6.679   0.802
 9355WAT     H228308   5.188   6.741   0.859
 9356WAT      O28309   6.707   8.354   9.126
 9356WAT     H128310   6.707   8.254   9.132
 9356WAT     H228311   6.793   8.384   9.086
 9357WAT      O28312   3.505   9.243   7.307
 9357WAT     H128313   3.515   9.232   7.208
 9357WAT     H228314   3.594   9.270   7.345
 9358WAT      O28315   0.352   4.940   6.925
 9358WAT     H128316   0.277   4.991   6.967
 9358WAT     H228317   0.388   4.874   6.991
 9359WAT      O28318   7.601   1.777   4.933
 9359WAT     H128319   7.601   1.728   4.846
 9359WAT     H228320   7.506   1.797   4.960
 9360WAT      O28321   6.683   5.742   3.514
 9360WAT     H128322   6.666   5.662   3.572
 9360WAT     H228323   6.640   5.728   3.425
 9361WAT      O28324   1.491   3.239   4.458
 9361WAT     H128325   1.512   3.241   4.360
 9361WAT     H228326   1.569   3.201   4.507
 9362WAT      O28327   5.761   3.905   8.727
 9362WAT     H128328   5.799   3.985   8.774
 9362WAT     H228329   5.697   3.858   8.787
 9363WAT      O28330   1.979   4.174   2.296
 9363WAT     H128331   1.902   4.113   2.278
 9363WAT     H228332   1.979   4.199   2.393
 9364WAT      O28333   4.480   1.569   6.717
 9364WAT     H128334   4.411   1.513   6.671
 9364WAT     H228335   4.443   1.602   6.805
 9365WAT      O28336   2.991   1.991   3.263
 9365WAT     H128337   3.050   1.961   3.338
 9365WAT     H228338   2.904   1.940   3.267
 9366WAT      O28339   0.311   7.952   6.323
 9366WAT     H128340   0.249   7.964   6.245
 9366WAT     H228341   0.404   7.937   6.290
 9367WAT      O28342   0.817   7.370   1.229
 9367WAT     H128343   0.770   7.394   1.144
 9367WAT     H228344   0.826   7.271   1.235
 9368WAT      O28345   0.606   3.685   8.368
 9368WAT     H128346   0.524   3.729   8.333
 9368WAT     H228347   0.608   3.691   8.467
 9369WAT      O28348   3.353   6.603   1.287
 9369WAT     H128349   3.265   6.578   1.247
 9369WAT     H228350   3.400   6.521   1.319
 9370WAT      O28351   1.860   0.395   4.868
 9370WAT     H128352   1.791   0.425   4.803
 9370WAT     H228353   1.835   0.428   4.960
 9371WAT      O28354   6.359   8.154   5.096
 9371WAT     H128355   6.410   8.195   5.021
 9371WAT     H228356   6.270   8.123   5.063
 9372WAT      O28357   6.108   7.262   8.888
 9372WAT     H128358   6.064   7.351   8.888
 9372WAT     H228359   6.192   7.266   8.832
 9373WAT      O28360   9.492   6.193   4.203
 9373WAT     H128361   9.417   6.158   4.147
 9373WAT     H228362   9.537   6.268   4.155
 9374WAT      O28363   7.803   3.585   2.120
 9374WAT     H128364   7.852   3.647   2.181
 9374WAT     H228365   7.713   3.564   2.159
 9375WAT      O28366   1.211   1.772   2.832
 9375WAT     H128367   1.271   1.842   2.793
 9375WAT     H228368   1.117   1.805   2.834
 9376WAT      O28369   3.605   9.540   6.722
 9376WAT     H128370   3.645   9.536   6.813
 9376WAT     H228371   3.515   9.496   6.723
 9377WAT      O28372   4.274   3.480   4.719
 9377WAT     H128373   4.242   3.519   4.632
 9377WAT     H228374   4.197   3.474   4.783
 9378WAT      O28375   3.613   7.174   2.970
 9378WAT     H128376   3.694   7.226   2.946
 9378WAT     H228377   3.549   7.173   2.893
 9379WAT      O28378   5.441   8.345   7.195
 9379WAT     H128379   5.378   8.416   7.226
 9379WAT     H228380   5.528   8.352   7.244
 9380WAT      O28381   8.881   0.661   1.895
 9380WAT     H128382   8.909   0.672   1.990
 9380WAT     H228383   8.924   0.579   1.857
 9381WAT      O28384   1.678   6.626   8.782
 9381WAT     H128385   1.765   6.621   8.733
 9381WAT     H228386   1.612   6.678   8.727
 9382WAT      O28387   2.385   2.006   3.114
 9382WAT     H128388   2.463   1.955   3.151
 9382WAT     H228389   2.320   1.942   3.072
 9383WAT      O28390   9.619   4.106   1.066
 9383WAT     H128391   9.687   4.111   1.139
 9383WAT     H228392   9.665   4.093   0.978
 9384WAT      O28393   5.919   3.993   7.315
 9384WAT     H128394   6.002   3.998   7.259
 9384WAT     H228395   5.860   4.071   7.295
 9385WAT      O28396   6.008   3.752   2.802
 9385WAT     H128397   6.074   3.697   2.853
 9385WAT     H228398   6.051   3.788   2.719
 9386WAT      O28399   9.748   7.175   2.604
 9386WAT     H128400   9.753   7.205   2.509
 9386WAT     H228401   9.663   7.208   2.645
 9387WAT      O28402   1.821   6.216   3.779
 9387WAT     H128403   1.872   6.255   3.855
 9387WAT     H228404   1.884   6.174   3.714
 9388WAT      O28405   7.641   3.901   5.456
 9388WAT     H128406   7.551   3.907   5.500
 9388WAT     H228407   7.712   3.929   5.521
 9389WAT      O28408   7.856   6.507   1.216
 9389WAT     H128409   7.794   6.430   1.202
 9389WAT     H228410   7.813   6.591   1.183
 9390WAT      O28411   7.312   9.599   1.533
 9390WAT     H128412   7.398   9.550   1.541
 9390WAT     H228413   7.320   9.688   1.578
 9391WAT      O28414   1.687   6.031   5.926
 9391WAT     H128415   1.759   5.972   5.962
 9391WAT     H228416   1.719   6.075   5.842
 9392WAT      O28417   0.614   3.739   0.216
 9392WAT     H128418   0.632   3.698   0.126
 9392WAT     H228419   0.522   3.776   0.218
 9393WAT      O28420   9.538   5.905   0.281
 9393WAT     H128421   9.450   5.934   0.245
 9393WAT     H228422   9.600   5.983   0.287
 9394WAT      O28423   8.366   3.827   9.381
 9394WAT     H128424   8.450   3.805   9.332
 9394WAT     H228425   8.321   3.743   9.412
 9395WAT      O28426   8.437   1.977   4.487
 9395WAT     H128427   8.527   1.998   4.449
 9395WAT     H228428   8.371   2.046   4.456
 9396WAT      O28429   6.887   8.017   8.500
 9396WAT     H128430   6.805   8.021   8.443
 9396WAT     H228431   6.863   8.038   8.595
 9397WAT      O28432   6.151   8.111   8.375
 9397WAT     H128433   6.079   8.054   8.415
 9397WAT     H228434   6.120   8.206   8.370
 9398WAT      O28435   1.545   9.301   3.612
 9398WAT     H128436   1.490   9.305   3.529
 9398WAT     H228437   1.485   9.301   3.692
 9399WAT      O28438   8.887   0.802   8.436
 9399WAT     H128439   8.813   0.866   8.417
 9399WAT     H228440   8.872   0.760   8.526
 9400WAT      O28441   9.279   9.644   4.291
 9400WAT     H128442   9.268   9.573   4.222
 9400WAT     H228443   9.364   9.694   4.275
 9401WAT      O28444   5.894   0.779   5.338
 9401WAT     H128445   5.867   0.874   5.329
 9401WAT     H228446   5.817   0.720   5.315
 9402WAT      O28447   9.418   5.223   6.809
 9402WAT     H128448   9.354   5.214   6.886
 9402WAT     H228449   9.367   5.225   6.723
 9403WAT      O28450   1.226   1.206   2.974
 9403WAT     H128451   1.164   1.139   2.935
 9403WAT     H228452   1.314   1.163   2.993
 9404WAT      O28453   1.344   5.819   7.937
 9404WAT     H128454   1.331   5.795   8.033
 9404WAT     H228455   1.416   5.761   7.898
 9405WAT      O28456   1.747   8.362   3.183
 9405WAT     H128457   1.700   8.280   3.150
 9405WAT     H228458   1.778   8.416   3.105
 9406WAT      O28459   9.165   7.099   6.176
 9406WAT     H128460   9.152   7.198   6.182
 9406WAT     H228461   9.163   7.071   6.080
 9407WAT      O28462   5.347   7.454   9.271
 9407WAT     H128463   5.370   7.536   9.323
 9407WAT     H228464   5.350   7.374   9.331
 9408WAT      O28465   9.411   9.351   6.156
 9408WAT     H128466   9.316   9.379   6.143
 9408WAT     H228467   9.472   9.411   6.105
 9409WAT      O28468   9.325   8.241   3.427
 9409WAT     H128469   9.312   8.243   3.526
 9409WAT     H228470   9.236   8.249   3.381
 9410WAT      O28471   9.103   1.366   4.692
 9410WAT     H128472   9.171   1.430   4.730
 9410WAT     H228473   9.040   1.416   4.633
 9411WAT      O28474   9.258   7.211   3.278
 9411WAT     H128475   9.223   7.202   3.185
 9411WAT     H228476   9.240   7.303   3.312
 9412WAT      O28477   9.477   0.770   5.732
 9412WAT     H128478   9.543   0.697   5.748
 9412WAT     H228479   9.403   0.764   5.799
 9413WAT      O28480   8.312   3.385   3.534
 9413WAT     H128481   8.329   3.447   3.610
 9413WAT     H228482   8.269   3.301   3.567
 9414WAT      O28483   4.773   3.617   6.369
 9414WAT     H128484   4.703   3.561   6.413
 9414WAT     H228485   4.731   3.700   6.333
 9415WAT      O28486   7.279   3.796   8.905
 9415WAT     H128487   7.264   3.723   8.839
 9415WAT     H228488   7.330   3.760   8.983
 9416WAT      O28489   9.638   4.195   2.800
 9416WAT     H128490   9.600   4.119   2.852
 9416WAT     H228491   9.573   4.222   2.729
 9417WAT      O28492   3.435   1.173   3.054
 9417WAT     H128493   3.437   1.123   2.967
 9417WAT     H228494   3.518   1.153   3.106
 9418WAT      O28495   5.352   0.954   4.743
 9418WAT     H128496   5.293   0.874   4.742
 9418WAT     H228497   5.298   1.036   4.763
 9419WAT      O28498   4.211   1.560   2.711
 9419WAT     H128499   4.290   1.499   2.716
 9419WAT     H228500   4.225   1.627   2.638
 9420WAT      O28501   4.825   1.154   1.077
 9420WAT     H128502   4.843   1.225   1.145
 9420WAT     H228503   4.857   1.185   0.988
 9421WAT      O28504   2.976   0.892   6.671
 9421WAT     H128505   2.997   0.941   6.586
 9421WAT     H228506   3.016   0.800   6.666
 9422WAT      O28507   1.613   4.065   3.890
 9422WAT     H128508   1.596   4.021   3.978
 9422WAT     H228509   1.635   3.996   3.822
 9423WAT      O28510   8.692   5.839   1.347
 9423WAT     H128511   8.677   5.916   1.409
 9423WAT     H228512   8.782   5.847   1.304
 9424WAT      O28513   3.129   9.252   4.491
 9424WAT     H128514   3.144   9.244   4.393
 9424WAT     H228515   3.143   9.164   4.535
 9425WAT      O28516   4.862   1.888   5.639
 9425WAT     H128517   4.834   1.938   5.721
 9425WAT     H228518   4.957   1.908   5.618
 9426WAT      O28519   6.248   5.853   4.372
 9426WAT     H128520   6.285   5.922   4.309
 9426WAT     H228521   6.168   5.809   4.330
 9427WAT      O28522   8.144   6.894   1.084
 9427WAT     H128523   8.150   6.877   0.986
 9427WAT     H228524   8.081   6.970   1.101
 9428WAT      O28525   0.360   1.943   2.124
 9428WAT     H128526   0.282   1.881   2.131
 9428WAT     H228527   0.406   1.929   2.036
 9429WAT      O28528   5.776   6.428   4.348
 9429WAT     H128529   5.711   6.388   4.412
 9429WAT     H228530   5.739   6.513   4.310
 9430WAT      O28531   0.945   3.912   3.571
 9430WAT     H128532   0.946   3.918   3.472
 9430WAT     H228533   1.038   3.897   3.605
 9431WAT      O28534   1.791   4.889   2.859
 9431WAT     H128535   1.803   4.791   2.871
 9431WAT     H228536   1.807   4.936   2.946
 9432WAT      O28537   2.574   1.881   0.283
 9432WAT     H128538   2.630   1.944   0.230
 9432WAT     H228539   2.539   1.808   0.224
 9433WAT      O28540   3.306   2.022   6.900
 9433WAT     H128541   3.265   1.969   6.974
 9433WAT     H228542   3.406   2.022   6.910
 9434WAT      O28543   3.774   7.575   6.580
 9434WAT     H128544   3.745   7.485   6.547
 9434WAT     H228545   3.829   7.564   6.663
 9435WAT      O28546   8.108   5.337   5.688
 9435WAT     H128547   8.122   5.431   5.720
 9435WAT     H228548   8.077   5.339   5.593
 9436WAT      O28549   9.126   9.465   6.044
 9436WAT     H128550   9.067   9.422   5.976
 9436WAT     H228551   9.187   9.530   5.998
 9437WAT      O28552   0.100   6.209   8.699
 9437WAT     H128553   0.005   6.213   8.667
 9437WAT     H228554   0.105   6.147   8.778
 9438WAT      O28555   5.147   3.120   3.557
 9438WAT     H128556   5.227   3.129   3.497
 9438WAT     H228557   5.142   3.026   3.592
 9439WAT      O28558   6.228   1.360   4.356
 9439WAT     H128559   6.323   1.384   4.338
 9439WAT     H228560   6.201   1.396   4.446
 9440WAT      O28561   2.608   6.390   2.725
 9440WAT     H128562   2.613   6.303   2.774
 9440WAT     H228563   2.634   6.376   2.630
 9441WAT      O28564   2.307   4.143   0.670
 9441WAT     H128565   2.387   4.111   0.721
 9441WAT     H228566   2.228   4.087   0.694
 9442WAT      O28567   4.419   0.121   6.673
 9442WAT     H128568   4.339   0.161   6.628
 9442WAT     H228569   4.443   0.035   6.628
 9443WAT      O28570   8.821   3.624   6.567
 9443WAT     H128571   8.772   3.695   6.618
 9443WAT     H228572   8.781   3.614   6.476
 9444WAT      O28573   8.915   2.909   9.865
 9444WAT     H128574   8.830   2.857   9.869
 9444WAT     H228575   8.920   2.971   9.943
 9445WAT      O28576   2.283   3.308   2.877
 9445WAT     H128577   2.276   3.355   2.789
 9445WAT     H228578   2.217   3.347   2.941
 9446WAT      O28579   0.523   1.364   0.528
 9446WAT     H128580   0.444   1.416   0.498
 9446WAT     H228581   0.542   1.382   0.624
 9447WAT      O28582   5.681   9.754   9.302
 9447WAT     H128583   5.759   9.740   9.362
 9447WAT     H228584   5.607   9.691   9.327
 9448WAT      O28585   8.260   3.147   4.329
 9448WAT     H128586   8.226   3.232   4.369
 9448WAT     H228587   8.309   3.168   4.244
 9449WAT      O28588   2.490   8.671   8.864
 9449WAT     H128589   2.447   8.594   8.817
 9449WAT     H228590   2.460   8.674   8.959
 9450WAT      O28591   9.716   8.523   0.586
 9450WAT     H128592   9.657   8.466   0.530
 9450WAT     H228593   9.812   8.499   0.569
 9451WAT      O28594   3.464   1.889   5.419
 9451WAT     H128595   3.415   1.916   5.502
 9451WAT     H228596   3.421   1.809   5.379
 9452WAT      O28597   2.325   6.486   4.513
 9452WAT     H128598   2.227   6.467   4.506
 9452WAT     H228599   2.361   6.513   4.424
 9453WAT      O28600   7.326   0.191   1.385
 9453WAT     H128601   7.375   0.147   1.460
 9453WAT     H228602   7.391   0.240   1.327
 9454WAT      O28603   7.869   2.768   7.787
 9454WAT     H128604   7.854   2.678   7.746
 9454WAT     H228605   7.861   2.838   7.716
 9455WAT      O28606   2.614   4.090   2.947
 9455WAT     H128607   2.565   4.121   2.865
 9455WAT     H228608   2.653   3.999   2.930
 9456WAT      O28609   1.005   7.886   4.516
 9456WAT     H128610   1.079   7.829   4.550
 9456WAT     H228611   0.917   7.840   4.531
 9457WAT      O28612   7.132   4.734   3.763
 9457WAT     H128613   7.150   4.702   3.856
 9457WAT     H228614   7.161   4.829   3.754
 9458WAT      O28615   4.094   9.839   4.008
 9458WAT     H128616   4.053   9.810   3.922
 9458WAT     H228617   4.022   9.859   4.075
 9459WAT      O28618   0.207   4.222   3.833
 9459WAT     H128619   0.134   4.260   3.777
 9459WAT     H228620   0.259   4.155   3.779
 9460WAT      O28621   3.941   5.951   8.975
 9460WAT     H128622   3.890   6.010   8.912
 9460WAT     H228623   4.014   6.003   9.019
 9461WAT      O28624   1.765   5.186   7.438
 9461WAT     H128625   1.796   5.094   7.414
 9461WAT     H228626   1.680   5.180   7.491
 9462WAT      O28627   0.137   1.650   4.389
 9462WAT     H128628   0.177   1.716   4.453
 9462WAT     H228629   0.199   1.637   4.311
 9463WAT      O28630   9.593   3.638   4.292
 9463WAT     H128631   9.528   3.593   4.230
 9463WAT     H228632   9.667   3.575   4.315
 9464WAT      O28633   0.990   7.034   7.361
 9464WAT     H128634   0.933   6.980   7.300
 9464WAT     H228635   1.042   7.101   7.308
 9465WAT      O28636   6.115   5.473   1.049
 9465WAT     H128637   6.035   5.449   0.994
 9465WAT     H228638   6.086   5.510   1.137
 9466WAT      O28639   7.344   5.402   8.423
 9466WAT     H128640   7.401   5.436   8.497
 9466WAT     H228641   7.304   5.479   8.373
 9467WAT      O28642   3.860   5.552   8.397
 9467WAT     H128643   3.806   5.555   8.312
 9467WAT     H228644   3.817   5.612   8.465
 9468WAT      O28645   6.389   7.975   9.308
 9468WAT     H128646   6.412   7.881   9.333
 9468WAT     H228647   6.329   7.974   9.228
 9469WAT      O28648   0.295   1.207   6.849
 9469WAT     H128649   0.200   1.193   6.876
 9469WAT     H228650   0.328   1.126   6.799
 9470WAT      O28651   7.781   9.158   5.794
 9470WAT     H128652   7.700   9.217   5.794
 9470WAT     H228653   7.754   9.064   5.773
 9471WAT      O28654   5.868   3.513   1.036
 9471WAT     H128655   5.856   3.432   1.093
 9471WAT     H228656   5.946   3.499   0.974
 9472WAT      O28657   4.822   3.805   0.770
 9472WAT     H128658   4.885   3.878   0.741
 9472WAT     H228659   4.729   3.828   0.743
 9473WAT      O28660   1.919   9.433   8.932
 9473WAT     H128661   1.987   9.472   8.870
 9473WAT     H228662   1.900   9.499   9.006
 9474WAT      O28663   1.840   8.543   7.439
 9474WAT     H128664   1.912   8.551   7.370
 9474WAT     H228665   1.782   8.465   7.417
 9475WAT      O28666   3.577   0.088   2.235
 9475WAT     H128667   3.628   0.112   2.153
 9475WAT     H228668   3.618   0.008   2.279
 9476WAT      O28669   8.860   7.812   1.077
 9476WAT     H128670   8.769   7.808   1.117
 9476WAT     H228671   8.853   7.833   0.980
 9477WAT      O28672   3.776   2.800   8.208
 9477WAT     H128673   3.732   2.821   8.295
 9477WAT     H228674   3.767   2.703   8.187
 9478WAT      O28675   8.238   4.420   8.268
 9478WAT     H128676   8.242   4.431   8.367
 9478WAT     H228677   8.150   4.454   8.234
 9479WAT      O28678   0.346   5.310   6.248
 9479WAT     H128679   0.430   5.365   6.244
 9479WAT     H228680   0.367   5.216   6.220
 9480WAT      O28681   4.567   7.007   1.497
 9480WAT     H128682   4.641   6.947   1.528
 9480WAT     H228683   4.601   7.066   1.424
 9481WAT      O28684   0.863   2.629   2.717
 9481WAT     H128685   0.961   2.629   2.696
 9481WAT     H228686   0.832   2.722   2.733
 9482WAT      O28687   5.161   2.285   6.194
 9482WAT     H128688   5.220   2.299   6.115
 9482WAT     H228689   5.208   2.231   6.263
 9483WAT      O28690   9.043   3.870   1.579
 9483WAT     H128691   9.061   3.814   1.499
 9483WAT     H228692   9.098   3.837   1.656
 9484WAT      O28693   0.022   6.937   8.919
 9484WAT     H128694  -0.028   6.967   9.000
 9484WAT     H228695   0.028   6.837   8.918
 9485WAT      O28696   9.769   2.020   2.140
 9485WAT     H128697   9.735   1.999   2.232
 9485WAT     H228698   9.696   2.007   2.074
 9486WAT      O28699   1.449   4.274   2.571
 9486WAT     H128700   1.486   4.357   2.529
 9486WAT     H228701   1.355   4.291   2.602
 9487WAT      O28702   1.597   2.615   0.228
 9487WAT     H128703   1.662   2.655   0.292
 9487WAT     H228704   1.535   2.554   0.277
 9488WAT      O28705   4.481   1.286   0.923
 9488WAT     H128706   4.460   1.229   0.844
 9488WAT     H228707   4.506   1.229   1.001
 9489WAT      O28708   9.600   9.239   9.706
 9489WAT     H128709   9.619   9.243   9.804
 9489WAT     H228710   9.533   9.167   9.687
 9490WAT      O28711   9.077   6.674   3.351
 9490WAT     H128712   9.111   6.658   3.258
 9490WAT     H228713   9.153   6.665   3.416
 9491WAT      O28714   9.686   0.668   7.294
 9491WAT     H128715   9.736   0.755   7.288
 9491WAT     H228716   9.638   0.652   7.207
 9492WAT      O28717   1.951   8.811   8.985
 9492WAT     H128718   1.863   8.854   9.004
 9492WAT     H228719   1.968   8.810   8.887
 9493WAT      O28720   0.963   5.487   6.784
 9493WAT     H128721   0.900   5.457   6.711
 9493WAT     H228722   0.978   5.585   6.777
 9494WAT      O28723   6.651   4.817   9.338
 9494WAT     H128724   6.659   4.722   9.309
 9494WAT     H228725   6.633   4.875   9.258
 9495WAT      O28726   6.006   4.510   8.707
 9495WAT     H128727   5.943   4.563   8.763
 9495WAT     H228728   5.962   4.425   8.679
 9496WAT      O28729   9.099   5.015   3.773
 9496WAT     H128730   9.021   4.952   3.777
 9496WAT     H228731   9.179   4.967   3.740
 9497WAT      O28732   0.794   7.567   2.951
 9497WAT     H128733   0.806   7.471   2.976
 9497WAT     H228734   0.809   7.579   2.853
 9498WAT      O28735   7.683   1.333   1.257
 9498WAT     H128736   7.741   1.296   1.329
 9498WAT     H228737   7.653   1.425   1.282
 9499WAT      O28738   1.770   8.005   1.714
 9499WAT     H128739   1.745   8.090   1.668
 9499WAT     H228740   1.847   8.022   1.775
 9500WAT      O28741   8.150   2.038   6.282
 9500WAT     H128742   8.134   1.970   6.210
 9500WAT     H228743   8.088   2.022   6.358
 9501WAT      O28744   2.288   9.674   1.970
 9501WAT     H128745   2.297   9.641   2.064
 9501WAT     H228746   2.192   9.681   1.946
 9502WAT      O28747   7.033   4.029   2.049
 9502WAT     H128748   7.115   4.044   1.995
 9502WAT     H228749   7.056   4.032   2.146
 9503WAT      O28750   4.764   1.928   4.565
 9503WAT     H128751   4.802   1.837   4.581
 9503WAT     H228752   4.665   1.921   4.554
 9504WAT      O28753   4.265   4.971   8.342
 9504WAT     H128754   4.226   5.062   8.356
 9504WAT     H228755   4.193   4.908   8.314
 9505WAT      O28756   2.934   3.165   0.084
 9505WAT     H128757   2.872   3.153   0.161
 9505WAT     H228758   2.881   3.165  -0.001
 9506WAT      O28759   5.761   5.260   9.325
 9506WAT     H128760   5.852   5.258   9.366
 9506WAT     H228761   5.694   5.287   9.394
 9507WAT      O28762   6.724   3.334   5.230
 9507WAT     H128763   6.746   3.378   5.317
 9507WAT     H228764   6.625   3.337   5.215
 9508WAT      O28765   8.473   7.831   9.814
 9508WAT     H128766   8.554   7.778   9.837
 9508WAT     H228767   8.395   7.799   9.867
 9509WAT      O28768   0.245   7.749   7.525
 9509WAT     H128769   0.173   7.697   7.479
 9509WAT     H228770   0.332   7.733   7.479
 9510WAT      O28771   1.819   9.826   5.182
 9510WAT     H128772   1.835   9.745   5.125
 9510WAT     H228773   1.882   9.825   5.259
 9511WAT      O28774   2.314   0.133   0.801
 9511WAT     H128775   2.277   0.041   0.789
 9511WAT     H228776   2.375   0.155   0.725
 9512WAT      O28777   5.697   5.590   8.458
 9512WAT     H128778   5.741   5.500   8.461
 9512WAT     H228779   5.683   5.617   8.363
 9513WAT      O28780   4.660   9.494   0.570
 9513WAT     H128781   4.744   9.535   0.607
 9513WAT     H228782   4.581   9.543   0.606
 9514WAT      O28783   5.706   2.048   8.164
 9514WAT     H128784   5.625   2.065   8.221
 9514WAT     H228785   5.692   1.966   8.109
 9515WAT      O28786   6.439   4.204   5.807
 9515WAT     H128787   6.458   4.106   5.799
 9515WAT     H228788   6.345   4.222   5.780
 9516WAT      O28789   5.474   2.526   1.936
 9516WAT     H128790   5.380   2.541   1.903
 9516WAT     H228791   5.472   2.457   2.009
 9517WAT      O28792   1.423   4.943   5.097
 9517WAT     H128793   1.404   4.902   5.008
 9517WAT     H228794   1.414   5.043   5.090
 9518WAT      O28795   0.316   3.012   1.009
 9518WAT     H128796   0.284   3.003   1.103
 9518WAT     H228797   0.271   2.944   0.951
 9519WAT      O28798   7.837   1.355   1.837
 9519WAT     H128799   7.911   1.344   1.903
 9519WAT     H228800   7.859   1.428   1.773
 9520WAT      O28801   0.655   0.890   1.780
 9520WAT     H128802   0.686   0.873   1.686
 9520WAT     H228803   0.572   0.947   1.778
 9521WAT      O28804   6.529   0.953   7.997
 9521WAT     H128805   6.536   0.971   7.898
 9521WAT     H228806   6.441   0.987   8.030
 9522WAT      O28807   5.864   7.160   8.943
 9522WAT     H128808   5.961   7.179   8.925
 9522WAT     H228809   5.809   7.186   8.864
 9523WAT      O28810   3.745   6.893   8.389
 9523WAT     H128811   3.731   6.919   8.293
 9523WAT     H228812   3.760   6.975   8.444
 9524WAT      O28813   7.174   0.126   3.179
 9524WAT     H128814   7.243   0.054   3.182
 9524WAT     H228815   7.092   0.092   3.131
 9525WAT      O28816   6.570   5.227   1.245
 9525WAT     H128817   6.481   5.266   1.221
 9525WAT     H228818   6.559   5.166   1.324
 9526WAT      O28819   0.232   3.197   4.934
 9526WAT     H128820   0.276   3.253   4.864
 9526WAT     H228821   0.282   3.207   5.020
 9527WAT      O28822   2.135   1.478   9.658
 9527WAT     H128823   2.146   1.462   9.560
 9527WAT     H228824   2.225   1.487   9.701
 9528WAT      O28825   0.703   9.684   5.260
 9528WAT     H128826   0.653   9.681   5.347
 9528WAT     H228827   0.679   9.604   5.206
 9529WAT      O28828   5.954   1.913   9.490
 9529WAT     H128829   5.872   1.856   9.483
 9529WAT     H228830   5.992   1.927   9.399
 9530WAT      O28831   9.335   4.246   8.507
 9530WAT     H128832   9.255   4.199   8.544
 9530WAT     H228833   9.346   4.222   8.411
 9531WAT      O28834   3.503   9.586   0.856
 9531WAT     H128835   3.478   9.649   0.929
 9531WAT     H228836   3.597   9.554   0.871
 9532WAT      O28837   3.450   5.609   2.343
 9532WAT     H128838   3.458   5.519   2.300
 9532WAT     H228839   3.356   5.642   2.336
 9533WAT      O28840   6.409   4.573   8.324
 9533WAT     H128841   6.477   4.546   8.255
 9533WAT     H228842   6.320   4.535   8.300
 9534WAT      O28843   1.606   8.950   8.255
 9534WAT     H128844   1.552   9.022   8.299
 9534WAT     H228845   1.702   8.958   8.284
 9535WAT      O28846   9.492   0.614   4.996
 9535WAT     H128847   9.588   0.634   4.977
 9535WAT     H228848   9.466   0.529   4.951
 9536WAT      O28849   3.123   4.195   7.319
 9536WAT     H128850   3.147   4.099   7.336
 9536WAT     H228851   3.142   4.249   7.400
 9537WAT      O28852   1.907   0.430   9.239
 9537WAT     H128853   1.979   0.391   9.181
 9537WAT     H228854   1.928   0.410   9.335
 9538WAT      O28855   2.869   0.725   8.055
 9538WAT     H128856   2.866   0.638   8.006
 9538WAT     H228857   2.840   0.711   8.150
 9539WAT      O28858   5.202   2.577   2.200
 9539WAT     H128859   5.116   2.558   2.249
 9539WAT     H228860   5.185   2.645   2.129
 9540WAT      O28861   7.739   9.508   1.939
 9540WAT     H128862   7.777   9.600   1.953
 9540WAT     H228863   7.691   9.479   2.022
 9541WAT      O28864   1.264   2.662   0.190
 9541WAT     H128865   1.304   2.604   0.260
 9541WAT     H228866   1.281   2.624   0.099
 9542WAT      O28867   2.774   0.698   5.717
 9542WAT     H128868   2.748   0.627   5.782
 9542WAT     H228869   2.843   0.663   5.653
 9543WAT      O28870   3.891   7.095   5.434
 9543WAT     H128871   3.831   7.017   5.454
 9543WAT     H228872   3.847   7.152   5.364
 9544WAT      O28873   7.374   8.428   5.369
 9544WAT     H128874   7.340   8.426   5.463
 9544WAT     H228875   7.451   8.366   5.360
 9545WAT      O28876   3.490   4.385   4.669
 9545WAT     H128877   3.573   4.431   4.634
 9545WAT     H228878   3.415   4.399   4.604
 9546WAT      O28879   8.508   6.981   1.718
 9546WAT     H128880   8.466   7.042   1.785
 9546WAT     H228881   8.590   7.025   1.680
 9547WAT      O28882   2.072   6.849   3.241
 9547WAT     H128883   2.038   6.795   3.318
 9547WAT     H228884   2.104   6.788   3.169
 9548WAT      O28885   2.537   4.960   7.240
 9548WAT     H128886   2.620   4.950   7.186
 9548WAT     H228887   2.549   4.917   7.330
 9549WAT      O28888   3.908   1.686   8.304
 9549WAT     H128889   3.990   1.662   8.356
 9549WAT     H228890   3.883   1.781   8.324
 9550WAT      O28891   6.693   2.006   2.696
 9550WAT     H128892   6.659   1.918   2.664
 9550WAT     H228893   6.793   2.004   2.701
 9551WAT      O28894   5.171   6.297   9.740
 9551WAT     H128895   5.139   6.327   9.830
 9551WAT     H228896   5.096   6.307   9.674
 9552WAT      O28897   9.152   8.707   8.350
 9552WAT     H128898   9.132   8.798   8.387
 9552WAT     H228899   9.107   8.697   8.261
 9553WAT      O28900   0.047   4.131   1.375
 9553WAT     H128901   0.131   4.110   1.424
 9553WAT     H228902  -0.020   4.058   1.391
 9554WAT      O28903   3.248   9.646   5.094
 9554WAT     H128904   3.266   9.583   5.169
 9554WAT     H228905   3.212   9.732   5.130
 9555WAT      O28906   7.002   1.099   7.063
 9555WAT     H128907   7.005   1.071   7.159
 9555WAT     H228908   7.032   1.023   7.005
 9556WAT      O28909   2.060   8.885   4.785
 9556WAT     H128910   2.084   8.981   4.800
 9556WAT     H228911   2.092   8.857   4.694
 9557WAT      O28912   3.427   8.845   7.212
 9557WAT     H128913   3.364   8.922   7.208
 9557WAT     H228914   3.470   8.832   7.123
 9558WAT      O28915   5.561   1.274   0.684
 9558WAT     H128916   5.489   1.217   0.720
 9558WAT     H228917   5.588   1.241   0.593
 9559WAT      O28918   6.220   6.268   8.158
 9559WAT     H128919   6.236   6.260   8.257
 9559WAT     H228920   6.306   6.252   8.109
 9560WAT      O28921   4.259   8.125   8.742
 9560WAT     H128922   4.168   8.135   8.781
 9560WAT     H228923   4.294   8.215   8.714
 9561WAT      O28924   7.138   4.085   2.803
 9561WAT     H128925   7.235   4.107   2.800
 9561WAT     H228926   7.104   4.094   2.897
 9562WAT      O28927   6.398   5.618   1.557
 9562WAT     H128928   6.299   5.621   1.542
 9562WAT     H228929   6.417   5.604   1.655
 9563WAT      O28930   1.935   2.111   7.602
 9563WAT     H128931   1.927   2.169   7.522
 9563WAT     H228932   2.017   2.054   7.595
 9564WAT      O28933   2.285   2.317   0.040
 9564WAT     H128934   2.185   2.310   0.041
 9564WAT     H228935   2.323   2.230   0.010
 9565WAT      O28936   3.101   4.912   6.691
 9565WAT     H128937   3.157   4.985   6.731
 9565WAT     H228938   3.129   4.824   6.729
 9566WAT      O28939   3.966   0.977   9.399
 9566WAT     H128940   3.988   0.972   9.301
 9566WAT     H228941   4.027   1.042   9.443
 9567WAT      O28942   5.511   3.731   3.980
 9567WAT     H128943   5.548   3.726   3.888
 9567WAT     H228944   5.456   3.814   3.989
 9568WAT      O28945   8.615   7.140   9.312
 9568WAT     H128946   8.540   7.206   9.309
 9568WAT     H228947   8.702   7.188   9.312
 9569WAT      O28948   1.083   8.579   7.730
 9569WAT     H128949   1.172   8.539   7.707
 9569WAT     H228950   1.056   8.551   7.822
 9570WAT      O28951   2.564   7.609   2.720
 9570WAT     H128952   2.524   7.529   2.676
 9570WAT     H228953   2.585   7.587   2.815
 9571WAT      O28954   3.213   5.117   6.882
 9571WAT     H128955   3.159   5.079   6.957
 9571WAT     H228956   3.309   5.096   6.896
 9572WAT      O28957   7.143   5.306   7.915
 9572WAT     H128958   7.187   5.396   7.910
 9572WAT     H228959   7.190   5.250   7.984
 9573WAT      O28960   6.837   0.273   4.102
 9573WAT     H128961   6.745   0.280   4.139
 9573WAT     H228962   6.849   0.184   4.057
 9574WAT      O28963   0.165   6.584   4.135
 9574WAT     H128964   0.234   6.654   4.116
 9574WAT     H228965   0.083   6.603   4.081
 9575WAT      O28966   9.172   4.907   8.372
 9575WAT     H128967   9.145   4.994   8.330
 9575WAT     H228968   9.161   4.912   8.471
 9576WAT      O28969   8.819   9.810   3.342
 9576WAT     H128970   8.867   9.859   3.269
 9576WAT     H228971   8.818   9.712   3.321
 9577WAT      O28972   3.680   1.708   5.364
 9577WAT     H128973   3.630   1.795   5.360
 9577WAT     H228974   3.618   1.636   5.397
 9578WAT      O28975   0.320   9.694   4.706
 9578WAT     H128976   0.368   9.622   4.756
 9578WAT     H228977   0.380   9.731   4.635
 9579WAT      O28978   6.413   3.764   5.443
 9579WAT     H128979   6.383   3.807   5.357
 9579WAT     H228980   6.359   3.801   5.519
 9580WAT      O28981   6.052   4.625   5.108
 9580WAT     H128982   6.049   4.610   5.009
 9580WAT     H228983   6.091   4.544   5.153
 9581WAT      O28984   4.731   6.044   3.127
 9581WAT     H128985   4.741   6.073   3.222
 9581WAT     H228986   4.820   6.013   3.093
 9582WAT      O28987   5.136   3.073   3.885
 9582WAT     H128988   5.106   2.986   3.924
 9582WAT     H228989   5.062   3.112   3.830
 9583WAT      O28990   1.953   7.176   2.681
 9583WAT     H128991   1.865   7.194   2.636
 9583WAT     H228992   1.956   7.080   2.709
 9584WAT      O28993   4.446   8.482   5.819
 9584WAT     H128994   4.429   8.561   5.760
 9584WAT     H228995   4.519   8.426   5.780
 9585WAT      O28996   5.030   2.032   1.610
 9585WAT     H128997   4.996   2.074   1.525
 9585WAT     H228998   4.964   1.964   1.642
 9586WAT      O28999   1.074   2.101   1.723
 9586WAT     H129000   1.072   2.196   1.753
 9586WAT     H229001   1.049   2.097   1.626
 9587WAT      O29002   1.289   2.561   4.302
 9587WAT     H129003   1.348   2.555   4.382
 9587WAT     H229004   1.284   2.656   4.271
 9588WAT      O29005   9.233   0.537   9.059
 9588WAT     H129006   9.280   0.587   8.986
 9588WAT     H229007   9.236   0.589   9.143
 9589WAT      O29008   8.626   2.711   8.030
 9589WAT     H129009   8.587   2.620   8.015
 9589WAT     H229010   8.691   2.732   7.957
 9590WAT      O29011   6.755   6.549   6.815
 9590WAT     H129012   6.744   6.484   6.890
 9590WAT     H229013   6.665   6.586   6.790
 9591WAT      O29014   8.956   9.746   0.488
 9591WAT     H129015   8.875   9.764   0.544
 9591WAT     H229016   8.999   9.661   0.519
 9592WAT      O29017   0.089   5.367   2.749
 9592WAT     H129018   0.065   5.274   2.721
 9592WAT     H229019   0.107   5.369   2.847
 9593WAT      O29020   3.761   2.437   0.259
 9593WAT     H129021   3.745   2.345   0.223
 9593WAT     H229022   3.859   2.451   0.273
 9594WAT      O29023   2.584   8.744   6.269
 9594WAT     H129024   2.518   8.804   6.314
 9594WAT     H229025   2.672   8.749   6.315
 9595WAT      O29026   1.034   8.089   0.039
 9595WAT     H129027   1.006   8.093   0.135
 9595WAT     H229028   1.001   8.004  -0.002
 9596WAT      O29029   1.317   8.478   1.950
 9596WAT     H129030   1.317   8.498   1.851
 9596WAT     H229031   1.377   8.543   1.996
 9597WAT      O29032   0.423   9.008   8.243
 9597WAT     H129033   0.447   9.098   8.208
 9597WAT     H229034   0.383   8.953   8.169
 9598WAT      O29035   8.484   1.808   7.314
 9598WAT     H129036   8.440   1.887   7.356
 9598WAT     H229037   8.428   1.726   7.327
 9599WAT      O29038   3.269   8.796   5.044
 9599WAT     H129039   3.358   8.792   5.089
 9599WAT     H229040   3.276   8.753   4.953
 9600WAT      O29041   8.887   1.039   4.166
 9600WAT     H129042   8.905   0.973   4.093
 9600WAT     H229043   8.972   1.061   4.213
 9601WAT      O29044   4.042   8.413   5.603
 9601WAT     H129045   3.973   8.469   5.558
 9601WAT     H229046   4.038   8.320   5.566
 9602WAT      O29047   8.005   4.237   8.463
 9602WAT     H129048   8.016   4.183   8.379
 9602WAT     H229049   7.908   4.236   8.490
 9603WAT      O29050   5.323   2.639   8.953
 9603WAT     H129051   5.372   2.555   8.973
 9603WAT     H229052   5.388   2.711   8.931
 9604WAT      O29053   9.570   2.109   2.788
 9604WAT     H129054   9.505   2.140   2.857
 9604WAT     H229055   9.548   2.015   2.762
 9605WAT      O29056   5.213   0.016   7.247
 9605WAT     H129057   5.142  -0.010   7.312
 9605WAT     H229058   5.211   0.115   7.234
 9606WAT      O29059   7.076   0.582   9.128
 9606WAT     H129060   6.990   0.628   9.148
 9606WAT     H229061   7.065   0.525   9.046
 9607WAT      O29062   9.570   7.599   4.584
 9607WAT     H129063   9.587   7.502   4.571
 9607WAT     H229064   9.541   7.616   4.678
 9608WAT      O29065   2.889   3.217   3.561
 9608WAT     H129066   2.864   3.195   3.467
 9608WAT     H229067   2.942   3.301   3.564
 9609WAT      O29068   4.292   5.342   6.772
 9609WAT     H129069   4.236   5.364   6.692
 9609WAT     H229070   4.280   5.413   6.842
 9610WAT      O29071   2.017   8.088   2.666
 9610WAT     H129072   1.932   8.060   2.712
 9610WAT     H229073   1.995   8.130   2.578
 9611WAT      O29074   3.767   9.426   2.793
 9611WAT     H129075   3.752   9.525   2.789
 9611WAT     H229076   3.783   9.399   2.888
 9612WAT      O29077   9.601   0.059   8.850
 9612WAT     H129078   9.701   0.059   8.853
 9612WAT     H229079   9.571   0.100   8.763
 9613WAT      O29080   5.379   0.715   3.402
 9613WAT     H129081   5.370   0.710   3.502
 9613WAT     H229082   5.381   0.811   3.373
 9614WAT      O29083   9.805   8.790   2.119
 9614WAT     H129084   9.851   8.849   2.185
 9614WAT     H229085   9.791   8.839   2.033
 9615WAT      O29086   6.060   0.228   4.807
 9615WAT     H129087   6.119   0.198   4.882
 9615WAT     H229088   5.966   0.198   4.825
 9616WAT      O29089   4.249   1.132   9.123
 9616WAT     H129090   4.157   1.096   9.130
 9616WAT     H229091   4.282   1.120   9.029
 9617WAT      O29092   7.520   4.322   7.217
 9617WAT     H129093   7.450   4.255   7.243
 9617WAT     H229094   7.588   4.278   7.159
 9618WAT      O29095   8.016   3.397   2.085
 9618WAT     H129096   7.932   3.440   2.118
 9618WAT     H229097   8.054   3.450   2.009
 9619WAT      O29098   0.518   6.962   9.197
 9619WAT     H129099   0.607   6.980   9.156
 9619WAT     H229100   0.505   6.863   9.207
 9620WAT      O29101   5.707   3.299   3.294
 9620WAT     H129102   5.698   3.263   3.201
 9620WAT     H229103   5.617   3.328   3.327
 9621WAT      O29104   3.897   9.097   8.850
 9621WAT     H129105   3.978   9.050   8.885
 9621WAT     H229106   3.844   9.034   8.793
 9622WAT      O29107   4.712   5.561   6.409
 9622WAT     H129108   4.692   5.601   6.499
 9622WAT     H229109   4.752   5.631   6.350
 9623WAT      O29110   9.530   7.417   7.256
 9623WAT     H129111   9.434   7.433   7.231
 9623WAT     H229112   9.581   7.385   7.176
 9624WAT      O29113   3.847   6.381   5.662
 9624WAT     H129114   3.778   6.336   5.605
 9624WAT     H229115   3.937   6.365   5.623
 9625WAT      O29116   1.237   1.304   6.290
 9625WAT     H129117   1.285   1.224   6.255
 9625WAT     H229118   1.139   1.283   6.298
 9626WAT      O29119   7.452   7.284   4.253
 9626WAT     H129120   7.417   7.236   4.173
 9626WAT     H229121   7.444   7.382   4.239
 9627WAT      O29122   4.113   3.507   8.728
 9627WAT     H129123   4.065   3.448   8.663
 9627WAT     H229124   4.047   3.552   8.788
 9628WAT      O29125   3.338   4.618   7.564
 9628WAT     H129126   3.253   4.633   7.614
 9628WAT     H229127   3.412   4.599   7.628
 9629WAT      O29128   4.110   7.776   6.020
 9629WAT     H129129   4.178   7.750   5.952
 9629WAT     H229130   4.151   7.836   6.088
 9630WAT      O29131   5.755   8.682   8.554
 9630WAT     H129132   5.690   8.614   8.589
 9630WAT     H229133   5.779   8.660   8.460
 9631WAT      O29134   5.371   6.198   9.589
 9631WAT     H129135   5.301   6.233   9.651
 9631WAT     H229136   5.418   6.120   9.632
 9632WAT      O29137   5.019   5.959   1.991
 9632WAT     H129138   5.053   5.865   1.982
 9632WAT     H229139   5.095   6.020   2.011
 9633WAT      O29140   9.725   8.439   3.432
 9633WAT     H129141   9.633   8.470   3.409
 9633WAT     H229142   9.721   8.343   3.461
 9634WAT      O29143   0.629   8.576   1.580
 9634WAT     H129144   0.666   8.668   1.597
 9634WAT     H229145   0.689   8.508   1.623
 9635WAT      O29146   0.083   2.193   9.272
 9635WAT     H129147   0.098   2.108   9.221
 9635WAT     H229148   0.171   2.229   9.302
 9636WAT      O29149   1.924   9.044   8.545
 9636WAT     H129150   1.890   9.032   8.452
 9636WAT     H229151   1.915   9.140   8.571
 9637WAT      O29152   6.556   8.844   6.746
 9637WAT     H129153   6.608   8.886   6.821
 9637WAT     H229154   6.530   8.914   6.680
 9638WAT      O29155   7.968   8.635   2.419
 9638WAT     H129156   7.884   8.606   2.465
 9638WAT     H229157   8.024   8.554   2.399
 9639WAT      O29158   2.889   0.192   6.552
 9639WAT     H129159   2.920   0.109   6.506
 9639WAT     H229160   2.789   0.193   6.557
 9640WAT      O29161   5.550   7.540   2.396
 9640WAT     H129162   5.605   7.470   2.351
 9640WAT     H229163   5.561   7.626   2.347
 9641WAT      O29164   3.036   6.033   6.894
 9641WAT     H129165   3.032   6.084   6.808
 9641WAT     H229166   2.956   6.057   6.951
 9642WAT      O29167   3.101   9.788   1.517
 9642WAT     H129168   3.187   9.807   1.564
 9642WAT     H229169   3.038   9.744   1.580
 9643WAT      O29170   9.795   1.954   3.983
 9643WAT     H129171   9.700   1.984   3.972
 9643WAT     H229172   9.848   1.983   3.903
 9644WAT      O29173   9.767   8.793   2.683
 9644WAT     H129174   9.781   8.885   2.719
 9644WAT     H229175   9.793   8.726   2.752
 9645WAT      O29176   2.341   9.402   2.612
 9645WAT     H129177   2.279   9.344   2.560
 9645WAT     H229178   2.317   9.498   2.599
 9646WAT      O29179   7.698   1.445   5.557
 9646WAT     H129180   7.636   1.451   5.635
 9646WAT     H229181   7.749   1.531   5.548
 9647WAT      O29182   9.537   0.657   0.438
 9647WAT     H129183   9.606   0.726   0.462
 9647WAT     H229184   9.528   0.653   0.339
 9648WAT      O29185   5.944   5.938   0.105
 9648WAT     H129186   5.975   6.024   0.147
 9648WAT     H229187   5.862   5.906   0.153
 9649WAT      O29188   8.457   5.453   9.209
 9649WAT     H129189   8.514   5.518   9.259
 9649WAT     H229190   8.385   5.503   9.159
 9650WAT      O29191   8.777   4.999   2.372
 9650WAT     H129192   8.693   5.040   2.406
 9650WAT     H229193   8.837   5.071   2.335
 9651WAT      O29194   9.878   8.667   2.476
 9651WAT     H129195   9.968   8.656   2.519
 9651WAT     H229196   9.811   8.695   2.545
 9652WAT      O29197   5.191   7.653   5.302
 9652WAT     H129198   5.240   7.684   5.383
 9652WAT     H229199   5.195   7.553   5.297
 9653WAT      O29200   6.260   0.937   6.861
 9653WAT     H129201   6.346   0.946   6.911
 9653WAT     H229202   6.218   0.848   6.883
 9654WAT      O29203   6.527   9.357   8.575
 9654WAT     H129204   6.446   9.410   8.551
 9654WAT     H229205   6.522   9.267   8.533
 9655WAT      O29206   6.927   3.619   8.053
 9655WAT     H129207   7.012   3.570   8.034
 9655WAT     H229208   6.851   3.554   8.056
 9656WAT      O29209   0.497   7.174   7.967
 9656WAT     H129210   0.571   7.239   7.952
 9656WAT     H229211   0.430   7.215   8.030
 9657WAT      O29212   5.742   7.799   1.543
 9657WAT     H129213   5.819   7.735   1.545
 9657WAT     H229214   5.662   7.757   1.586
 9658WAT      O29215   6.378   0.148   7.814
 9658WAT     H129216   6.373   0.126   7.912
 9658WAT     H229217   6.472   0.173   7.790
 9659WAT      O29218   8.043   6.550   5.400
 9659WAT     H129219   8.091   6.601   5.472
 9659WAT     H229220   8.009   6.463   5.438
 9660WAT      O29221   4.823   7.675   3.658
 9660WAT     H129222   4.775   7.596   3.694
 9660WAT     H229223   4.759   7.732   3.607
 9661WAT      O29224   0.242   8.495   2.068
 9661WAT     H129225   0.145   8.473   2.072
 9661WAT     H229226   0.254   8.594   2.073
 9662WAT      O29227   7.396   3.062   9.348
 9662WAT     H129228   7.384   2.963   9.360
 9662WAT     H229229   7.315   3.100   9.305
 9663WAT      O29230   7.337   4.763   0.673
 9663WAT     H129231   7.261   4.758   0.738
 9663WAT     H229232   7.395   4.683   0.683
 9664WAT      O29233   9.831   8.776   1.020
 9664WAT     H129234   9.761   8.786   1.090
 9664WAT     H229235   9.814   8.692   0.968
 9665WAT      O29236   1.528   4.657   4.910
 9665WAT     H129237   1.598   4.589   4.891
 9665WAT     H229238   1.502   4.653   5.006
 9666WAT      O29239   6.152   7.468   6.663
 9666WAT     H129240   6.117   7.385   6.620
 9666WAT     H229241   6.075   7.525   6.693
 9667WAT      O29242   7.193   4.069   1.831
 9667WAT     H129243   7.223   3.973   1.834
 9667WAT     H229244   7.272   4.129   1.828
 9668WAT      O29245   7.932   3.749   1.251
 9668WAT     H129246   7.881   3.706   1.177
 9668WAT     H229247   8.024   3.710   1.255
 9669WAT      O29248   0.541   2.261   4.617
 9669WAT     H129249   0.636   2.253   4.647
 9669WAT     H229250   0.485   2.293   4.693
 9670WAT      O29251   7.637   8.350   1.664
 9670WAT     H129252   7.702   8.299   1.608
 9670WAT     H229253   7.685   8.423   1.712
 9671WAT      O29254   6.911   8.649   2.943
 9671WAT     H129255   7.009   8.626   2.944
 9671WAT     H229256   6.890   8.698   2.859
 9672WAT      O29257   2.563   0.974   6.419
 9672WAT     H129258   2.593   1.003   6.328
 9672WAT     H229259   2.613   0.892   6.446
 9673WAT      O29260   5.904   7.245   5.643
 9673WAT     H129261   5.836   7.201   5.701
 9673WAT     H229262   5.869   7.335   5.614
 9674WAT      O29263   1.201   1.895   4.398
 9674WAT     H129264   1.210   1.828   4.472
 9674WAT     H229265   1.212   1.849   4.310
 9675WAT      O29266   9.828   7.601   6.128
 9675WAT     H129267   9.884   7.599   6.045
 9675WAT     H229268   9.872   7.660   6.196
 9676WAT      O29269   6.151   2.993   2.956
 9676WAT     H129270   6.108   2.961   2.871
 9676WAT     H229271   6.249   3.005   2.941
 9677WAT      O29272   7.081   2.895   1.685
 9677WAT     H129273   7.090   2.802   1.721
 9677WAT     H229274   7.073   2.960   1.761
 9678WAT      O29275   1.229   1.624   9.760
 9678WAT     H129276   1.242   1.543   9.817
 9678WAT     H229277   1.151   1.610   9.699
 9679WAT      O29278   8.453   3.677   6.495
 9679WAT     H129279   8.534   3.735   6.502
 9679WAT     H229280   8.428   3.643   6.585
 9680WAT      O29281   5.361   4.516   1.645
 9680WAT     H129282   5.272   4.513   1.598
 9680WAT     H229283   5.401   4.424   1.646
 9681WAT      O29284   4.543   5.949   7.991
 9681WAT     H129285   4.544   5.866   7.936
 9681WAT     H229286   4.493   5.933   8.076
 9682WAT      O29287   4.765   0.014   4.695
 9682WAT     H129288   4.815  -0.063   4.733
 9682WAT     H229289   4.779   0.095   4.751
 9683WAT      O29290   7.847   1.121   6.096
 9683WAT     H129291   7.922   1.058   6.078
 9683WAT     H229292   7.802   1.144   6.010
 9684WAT      O29293   7.385   7.752   9.139
 9684WAT     H129294   7.338   7.736   9.225
 9684WAT     H229295   7.319   7.751   9.064
 9685WAT      O29296   5.911   1.805   7.441
 9685WAT     H129297   5.920   1.736   7.369
 9685WAT     H229298   5.994   1.859   7.446
 9686WAT      O29299   8.154   0.685   5.336
 9686WAT     H129300   8.108   0.598   5.320
 9686WAT     H229301   8.125   0.751   5.267
 9687WAT      O29302   1.243   5.824   8.279
 9687WAT     H129303   1.248   5.862   8.371
 9687WAT     H229304   1.179   5.878   8.224
 9688WAT      O29305   3.342   6.367   6.616
 9688WAT     H129306   3.301   6.278   6.595
 9688WAT     H229307   3.417   6.385   6.552
 9689WAT      O29308   6.657   3.543   0.405
 9689WAT     H129309   6.753   3.547   0.431
 9689WAT     H229310   6.600   3.574   0.482
 9690WAT      O29311   9.139   9.178   3.285
 9690WAT     H129312   9.208   9.168   3.357
 9690WAT     H229313   9.152   9.105   3.217
 9691WAT      O29314   6.382   5.203   9.595
 9691WAT     H129315   6.377   5.191   9.695
 9691WAT     H229316   6.474   5.181   9.564
 9692WAT      O29317   0.889   7.668   9.431
 9692WAT     H129318   0.978   7.624   9.414
 9692WAT     H229319   0.854   7.640   9.520
 9693WAT      O29320   9.156   8.305   0.173
 9693WAT     H129321   9.206   8.365   0.236
 9693WAT     H229322   9.121   8.226   0.223
 9694WAT      O29323   0.585   2.232   8.139
 9694WAT     H129324   0.593   2.319   8.189
 9694WAT     H229325   0.643   2.235   8.058
 9695WAT      O29326   8.667   0.297   4.260
 9695WAT     H129327   8.765   0.283   4.275
 9695WAT     H229328   8.630   0.354   4.334
 9696WAT      O29329   3.436   8.947   3.096
 9696WAT     H129330   3.425   8.929   3.194
 9696WAT     H229331   3.526   8.985   3.079
 9697WAT      O29332   8.149   1.465   9.234
 9697WAT     H129333   8.148   1.393   9.304
 9697WAT     H229334   8.059   1.473   9.192
 9698WAT      O29335   7.637   5.670   2.593
 9698WAT     H129336   7.691   5.753   2.599
 9698WAT     H229337   7.619   5.649   2.497
 9699WAT      O29338   7.026   3.126   0.476
 9699WAT     H129339   6.941   3.080   0.500
 9699WAT     H229340   7.071   3.160   0.559
 9700WAT      O29341   2.839   8.127   1.965
 9700WAT     H129342   2.849   8.120   1.866
 9700WAT     H229343   2.816   8.037   2.003
 9701WAT      O29344   5.379   2.183   6.352
 9701WAT     H129345   5.437   2.260   6.326
 9701WAT     H229346   5.419   2.134   6.430
 9702WAT      O29347   6.951   5.373   1.786
 9702WAT     H129348   6.927   5.276   1.793
 9702WAT     H229349   6.937   5.404   1.692
 9703WAT      O29350   0.757   2.284   8.369
 9703WAT     H129351   0.786   2.190   8.347
 9703WAT     H229352   0.674   2.281   8.424
 9704WAT      O29353   4.595   4.636   2.597
 9704WAT     H129354   4.690   4.649   2.627
 9704WAT     H229355   4.576   4.538   2.589
 9705WAT      O29356   8.266   0.227   7.493
 9705WAT     H129357   8.297   0.149   7.438
 9705WAT     H229358   8.166   0.224   7.501
 9706WAT      O29359   2.803   4.827   6.114
 9706WAT     H129360   2.875   4.758   6.104
 9706WAT     H229361   2.714   4.781   6.122
 9707WAT      O29362   4.526   6.040   2.942
 9707WAT     H129363   4.614   6.021   2.985
 9707WAT     H229364   4.522   5.997   2.852
 9708WAT      O29365   9.693   8.680   3.713
 9708WAT     H129366   9.755   8.664   3.637
 9708WAT     H229367   9.695   8.777   3.739
 9709WAT      O29368   5.128   4.937   6.170
 9709WAT     H129369   5.130   4.928   6.070
 9709WAT     H229370   5.221   4.936   6.205
 9710WAT      O29371   0.857   4.939   8.270
 9710WAT     H129372   0.841   4.861   8.332
 9710WAT     H229373   0.953   4.937   8.240
 9711WAT      O29374   0.983   8.241   6.957
 9711WAT     H129375   1.053   8.208   7.020
 9711WAT     H229376   0.907   8.280   7.010
 9712WAT      O29377   2.097   9.417   8.506
 9712WAT     H129378   2.108   9.385   8.412
 9712WAT     H229379   2.012   9.379   8.544
 9713WAT      O29380   8.977   2.596   9.106
 9713WAT     H129381   8.923   2.523   9.064
 9713WAT     H229382   8.920   2.649   9.168
 9714WAT      O29383   8.725   0.556   0.621
 9714WAT     H129384   8.684   0.646   0.603
 9714WAT     H229385   8.820   0.569   0.652
 9715WAT      O29386   5.192   1.262   9.403
 9715WAT     H129387   5.106   1.216   9.423
 9715WAT     H229388   5.268   1.201   9.425
 9716WAT      O29389   3.133   6.659   5.273
 9716WAT     H129390   3.070   6.733   5.250
 9716WAT     H229391   3.183   6.632   5.190
 9717WAT      O29392   1.596   0.491   9.891
 9717WAT     H129393   1.545   0.576   9.907
 9717WAT     H229394   1.692   0.513   9.874
 9718WAT      O29395   0.411   4.900   5.727
 9718WAT     H129396   0.501   4.873   5.761
 9718WAT     H229397   0.411   4.898   5.627
 9719WAT      O29398   7.743   1.044   3.128
 9719WAT     H129399   7.766   1.032   3.224
 9719WAT     H229400   7.827   1.054   3.074
 9720WAT      O29401   9.076   1.119   8.462
 9720WAT     H129402   9.048   1.062   8.385
 9720WAT     H229403   9.174   1.106   8.480
 9721WAT      O29404   5.815   2.667   0.240
 9721WAT     H129405   5.861   2.685   0.154
 9721WAT     H229406   5.751   2.741   0.260
 9722WAT      O29407   9.738   5.144   6.674
 9722WAT     H129408   9.808   5.206   6.710
 9722WAT     H229409   9.782   5.068   6.626
 9723WAT      O29410   0.091   9.660   7.384
 9723WAT     H129411  -0.000   9.674   7.423
 9723WAT     H229412   0.136   9.584   7.431
 9724WAT      O29413   1.029   0.853   9.390
 9724WAT     H129414   1.005   0.892   9.479
 9724WAT     H229415   1.118   0.807   9.397
 9725WAT      O29416   8.166   3.208   7.964
 9725WAT     H129417   8.077   3.244   7.937
 9725WAT     H229418   8.201   3.260   8.041
 9726WAT      O29419   0.091   1.260   4.783
 9726WAT     H129420   0.147   1.320   4.840
 9726WAT     H229421   0.000   1.251   4.824
 9727WAT      O29422   6.814   0.565   5.828
 9727WAT     H129423   6.729   0.529   5.865
 9727WAT     H229424   6.795   0.615   5.743
 9728WAT      O29425   6.715   5.809   8.852
 9728WAT     H129426   6.755   5.748   8.783
 9728WAT     H229427   6.700   5.900   8.811
 9729WAT      O29428   2.095   4.123   0.094
 9729WAT     H129429   2.194   4.111   0.101
 9729WAT     H229430   2.060   4.068   0.018
 9730WAT      O29431   6.072   6.450   0.089
 9730WAT     H129432   6.023   6.451   0.176
 9730WAT     H229433   6.065   6.540   0.045
 9731WAT      O29434   1.025   7.758   0.668
 9731WAT     H129435   0.946   7.803   0.627
 9731WAT     H229436   1.028   7.662   0.639
 9732WAT      O29437   9.834   4.154   9.529
 9732WAT     H129438   9.894   4.208   9.588
 9732WAT     H229439   9.876   4.146   9.438
 9733WAT      O29440   4.940   3.805   4.409
 9733WAT     H129441   4.936   3.740   4.485
 9733WAT     H229442   4.915   3.896   4.441
 9734WAT      O29443   0.951   6.165   5.957
 9734WAT     H129444   1.047   6.187   5.940
 9734WAT     H229445   0.929   6.186   6.053
 9735WAT      O29446   7.916   9.136   4.188
 9735WAT     H129447   7.830   9.179   4.212
 9735WAT     H229448   7.968   9.117   4.271
 9736WAT      O29449   9.854   5.459   0.515
 9736WAT     H129450   9.787   5.494   0.580
 9736WAT     H229451   9.878   5.531   0.450
 9737WAT      O29452   5.082   3.420   7.031
 9737WAT     H129453   5.061   3.396   6.936
 9737WAT     H229454   5.176   3.452   7.037
 9738WAT      O29455   6.697   1.888   7.506
 9738WAT     H129456   6.702   1.947   7.586
 9738WAT     H229457   6.787   1.884   7.462
 9739WAT      O29458   4.513   1.230   7.807
 9739WAT     H129459   4.493   1.321   7.772
 9739WAT     H229460   4.583   1.236   7.878
 9740WAT      O29461   2.133   9.358   4.247
 9740WAT     H129462   2.226   9.393   4.243
 9740WAT     H229463   2.073   9.412   4.189
 9741WAT      O29464   3.242   4.822   0.041
 9741WAT     H129465   3.171   4.773   0.092
 9741WAT     H229466   3.325   4.830   0.097
 9742WAT      O29467   7.132   0.150   5.087
 9742WAT     H129468   7.052   0.169   5.143
 9742WAT     H229469   7.125   0.058   5.048
 9743WAT      O29470   6.083   3.531   8.727
 9743WAT     H129471   6.038   3.611   8.686
 9743WAT     H229472   6.029   3.449   8.709
 9744WAT      O29473   7.727   0.058   5.423
 9744WAT     H129474   7.637   0.054   5.468
 9744WAT     H229475   7.789   0.115   5.477
 9745WAT      O29476   9.876   0.422   9.345
 9745WAT     H129477   9.798   0.439   9.405
 9745WAT     H229478   9.922   0.338   9.375
 9746WAT      O29479   0.112   9.834   8.491
 9746WAT     H129480   0.178   9.770   8.451
 9746WAT     H229481   0.160   9.901   8.547
 9747WAT      O29482   9.751   3.745   3.393
 9747WAT     H129483   9.696   3.665   3.369
 9747WAT     H229484   9.846   3.717   3.408
 9748WAT      O29485   0.654   1.977   3.852
 9748WAT     H129486   0.713   2.053   3.881
 9748WAT     H229487   0.567   2.013   3.819
 9749WAT      O29488   4.534   0.883   3.349
 9749WAT     H129489   4.453   0.828   3.369
 9749WAT     H229490   4.614   0.840   3.390
 9750WAT      O29491   6.547   1.789   0.692
 9750WAT     H129492   6.483   1.782   0.769
 9750WAT     H229493   6.587   1.699   0.674
 9751WAT      O29494   6.735   0.539   8.444
 9751WAT     H129495   6.711   0.499   8.533
 9751WAT     H229496   6.691   0.487   8.371
 9752WAT      O29497   9.097   5.248   7.212
 9752WAT     H129498   9.025   5.184   7.240
 9752WAT     H229499   9.057   5.336   7.188
 9753WAT      O29500   2.730   4.764   9.822
 9753WAT     H129501   2.769   4.799   9.907
 9753WAT     H229502   2.711   4.839   9.759
 9754WAT      O29503   3.411   1.110   9.878
 9754WAT     H129504   3.319   1.074   9.861
 9754WAT     H229505   3.432   1.104   9.976
 9755WAT      O29506   3.068   1.845   8.675
 9755WAT     H129507   3.157   1.863   8.631
 9755WAT     H229508   2.995   1.856   8.607
 9756WAT      O29509   1.679   9.596   7.425
 9756WAT     H129510   1.685   9.695   7.440
 9756WAT     H229511   1.717   9.573   7.336
 9757WAT      O29512   1.546   3.142   3.721
 9757WAT     H129513   1.526   3.236   3.693
 9757WAT     H229514   1.486   3.079   3.671
 9758WAT      O29515   6.068   9.507   9.594
 9758WAT     H129516   6.033   9.476   9.505
 9758WAT     H229517   6.048   9.438   9.663
 9759WAT      O29518   3.161   0.205   8.824
 9759WAT     H129519   3.159   0.261   8.740
 9759WAT     H229520   3.213   0.253   8.894
 9760WAT      O29521   0.013   3.069   6.242
 9760WAT     H129522  -0.004   3.110   6.152
 9760WAT     H229523  -0.062   3.091   6.304
 9761WAT      O29524   9.199   8.698   9.029
 9761WAT     H129525   9.296   8.678   9.015
 9761WAT     H229526   9.189   8.787   9.072
 9762WAT      O29527   9.702   1.119   5.287
 9762WAT     H129528   9.787   1.094   5.333
 9762WAT     H229529   9.626   1.114   5.351
 9763WAT      O29530   0.002   3.410   7.286
 9763WAT     H129531   0.000   3.436   7.190
 9763WAT     H229532   0.010   3.310   7.293
 9764WAT      O29533   7.404   0.067   3.580
 9764WAT     H129534   7.340  -0.003   3.547
 9764WAT     H229535   7.388   0.152   3.531
 9765WAT      O29536   2.249   3.469   4.876
 9765WAT     H129537   2.207   3.410   4.945
 9765WAT     H229538   2.347   3.480   4.895
 9766WAT      O29539   1.835   3.811   0.800
 9766WAT     H129540   1.827   3.882   0.870
 9766WAT     H229541   1.856   3.853   0.712
 9767WAT      O29542   1.548   1.226   4.708
 9767WAT     H129543   1.593   1.230   4.797
 9767WAT     H229544   1.605   1.174   4.644
 9768WAT      O29545   6.740   4.556   9.243
 9768WAT     H129546   6.784   4.481   9.194
 9768WAT     H229547   6.713   4.525   9.334
 9769WAT      O29548   5.456   1.274   4.697
 9769WAT     H129549   5.364   1.247   4.724
 9769WAT     H229550   5.452   1.363   4.651
 9770WAT      O29551   2.312   3.216   8.265
 9770WAT     H129552   2.391   3.226   8.325
 9770WAT     H229553   2.228   3.233   8.316
 9771WAT      O29554   9.868   0.184   3.656
 9771WAT     H129555   9.862   0.264   3.716
 9771WAT     H229556   9.933   0.203   3.583
 9772WAT      O29557   7.743   8.261   5.114
 9772WAT     H129558   7.776   8.327   5.047
 9772WAT     H229559   7.732   8.171   5.071
 9773WAT      O29560   9.469   5.322   2.833
 9773WAT     H129561   9.487   5.362   2.743
 9773WAT     H229562   9.371   5.331   2.853
 9774WAT      O29563   6.223   9.642   0.058
 9774WAT     H129564   6.317   9.677   0.050
 9774WAT     H229565   6.217   9.554   0.011
 9775WAT      O29566   9.189   0.420   1.169
 9775WAT     H129567   9.145   0.340   1.209
 9775WAT     H229568   9.248   0.393   1.094
 9776WAT      O29569   2.538   8.526   7.276
 9776WAT     H129570   2.623   8.528   7.223
 9776WAT     H229571   2.478   8.454   7.239
 9777WAT      O29572   8.796   7.634   3.963
 9777WAT     H129573   8.758   7.656   4.052
 9777WAT     H229574   8.741   7.679   3.892
 9778WAT      O29575   8.929   9.834   0.251
 9778WAT     H129576   8.942   9.806   0.346
 9778WAT     H229577   8.843   9.799   0.216
 9779WAT      O29578   3.416   7.898   2.401
 9779WAT     H129579   3.348   7.902   2.474
 9779WAT     H229580   3.508   7.900   2.442
 9780WAT      O29581   9.702   8.425   9.056
 9780WAT     H129582   9.669   8.385   8.971
 9780WAT     H229583   9.682   8.363   9.132
 9781WAT      O29584   6.188   9.358   6.843
 9781WAT     H129585   6.194   9.445   6.794
 9781WAT     H229586   6.278   9.333   6.878
 9782WAT      O29587   9.548   0.185   8.601
 9782WAT     H129588   9.628   0.236   8.567
 9782WAT     H229589   9.467   0.244   8.597
 9783WAT      O29590   0.800   2.837   9.549
 9783WAT     H129591   0.708   2.870   9.565
 9783WAT     H229592   0.837   2.882   9.467
 9784WAT      O29593   0.361   5.734   9.619
 9784WAT     H129594   0.449   5.761   9.656
 9784WAT     H229595   0.302   5.814   9.613
 9785WAT      O29596   2.537   0.813   2.877
 9785WAT     H129597   2.627   0.837   2.842
 9785WAT     H229598   2.547   0.757   2.959
 9786WAT      O29599   8.439   3.440   8.346
 9786WAT     H129600   8.492   3.358   8.368
 9786WAT     H229601   8.497   3.507   8.300
 9787WAT      O29602   5.227   8.692   1.620
 9787WAT     H129603   5.153   8.671   1.556
 9787WAT     H229604   5.272   8.777   1.593
 9788WAT      O29605   8.914   5.153   9.397
 9788WAT     H129606   8.995   5.127   9.449
 9788WAT     H229607   8.847   5.196   9.459
 9789WAT      O29608   6.658   4.218   1.701
 9789WAT     H129609   6.729   4.180   1.759
 9789WAT     H229610   6.682   4.206   1.605
 9790WAT      O29611   7.808   3.254   6.316
 9790WAT     H129612   7.752   3.336   6.303
 9790WAT     H229613   7.750   3.179   6.349
 9791WAT      O29614   2.265   7.135   1.233
 9791WAT     H129615   2.190   7.195   1.203
 9791WAT     H229616   2.227   7.051   1.271
 9792WAT      O29617   0.444   2.147   3.861
 9792WAT     H129618   0.478   2.237   3.888
 9792WAT     H229619   0.366   2.122   3.919
 9793WAT      O29620   0.633   2.975   5.129
 9793WAT     H129621   0.682   2.901   5.175
 9793WAT     H229622   0.684   3.003   5.048
 9794WAT      O29623   2.889   6.419   6.159
 9794WAT     H129624   2.821   6.404   6.231
 9794WAT     H229625   2.937   6.504   6.177
 9795WAT      O29626   9.077   0.742   0.433
 9795WAT     H129627   9.035   0.705   0.516
 9795WAT     H229628   9.047   0.689   0.354
 9796WAT      O29629   6.963   4.433   5.501
 9796WAT     H129630   7.004   4.398   5.417
 9796WAT     H229631   7.000   4.524   5.520
 9797WAT      O29632   5.925   9.017   6.765
 9797WAT     H129633   5.836   8.976   6.748
 9797WAT     H229634   5.950   9.076   6.687
 9798WAT      O29635   8.277   8.118   8.840
 9798WAT     H129636   8.287   8.217   8.856
 9798WAT     H229637   8.282   8.070   8.928
 9799WAT      O29638   2.680   9.260   6.541
 9799WAT     H129639   2.607   9.219   6.596
 9799WAT     H229640   2.662   9.243   6.444
 9800WAT      O29641   7.422   6.643   5.535
 9800WAT     H129642   7.481   6.724   5.537
 9800WAT     H229643   7.356   6.652   5.461
 9801WAT      O29644   1.627   3.489   6.995
 9801WAT     H129645   1.535   3.457   7.016
 9801WAT     H229646   1.661   3.545   7.071
 9802WAT      O29647   8.940   4.724   2.727
 9802WAT     H129648   8.933   4.804   2.668
 9802WAT     H229649   8.973   4.752   2.817
 9803WAT      O29650   9.880   4.748   7.458
 9803WAT     H129651   9.860   4.776   7.364
 9803WAT     H229652   9.905   4.828   7.512
 9804WAT      O29653   4.273   4.406   2.590
 9804WAT     H129654   4.253   4.309   2.574
 9804WAT     H229655   4.232   4.461   2.517
 9805WAT      O29656   7.179   1.171   1.885
 9805WAT     H129657   7.126   1.200   1.805
 9805WAT     H229658   7.254   1.112   1.855
 9806WAT      O29659   8.267   8.079   1.716
 9806WAT     H129660   8.326   8.087   1.635
 9806WAT     H229661   8.223   8.167   1.734
 9807WAT      O29662   2.623   4.855   8.826
 9807WAT     H129663   2.601   4.776   8.884
 9807WAT     H229664   2.552   4.924   8.835
 9808WAT      O29665   3.117   4.014   7.669
 9808WAT     H129666   3.172   4.088   7.631
 9808WAT     H229667   3.021   4.040   7.667
 9809WAT      O29668   1.136   1.601   6.591
 9809WAT     H129669   1.071   1.631   6.521
 9809WAT     H229670   1.210   1.550   6.548
 9810WAT      O29671   9.464   9.396   1.710
 9810WAT     H129672   9.480   9.487   1.673
 9810WAT     H229673   9.419   9.339   1.641
 9811WAT      O29674   1.799   1.479   4.192
 9811WAT     H129675   1.734   1.545   4.152
 9811WAT     H229676   1.749   1.397   4.220
 9812WAT      O29677   8.316   0.937   4.704
 9812WAT     H129678   8.253   0.976   4.771
 9812WAT     H229679   8.410   0.953   4.733
 9813WAT      O29680   9.124   8.792   0.611
 9813WAT     H129681   9.054   8.722   0.592
 9813WAT     H229682   9.204   8.775   0.553
 9814WAT      O29683   9.260   2.471   1.505
 9814WAT     H129684   9.266   2.565   1.469
 9814WAT     H229685   9.351   2.433   1.514
 9815WAT      O29686   6.807   3.776   3.053
 9815WAT     H129687   6.863   3.819   2.982
 9815WAT     H229688   6.780   3.685   3.023
 9816WAT      O29689   9.236   2.824   4.423
 9816WAT     H129690   9.302   2.756   4.390
 9816WAT     H229691   9.146   2.805   4.385
 9817WAT      O29692   8.235   6.852   2.664
 9817WAT     H129693   8.214   6.908   2.584
 9817WAT     H229694   8.235   6.909   2.746
 9818WAT      O29695   8.666   6.368   5.075
 9818WAT     H129696   8.675   6.349   5.172
 9818WAT     H229697   8.742   6.325   5.025
 9819WAT      O29698   0.340   0.742   0.362
 9819WAT     H129699   0.271   0.815   0.366
 9819WAT     H229700   0.391   0.740   0.448
 9820WAT      O29701   7.503   3.947   3.018
 9820WAT     H129702   7.454   3.887   2.954
 9820WAT     H229703   7.561   3.892   3.077
 9821WAT      O29704   4.731   2.816   7.863
 9821WAT     H129705   4.814   2.761   7.876
 9821WAT     H229706   4.754   2.913   7.871
 9822WAT      O29707   9.781   7.374   2.888
 9822WAT     H129708   9.848   7.314   2.845
 9822WAT     H229709   9.708   7.395   2.823
 9823WAT      O29710   0.417   9.565   2.105
 9823WAT     H129711   0.500   9.538   2.057
 9823WAT     H229712   0.345   9.499   2.088
 9824WAT      O29713   7.814   4.576   4.612
 9824WAT     H129714   7.821   4.596   4.709
 9824WAT     H229715   7.900   4.601   4.567
 9825WAT      O29716   5.112   0.623   6.656
 9825WAT     H129717   5.127   0.524   6.650
 9825WAT     H229718   5.040   0.650   6.593
 9826WAT      O29719   1.448   0.026   6.401
 9826WAT     H129720   1.483  -0.066   6.381
 9826WAT     H229721   1.348   0.024   6.396
 9827WAT      O29722   5.791   3.972   9.232
 9827WAT     H129723   5.871   3.928   9.273
 9827WAT     H229724   5.791   4.069   9.254
 9828WAT      O29725   3.614   4.804   8.327
 9828WAT     H129726   3.630   4.710   8.296
 9828WAT     H229727   3.699   4.857   8.319
 9829WAT      O29728   7.654   5.086   0.512
 9829WAT     H129729   7.713   5.155   0.555
 9829WAT     H229730   7.702   5.044   0.435
 9830WAT      O29731   3.515   6.090   7.030
 9830WAT     H129732   3.535   6.052   7.121
 9830WAT     H229733   3.420   6.071   7.007
 9831WAT      O29734   7.368   7.195   9.146
 9831WAT     H129735   7.383   7.293   9.164
 9831WAT     H229736   7.274   7.182   9.114
 9832WAT      O29737   3.780   2.876   7.494
 9832WAT     H129738   3.810   2.959   7.447
 9832WAT     H229739   3.834   2.798   7.463
 9833WAT      O29740   0.951   8.930   4.155
 9833WAT     H129741   0.900   9.015   4.170
 9833WAT     H229742   0.961   8.881   4.242
 9834WAT      O29743   2.579   4.359   1.673
 9834WAT     H129744   2.666   4.397   1.641
 9834WAT     H229745   2.516   4.433   1.694
 9835WAT      O29746   0.994   7.977   6.829
 9835WAT     H129747   0.931   7.937   6.763
 9835WAT     H229748   0.989   8.076   6.825
 9836WAT      O29749   3.403   7.466   3.917
 9836WAT     H129750   3.452   7.420   3.991
 9836WAT     H229751   3.447   7.446   3.829
 9837WAT      O29752   2.486   2.319   6.462
 9837WAT     H129753   2.529   2.372   6.535
 9837WAT     H229754   2.449   2.382   6.393
 9838WAT      O29755   3.214   5.233   4.199
 9838WAT     H129756   3.258   5.198   4.117
 9838WAT     H229757   3.125   5.189   4.211
 9839WAT      O29758   4.987   3.624   8.799
 9839WAT     H129759   5.015   3.529   8.812
 9839WAT     H229760   4.914   3.646   8.864
 9840WAT      O29761   6.933   1.624   3.308
 9840WAT     H129762   7.033   1.620   3.319
 9840WAT     H229763   6.890   1.563   3.374
 9841WAT      O29764   4.411   5.640   8.537
 9841WAT     H129765   4.323   5.651   8.490
 9841WAT     H229766   4.428   5.719   8.596
 9842WAT      O29767   3.841   2.595   8.991
 9842WAT     H129768   3.810   2.645   8.911
 9842WAT     H229769   3.926   2.546   8.969
 9843WAT      O29770   3.626   7.364   9.086
 9843WAT     H129771   3.562   7.407   9.022
 9843WAT     H229772   3.675   7.435   9.137
 9844WAT      O29773   9.859   1.246   5.089
 9844WAT     H129774   9.804   1.282   5.013
 9844WAT     H229775   9.807   1.175   5.137
 9845WAT      O29776   6.135   8.918   3.523
 9845WAT     H129777   6.220   8.927   3.471
 9845WAT     H229778   6.130   8.827   3.564
 9846WAT      O29779   5.344   8.667   6.503
 9846WAT     H129780   5.373   8.626   6.417
 9846WAT     H229781   5.411   8.648   6.574
 9847WAT      O29782   0.994   9.371   1.786
 9847WAT     H129783   1.039   9.286   1.759
 9847WAT     H229784   0.963   9.363   1.880
 9848WAT      O29785   2.900   1.894   8.459
 9848WAT     H129786   2.950   1.900   8.372
 9848WAT     H229787   2.860   1.982   8.480
 9849WAT      O29788   3.644   1.353   5.646
 9849WAT     H129789   3.653   1.277   5.581
 9849WAT     H229790   3.724   1.412   5.640
 9850WAT      O29791   1.717   4.779   4.310
 9850WAT     H129792   1.706   4.709   4.240
 9850WAT     H229793   1.811   4.776   4.346
 9851WAT      O29794   3.689   4.000   1.668
 9851WAT     H129795   3.618   4.065   1.694
 9851WAT     H229796   3.654   3.907   1.680
 9852WAT      O29797   4.315   9.133   8.724
 9852WAT     H129798   4.401   9.110   8.679
 9852WAT     H229799   4.256   9.181   8.659
 9853WAT      O29800   0.631   3.066   3.881
 9853WAT     H129801   0.715   3.015   3.899
 9853WAT     H229802   0.635   3.155   3.926
 9854WAT      O29803   3.684   9.384   5.301
 9854WAT     H129804   3.669   9.482   5.293
 9854WAT     H229805   3.649   9.339   5.218
 9855WAT      O29806   1.811   9.715   0.814
 9855WAT     H129807   1.744   9.694   0.885
 9855WAT     H229808   1.765   9.725   0.726
 9856WAT      O29809   5.532   8.188   3.668
 9856WAT     H129810   5.437   8.159   3.680
 9856WAT     H229811   5.538   8.255   3.594
 9857WAT      O29812   9.177   1.235   0.782
 9857WAT     H129813   9.159   1.227   0.684
 9857WAT     H229814   9.276   1.240   0.798
 9858WAT      O29815   5.398   9.435   7.820
 9858WAT     H129816   5.454   9.515   7.798
 9858WAT     H229817   5.333   9.459   7.892
 9859WAT      O29818   7.260   7.516   0.565
 9859WAT     H129819   7.177   7.480   0.606
 9859WAT     H229820   7.237   7.576   0.488
 9860WAT      O29821   5.220   5.536   0.722
 9860WAT     H129822   5.187   5.449   0.685
 9860WAT     H229823   5.168   5.559   0.805
 9861WAT      O29824   3.623   6.261   3.773
 9861WAT     H129825   3.529   6.296   3.769
 9861WAT     H229826   3.647   6.240   3.868
 9862WAT      O29827   5.261   0.292   0.794
 9862WAT     H129828   5.212   0.329   0.874
 9862WAT     H229829   5.358   0.283   0.816
 9863WAT      O29830   0.119   5.552   6.667
 9863WAT     H129831   0.215   5.577   6.679
 9863WAT     H229832   0.083   5.594   6.584
 9864WAT      O29833   7.422   7.969   3.018
 9864WAT     H129834   7.372   8.054   3.032
 9864WAT     H229835   7.516   7.980   3.048
 9865WAT      O29836   6.250   4.364   6.070
 9865WAT     H129837   6.172   4.424   6.091
 9865WAT     H229838   6.300   4.401   5.992
 9866WAT      O29839   0.624   7.557   6.359
 9866WAT     H129840   0.604   7.480   6.298
 9866WAT     H229841   0.540   7.587   6.403
 9867WAT      O29842   6.154   5.904   8.058
 9867WAT     H129843   6.198   5.966   7.993
 9867WAT     H229844   6.212   5.824   8.073
 9868WAT      O29845   3.957   6.517   1.038
 9868WAT     H129846   3.962   6.430   1.088
 9868WAT     H229847   3.928   6.590   1.099
 9869WAT      O29848   5.587   9.671   6.402
 9869WAT     H129849   5.592   9.695   6.499
 9869WAT     H229850   5.669   9.702   6.356
 9870WAT      O29851   6.051   3.098   7.828
 9870WAT     H129852   6.092   3.176   7.876
 9870WAT     H229853   5.986   3.053   7.888
 9871WAT      O29854   4.083   3.916   8.395
 9871WAT     H129855   4.000   3.911   8.450
 9871WAT     H229856   4.091   4.007   8.355
 9872WAT      O29857   1.649   4.266   0.587
 9872WAT     H129858   1.700   4.191   0.545
 9872WAT     H229859   1.555   4.237   0.605
 9873WAT      O29860   1.329   8.444   7.699
 9873WAT     H129861   1.341   8.534   7.742
 9873WAT     H229862   1.414   8.418   7.652
 9874WAT      O29863   8.707   6.980   6.138
 9874WAT     H129864   8.693   6.887   6.171
 9874WAT     H229865   8.791   6.984   6.085
 9875WAT      O29866   7.205   3.560   0.627
 9875WAT     H129867   7.172   3.471   0.659
 9875WAT     H229868   7.250   3.550   0.539
 9876WAT      O29869   5.424   6.289   4.260
 9876WAT     H129870   5.413   6.359   4.330
 9876WAT     H229871   5.521   6.269   4.248
 9877WAT      O29872   9.499   4.843   1.063
 9877WAT     H129873   9.421   4.906   1.063
 9877WAT     H229874   9.584   4.894   1.077
 9878WAT      O29875   8.719   3.568   8.582
 9878WAT     H129876   8.806   3.605   8.614
 9878WAT     H229877   8.735   3.479   8.538
 9879WAT      O29878   6.265   1.467   6.131
 9879WAT     H129879   6.291   1.390   6.072
 9879WAT     H229880   6.292   1.553   6.087
 9880WAT      O29881   0.660   6.415   7.738
 9880WAT     H129882   0.563   6.388   7.737
 9880WAT     H229883   0.672   6.496   7.681
 9881WAT      O29884   3.578   5.658   9.007
 9881WAT     H129885   3.563   5.582   8.944
 9881WAT     H229886   3.668   5.697   8.990
 9882WAT      O29887   3.398   9.369   3.544
 9882WAT     H129888   3.376   9.449   3.488
 9882WAT     H229889   3.386   9.391   3.640
 9883WAT      O29890   5.865   1.616   9.545
 9883WAT     H129891   5.785   1.671   9.519
 9883WAT     H229892   5.946   1.652   9.497
 9884WAT      O29893   6.161   7.339   8.510
 9884WAT     H129894   6.186   7.265   8.447
 9884WAT     H229895   6.207   7.325   8.598
 9885WAT      O29896   0.817   7.054   2.871
 9885WAT     H129897   0.909   7.015   2.879
 9885WAT     H229898   0.750   6.988   2.906
 9886WAT      O29899   6.170   7.712   2.719
 9886WAT     H129900   6.264   7.741   2.735
 9886WAT     H229901   6.154   7.700   2.621
 9887WAT      O29902   0.317   6.597   5.369
 9887WAT     H129903   0.282   6.667   5.307
 9887WAT     H229904   0.274   6.608   5.459
 9888WAT      O29905   7.128   5.085   0.500
 9888WAT     H129906   7.221   5.122   0.499
 9888WAT     H229907   7.063   5.158   0.480
 9889WAT      O29908   6.734   0.491   4.963
 9889WAT     H129909   6.791   0.410   4.945
 9889WAT     H229910   6.783   0.553   5.024
 9890WAT      O29911   8.294   5.182   7.572
 9890WAT     H129912   8.367   5.228   7.521
 9890WAT     H229913   8.335   5.118   7.638
 9891WAT      O29914   0.705   3.385   1.783
 9891WAT     H129915   0.613   3.349   1.796
 9891WAT     H229916   0.712   3.427   1.693
 9892WAT      O29917   5.406   2.370   7.984
 9892WAT     H129918   5.318   2.366   7.936
 9892WAT     H229919   5.475   2.321   7.931
 9893WAT      O29920   4.111   8.677   6.739
 9893WAT     H129921   4.154   8.591   6.765
 9893WAT     H229922   4.072   8.668   6.647
 9894WAT      O29923   6.341   4.056   6.478
 9894WAT     H129924   6.336   4.044   6.577
 9894WAT     H229925   6.432   4.089   6.453
 9895WAT      O29926   6.144   8.219   6.741
 9895WAT     H129927   6.170   8.270   6.823
 9895WAT     H229928   6.106   8.130   6.768
 9896WAT      O29929   0.420   7.739   2.051
 9896WAT     H129930   0.340   7.750   2.111
 9896WAT     H229931   0.429   7.819   1.992
 9897WAT      O29932   6.904   4.253   8.630
 9897WAT     H129933   6.828   4.211   8.581
 9897WAT     H229934   6.901   4.352   8.617
 9898WAT      O29935   6.517   6.317   1.030
 9898WAT     H129936   6.464   6.397   1.002
 9898WAT     H229937   6.599   6.347   1.079
 9899WAT      O29938   2.878   9.039   3.249
 9899WAT     H129939   2.958   8.999   3.204
 9899WAT     H229940   2.899   9.056   3.345
 9900WAT      O29941   3.916   2.966   2.967
 9900WAT     H129942   3.906   2.885   2.909
 9900WAT     H229943   4.006   3.007   2.954
 9901WAT      O29944   7.494   6.192   4.061
 9901WAT     H129945   7.592   6.212   4.063
 9901WAT     H229946   7.476   6.128   3.986
 9902WAT      O29947   8.983   1.455   8.172
 9902WAT     H129948   8.996   1.370   8.121
 9902WAT     H229949   9.008   1.533   8.114
 9903WAT      O29950   6.174   9.438   2.443
 9903WAT     H129951   6.100   9.423   2.508
 9903WAT     H229952   6.244   9.368   2.456
 9904WAT      O29953   2.715   7.981   4.746
 9904WAT     H129954   2.651   8.049   4.781
 9904WAT     H229955   2.664   7.905   4.706
 9905WAT      O29956   1.819   3.852   7.986
 9905WAT     H129957   1.842   3.770   8.038
 9905WAT     H229958   1.782   3.921   8.048
 9906WAT      O29959   2.469   7.986   4.458
 9906WAT     H129960   2.392   8.022   4.511
 9906WAT     H229961   2.548   8.047   4.470
 9907WAT      O29962   3.929   0.390   2.410
 9907WAT     H129963   3.946   0.321   2.340
 9907WAT     H229964   4.011   0.446   2.423
 9908WAT      O29965   2.902   2.987   1.799
 9908WAT     H129966   2.879   3.004   1.703
 9908WAT     H229967   2.996   3.017   1.817
 9909WAT      O29968   9.890   5.133   5.771
 9909WAT     H129969   9.945   5.205   5.730
 9909WAT     H229970   9.794   5.150   5.752
 9910WAT      O29971   7.450   5.520   9.116
 9910WAT     H129972   7.409   5.433   9.087
 9910WAT     H229973   7.529   5.501   9.176
 9911WAT      O29974   5.669   5.695   4.712
 9911WAT     H129975   5.608   5.735   4.781
 9911WAT     H229976   5.730   5.630   4.757
 9912WAT      O29977   4.457   9.386   7.329
 9912WAT     H129978   4.405   9.353   7.250
 9912WAT     H229979   4.444   9.323   7.405
 9913WAT      O29980   1.781   2.646   5.458
 9913WAT     H129981   1.861   2.689   5.499
 9913WAT     H229982   1.801   2.551   5.434
 9914WAT      O29983   1.405   1.488   5.741
 9914WAT     H129984   1.428   1.444   5.828
 9914WAT     H229985   1.403   1.420   5.668
 9915WAT      O29986   1.841   4.856   8.872
 9915WAT     H129987   1.848   4.798   8.954
 9915WAT     H229988   1.770   4.820   8.812
 9916WAT      O29989   9.512   1.997   3.924
 9916WAT     H129990   9.467   2.071   3.874
 9916WAT     H229991   9.504   1.912   3.872
 9917WAT      O29992   8.022   0.803   0.937
 9917WAT     H129993   7.993   0.845   0.852
 9917WAT     H229994   7.960   0.829   1.011
 9918WAT      O29995   1.677   9.058   2.081
 9918WAT     H129996   1.707   9.112   2.002
 9918WAT     H229997   1.757   9.028   2.132
 9919WAT      O29998   2.195   9.822   0.582
 9919WAT     H129999   2.119   9.875   0.619
 9919WAT     H230000   2.171   9.789   0.491
 9920WAT      O30001   1.391   7.810   1.581
 9920WAT     H130002   1.332   7.868   1.637
 9920WAT     H230003   1.347   7.794   1.492
 9921WAT      O30004   1.517   9.373   8.348
 9921WAT     H130005   1.486   9.467   8.337
 9921WAT     H230006   1.462   9.313   8.291
 9922WAT      O30007   8.541   2.516   6.166
 9922WAT     H130008   8.577   2.592   6.220
 9922WAT     H230009   8.537   2.434   6.223
 9923WAT      O30010   2.370   6.622   5.541
 9923WAT     H130011   2.405   6.563   5.613
 9923WAT     H230012   2.347   6.711   5.579
 9924WAT      O30013   2.072   1.482   5.585
 9924WAT     H130014   2.107   1.406   5.530
 9924WAT     H230015   2.019   1.543   5.527
 9925WAT      O30016   9.616   6.382   4.065
 9925WAT     H130017   9.588   6.464   4.015
 9925WAT     H230018   9.652   6.409   4.154
 9926WAT      O30019   0.352   8.852   3.475
 9926WAT     H130020   0.382   8.945   3.499
 9926WAT     H230021   0.304   8.811   3.552
 9927WAT      O30022   5.306   0.059   1.882
 9927WAT     H130023   5.249   0.122   1.829
 9927WAT     H230024   5.401   0.091   1.881
 9928WAT      O30025   2.892   2.109   9.712
 9928WAT     H130026   2.865   2.017   9.743
 9928WAT     H230027   2.983   2.105   9.671
 9929WAT      O30028   5.700   7.370   5.955
 9929WAT     H130029   5.649   7.359   6.040
 9929WAT     H230030   5.661   7.312   5.884
 9930WAT      O30031   1.836   6.930   2.855
 9930WAT     H130032   1.832   6.858   2.786
 9930WAT     H230033   1.885   6.897   2.936
 9931WAT      O30034   0.268   8.398   6.377
 9931WAT     H130035   0.347   8.460   6.369
 9931WAT     H230036   0.294   8.319   6.431
 9932WAT      O30037   5.900   9.788   6.731
 9932WAT     H130038   5.936   9.877   6.703
 9932WAT     H230039   5.909   9.779   6.830
 9933WAT      O30040   7.829   9.144   7.076
 9933WAT     H130041   7.747   9.086   7.076
 9933WAT     H230042   7.909   9.088   7.100
 9934WAT      O30043   1.227   3.279   5.592
 9934WAT     H130044   1.196   3.280   5.687
 9934WAT     H230045   1.169   3.339   5.537
 9935WAT      O30046   0.499   2.320   9.165
 9935WAT     H130047   0.493   2.358   9.073
 9935WAT     H230048   0.595   2.316   9.194
 9936WAT      O30049   8.102   9.194   2.664
 9936WAT     H130050   8.044   9.252   2.607
 9936WAT     H230051   8.181   9.164   2.611
 9937WAT      O30052   1.563   4.395   8.139
 9937WAT     H130053   1.641   4.382   8.201
 9937WAT     H230054   1.502   4.317   8.145
 9938WAT      O30055   3.625   8.393   7.091
 9938WAT     H130056   3.589   8.359   7.178
 9938WAT     H230057   3.711   8.345   7.070
 9939WAT      O30058   7.596   1.922   8.894
 9939WAT     H130059   7.673   1.890   8.840
 9939WAT     H230060   7.518   1.941   8.834
 9940WAT      O30061   6.320   3.944   0.410
 9940WAT     H130062   6.357   3.856   0.441
 9940WAT     H230063   6.365   4.018   0.460
 9941WAT      O30064   2.197   4.588   2.780
 9941WAT     H130065   2.219   4.600   2.877
 9941WAT     H230066   2.242   4.659   2.726
 9942WAT      O30067   2.199   8.158   3.339
 9942WAT     H130068   2.253   8.130   3.259
 9942WAT     H230069   2.261   8.188   3.412
 9943WAT      O30070   5.820   9.344   5.510
 9943WAT     H130071   5.748   9.299   5.562
 9943WAT     H230072   5.815   9.443   5.525
 9944WAT      O30073   3.442   0.971   5.228
 9944WAT     H130074   3.527   0.921   5.241
 9944WAT     H230075   3.410   1.007   5.316
 9945WAT      O30076   0.022   2.100   8.780
 9945WAT     H130077   0.070   2.146   8.705
 9945WAT     H230078   0.041   2.148   8.866
 9946WAT      O30079   3.967   2.969   2.612
 9946WAT     H130080   4.019   2.883   2.615
 9946WAT     H230081   3.869   2.948   2.608
 9947WAT      O30082   5.749   0.115   3.533
 9947WAT     H130083   5.767   0.019   3.549
 9947WAT     H230084   5.834   0.167   3.540
 9948WAT      O30085   4.083   5.551   1.564
 9948WAT     H130086   3.993   5.520   1.533
 9948WAT     H230087   4.148   5.476   1.558
 9949WAT      O30088   7.817   5.080   7.436
 9949WAT     H130089   7.820   5.164   7.382
 9949WAT     H230090   7.804   5.103   7.532
 9950WAT      O30091   8.245   5.005   8.098
 9950WAT     H130092   8.341   5.029   8.117
 9950WAT     H230093   8.214   4.937   8.164
 9951WAT      O30094   5.914   0.833   5.013
 9951WAT     H130095   5.906   0.743   5.057
 9951WAT     H230096   5.927   0.903   5.083
 9952WAT      O30097   7.328   6.674   1.114
 9952WAT     H130098   7.239   6.718   1.126
 9952WAT     H230099   7.393   6.714   1.178
 9953WAT      O30100   1.675   3.989   4.373
 9953WAT     H130101   1.689   4.087   4.386
 9953WAT     H230102   1.629   3.951   4.454
 9954WAT      O30103   0.382   2.776   6.928
 9954WAT     H130104   0.430   2.840   6.868
 9954WAT     H230105   0.334   2.708   6.873
 9955WAT      O30106   3.024   2.494   3.008
 9955WAT     H130107   3.089   2.434   3.053
 9955WAT     H230108   2.933   2.453   3.011
 9956WAT      O30109   0.945   9.323   9.195
 9956WAT     H130110   0.951   9.227   9.167
 9956WAT     H230111   1.015   9.342   9.264
 9957WAT      O30112   8.600   7.488   3.218
 9957WAT     H130113   8.640   7.566   3.170
 9957WAT     H230114   8.501   7.502   3.227
 9958WAT      O30115   6.009   6.268   6.775
 9958WAT     H130116   5.974   6.362   6.773
 9958WAT     H230117   5.962   6.214   6.705
 9959WAT      O30118   8.916   7.454   8.696
 9959WAT     H130119   8.825   7.418   8.679
 9959WAT     H230120   8.976   7.433   8.618
 9960WAT      O30121   7.065   6.768   8.875
 9960WAT     H130122   7.090   6.848   8.820
 9960WAT     H230123   7.148   6.715   8.896
 9961WAT      O30124   4.526   2.315   2.257
 9961WAT     H130125   4.451   2.249   2.257
 9961WAT     H230126   4.613   2.267   2.244
 9962WAT      O30127   4.510   1.644   1.419
 9962WAT     H130128   4.418   1.650   1.457
 9962WAT     H230129   4.552   1.558   1.448
 9963WAT      O30130   0.888   1.734   7.415
 9963WAT     H130131   0.889   1.638   7.443
 9963WAT     H230132   0.859   1.791   7.492
 9964WAT      O30133   3.786   6.711   8.635
 9964WAT     H130134   3.880   6.709   8.670
 9964WAT     H230135   3.723   6.678   8.705
 9965WAT      O30136   2.754   8.634   1.545
 9965WAT     H130137   2.824   8.645   1.615
 9965WAT     H230138   2.788   8.667   1.457
 9966WAT      O30139   1.998   3.119   7.982
 9966WAT     H130140   1.984   3.210   7.942
 9966WAT     H230141   2.077   3.076   7.938
 9967WAT      O30142   4.010   2.160   6.195
 9967WAT     H130143   3.910   2.168   6.186
 9967WAT     H230144   4.032   2.111   6.279
 9968WAT      O30145   3.430   4.849   7.488
 9968WAT     H130146   3.493   4.819   7.416
 9968WAT     H230147   3.389   4.768   7.531
 9969WAT      O30148   5.621   8.056   1.030
 9969WAT     H130149   5.532   8.093   1.057
 9969WAT     H230150   5.670   8.024   1.111
 9970WAT      O30151   8.847   6.213   6.771
 9970WAT     H130152   8.946   6.203   6.776
 9970WAT     H230153   8.813   6.166   6.690
 9971WAT      O30154   4.411   1.807   5.549
 9971WAT     H130155   4.314   1.797   5.571
 9971WAT     H230156   4.466   1.772   5.625
 9972WAT      O30157   2.279   2.658   3.851
 9972WAT     H130158   2.256   2.714   3.930
 9972WAT     H230159   2.355   2.699   3.801
 9973WAT      O30160   8.913   1.758   5.628
 9973WAT     H130161   8.867   1.680   5.585
 9973WAT     H230162   8.848   1.806   5.687
 9974WAT      O30163   2.218   6.755   1.271
 9974WAT     H130164   2.147   6.806   1.222
 9974WAT     H230165   2.183   6.665   1.296
 9975WAT      O30166   4.767   0.095   4.074
 9975WAT     H130167   4.687   0.084   4.014
 9975WAT     H230168   4.797   0.004   4.105
 9976WAT      O30169   9.665   4.985   0.513
 9976WAT     H130170   9.612   4.901   0.499
 9976WAT     H230171   9.619   5.042   0.581
 9977WAT      O30172   8.696   5.751   9.069
 9977WAT     H130173   8.743   5.752   8.981
 9977WAT     H230174   8.597   5.752   9.055
 9978WAT      O30175   5.673   3.511   8.807
 9978WAT     H130176   5.649   3.496   8.711
 9978WAT     H230177   5.632   3.596   8.839
 9979WAT      O30178   1.773   0.832   9.073
 9979WAT     H130179   1.730   0.800   9.157
 9979WAT     H230180   1.703   0.869   9.012
 9980WAT      O30181   6.590   5.738   6.295
 9980WAT     H130182   6.585   5.757   6.197
 9980WAT     H230183   6.686   5.742   6.324
 9981WAT      O30184   9.564   5.346   6.526
 9981WAT     H130185   9.596   5.289   6.602
 9981WAT     H230186   9.635   5.352   6.456
 9982WAT      O30187   4.612   9.048   8.156
 9982WAT     H130188   4.555   8.966   8.152
 9982WAT     H230189   4.564   9.124   8.112
 9983WAT      O30190   8.273   5.984   9.393
 9983WAT     H130191   8.174   5.974   9.401
 9983WAT     H230192   8.294   6.069   9.344
 9984WAT      O30193   8.617   8.331   6.102
 9984WAT     H130194   8.667   8.417   6.113
 9984WAT     H230195   8.541   8.344   6.039
 9985WAT      O30196   0.708   6.463   5.929
 9985WAT     H130197   0.628   6.463   5.988
 9985WAT     H230198   0.772   6.534   5.960
 9986WAT      O30199   4.332   0.266   6.940
 9986WAT     H130200   4.381   0.241   6.856
 9986WAT     H230201   4.397   0.279   7.014
 9987WAT      O30202   9.587   1.822   2.705
 9987WAT     H130203   9.671   1.817   2.652
 9987WAT     H230204   9.530   1.742   2.686
 9988WAT      O30205   8.827   6.692   8.094
 9988WAT     H130206   8.746   6.635   8.080
 9988WAT     H230207   8.907   6.647   8.054
 9989WAT      O30208   8.327   5.061   6.778
 9989WAT     H130209   8.293   5.101   6.692
 9989WAT     H230210   8.351   5.134   6.841
 9990WAT      O30211   0.703   1.907   2.095
 9990WAT     H130212   0.641   1.923   2.018
 9990WAT     H230213   0.786   1.961   2.083
 9991WAT      O30214   1.866   8.126   2.997
 9991WAT     H130215   1.788   8.127   3.059
 9991WAT     H230216   1.931   8.197   3.023
 9992WAT      O30217   2.931   8.643   1.741
 9992WAT     H130218   2.986   8.581   1.797
 9992WAT     H230219   2.984   8.726   1.721
 9993WAT      O30220   4.105   9.813   1.969
 9993WAT     H130221   4.182   9.797   2.031
 9993WAT     H230222   4.113   9.905   1.930
 9994WAT      O30223   7.030   9.295   5.053
 9994WAT     H130224   6.981   9.318   4.969
 9994WAT     H230225   6.983   9.220   5.100
 9995WAT      O30226   0.306   9.096   7.393
 9995WAT     H130227   0.387   9.120   7.447
 9995WAT     H230228   0.266   9.179   7.355
 9996WAT      O30229   8.389   5.663   0.570
 9996WAT     H130230   8.421   5.643   0.477
 9996WAT     H230231   8.446   5.736   0.609
 9997WAT      O30232   8.669   0.093   3.114
 9997WAT     H130233   8.717   0.169   3.158
 9997WAT     H230234   8.605   0.128   3.046
 9998WAT      O30235   5.388   3.548   7.867
 9998WAT     H130236   5.482   3.524   7.844
 9998WAT     H230237   5.328   3.524   7.790
 9999WAT      O30238   7.551   0.678   3.346
 9999WAT     H130239   7.503   0.761   3.316
 9999WAT     H230240   7.607   0.642   3.271
10000WAT      O30241   2.354   2.070   8.709
10000WAT     H130242   2.260   2.103   8.719
10000WAT     H230243   2.366   2.032   8.617
10001WAT      O30244   1.572   0.555   5.879
10001WAT     H130245   1.520   0.639   5.868
10001WAT     H230246   1.519   0.478   5.843
10002WAT      O30247   0.387   2.289   0.422
10002WAT     H130248   0.429   2.213   0.471
10002WAT     H230249   0.457   2.355   0.397
10003WAT      O30250   6.370   4.248   5.318
10003WAT     H130251   6.305   4.178   5.348
10003WAT     H230252   6.454   4.239   5.371
10004WAT      O30253   2.371   4.556   6.997
10004WAT     H130254   2.288   4.531   6.948
10004WAT     H230255   2.386   4.654   6.990
10005WAT      O30256   7.977   7.930   2.026
10005WAT     H130257   7.910   8.003   2.010
10005WAT     H230258   8.064   7.970   2.055
10006WAT      O30259   2.114   0.664   0.572
10006WAT     H130260   2.105   0.575   0.616
10006WAT     H230261   2.047   0.727   0.612
10007WAT      O30262   3.022   3.221   9.364
10007WAT     H130263   3.064   3.224   9.455
10007WAT     H230264   2.960   3.142   9.359
10008WAT      O30265   9.462   3.940   3.226
10008WAT     H130266   9.482   3.868   3.293
10008WAT     H230267   9.455   4.028   3.273
10009WAT      O30268   7.209   9.454   0.223
10009WAT     H130269   7.270   9.531   0.200
10009WAT     H230270   7.117   9.489   0.238
10010WAT      O30271   2.410   7.405   9.050
10010WAT     H130272   2.345   7.348   9.000
10010WAT     H230273   2.503   7.378   9.028
10011WAT      O30274   7.842   6.776   3.564
10011WAT     H130275   7.914   6.780   3.495
10011WAT     H230276   7.878   6.810   3.651
10012WAT      O30277   5.515   9.528   9.105
10012WAT     H130278   5.440   9.476   9.065
10012WAT     H230279   5.552   9.479   9.184
10013WAT      O30280   6.409   7.509   5.340
10013WAT     H130281   6.403   7.418   5.299
10013WAT     H230282   6.450   7.502   5.431
10014WAT      O30283   8.651   2.463   5.789
10014WAT     H130284   8.726   2.515   5.749
10014WAT     H230285   8.581   2.526   5.822
10015WAT      O30286   3.588   5.204   0.288
10015WAT     H130287   3.611   5.160   0.201
10015WAT     H230288   3.617   5.145   0.364
10016WAT      O30289   3.109   1.578   0.439
10016WAT     H130290   3.187   1.590   0.378
10016WAT     H230291   3.131   1.508   0.507
10017WAT      O30292   2.172   6.011   7.073
10017WAT     H130293   2.189   5.945   7.000
10017WAT     H230294   2.160   5.963   7.160
10018WAT      O30295   8.279   8.296   3.208
10018WAT     H130296   8.213   8.364   3.175
10018WAT     H230297   8.266   8.211   3.157
10019WAT      O30298   4.704   7.819   9.087
10019WAT     H130299   4.687   7.733   9.039
10019WAT     H230300   4.617   7.866   9.102
10020WAT      O30301   2.261   8.859   9.014
10020WAT     H130302   2.301   8.770   9.037
10020WAT     H230303   2.162   8.849   9.005
10021WAT      O30304   7.155   4.458   9.220
10021WAT     H130305   7.222   4.526   9.249
10021WAT     H230306   7.169   4.374   9.271
10022WAT      O30307   1.986   0.184   0.590
10022WAT     H130308   2.011   0.259   0.528
10022WAT     H230309   1.962   0.221   0.679
10023WAT      O30310   7.194   7.163   0.649
10023WAT     H130311   7.248   7.080   0.643
10023WAT     H230312   7.248   7.236   0.691
10024WAT      O30313   4.163   9.314   1.425
10024WAT     H130314   4.104   9.240   1.390
10024WAT     H230315   4.106   9.387   1.461
10025WAT      O30316   3.237   0.275   1.163
10025WAT     H130317   3.247   0.370   1.195
10025WAT     H230318   3.187   0.222   1.232
10026WAT      O30319   4.617   1.884   1.446
10026WAT     H130320   4.569   1.797   1.437
10026WAT     H230321   4.617   1.913   1.541
10027WAT      O30322   6.210   8.349   5.224
10027WAT     H130323   6.246   8.281   5.160
10027WAT     H230324   6.224   8.440   5.186
10028WAT      O30325   7.338   8.216   5.845
10028WAT     H130326   7.297   8.298   5.804
10028WAT     H230327   7.266   8.153   5.874
10029WAT      O30328   9.219   6.181   3.386
10029WAT     H130329   9.306   6.158   3.430
10029WAT     H230330   9.215   6.280   3.370
10030WAT      O30331   0.695   8.789   2.960
10030WAT     H130332   0.708   8.765   2.864
10030WAT     H230333   0.784   8.789   3.006
10031WAT      O30334   5.395   1.781   7.534
10031WAT     H130335   5.465   1.717   7.503
10031WAT     H230336   5.412   1.870   7.493
10032WAT      O30337   9.551   3.318   7.758
10032WAT     H130338   9.599   3.390   7.709
10032WAT     H230339   9.538   3.346   7.853
10033WAT      O30340   9.691   0.189   7.363
10033WAT     H130341   9.703   0.226   7.456
10033WAT     H230342   9.730   0.253   7.297
10034WAT      O30343   3.062   1.339   6.995
10034WAT     H130344   3.058   1.255   7.049
10034WAT     H230345   3.137   1.333   6.930
10035WAT      O30346   9.318   6.293   5.606
10035WAT     H130347   9.404   6.307   5.656
10035WAT     H230348   9.285   6.380   5.571
10036WAT      O30349   4.538   2.970   5.507
10036WAT     H130350   4.511   2.886   5.460
10036WAT     H230351   4.624   2.954   5.556
10037WAT      O30352   6.667   3.397   9.688
10037WAT     H130353   6.679   3.495   9.678
10037WAT     H230354   6.572   3.376   9.711
10038WAT      O30355   4.070   0.636   4.060
10038WAT     H130356   3.991   0.691   4.087
10038WAT     H230357   4.151   0.694   4.055
10039WAT      O30358   3.535   4.435   2.049
10039WAT     H130359   3.550   4.516   1.992
10039WAT     H230360   3.555   4.353   1.996
10040WAT      O30361   4.713   9.190   4.846
10040WAT     H130362   4.730   9.210   4.943
10040WAT     H230363   4.795   9.147   4.807
10041WAT      O30364   9.766   0.778   7.730
10041WAT     H130365   9.837   0.833   7.773
10041WAT     H230366   9.695   0.839   7.692
10042WAT      O30367   0.742   6.191   7.439
10042WAT     H130368   0.644   6.204   7.449
10042WAT     H230369   0.770   6.107   7.486
10043WAT      O30370   8.989   2.825   1.141
10043WAT     H130371   9.088   2.818   1.156
10043WAT     H230372   8.940   2.808   1.226
10044WAT      O30373   9.604   9.761   2.489
10044WAT     H130374   9.554   9.835   2.532
10044WAT     H230375   9.627   9.692   2.558
10045WAT      O30376   1.402   1.801   6.446
10045WAT     H130377   1.363   1.709   6.438
10045WAT     H230378   1.333   1.863   6.483
10046WAT      O30379   2.629   2.794   9.369
10046WAT     H130380   2.625   2.804   9.468
10046WAT     H230381   2.696   2.723   9.345
10047WAT      O30382   3.308   6.253   9.757
10047WAT     H130383   3.366   6.285   9.832
10047WAT     H230384   3.332   6.159   9.734
10048WAT      O30385   6.256   8.607   7.753
10048WAT     H130386   6.168   8.632   7.715
10048WAT     H230387   6.297   8.535   7.698
10049WAT      O30388   0.841   7.553   2.160
10049WAT     H130389   0.895   7.627   2.118
10049WAT     H230390   0.824   7.482   2.092
10050WAT      O30391   4.632   3.161   3.369
10050WAT     H130392   4.729   3.143   3.353
10050WAT     H230393   4.613   3.161   3.467
10051WAT      O30394   9.830   7.584   7.564
10051WAT     H130395   9.745   7.546   7.529
10051WAT     H230396   9.907   7.550   7.510
10052WAT      O30397   2.983   7.128   1.865
10052WAT     H130398   3.059   7.192   1.864
10052WAT     H230399   2.961   7.100   1.771
10053WAT      O30400   9.874   2.284   6.817
10053WAT     H130401   9.891   2.344   6.739
10053WAT     H230402   9.948   2.294   6.884
10054WAT      O30403   0.493   6.282   8.408
10054WAT     H130404   0.425   6.209   8.407
10054WAT     H230405   0.491   6.331   8.321
10055WAT      O30406   3.320   1.087   5.817
10055WAT     H130407   3.372   1.172   5.807
10055WAT     H230408   3.378   1.009   5.792
10056WAT      O30409   7.181   5.240   5.864
10056WAT     H130410   7.227   5.292   5.936
10056WAT     H230411   7.123   5.302   5.812
10057WAT      O30412   6.944   0.810   7.207
10057WAT     H130413   6.941   0.758   7.122
10057WAT     H230414   6.860   0.864   7.216
10058WAT      O30415   1.034   5.516   1.964
10058WAT     H130416   1.049   5.419   1.946
10058WAT     H230417   0.964   5.551   1.901
10059WAT      O30418   1.730   4.725   0.450
10059WAT     H130419   1.756   4.694   0.542
10059WAT     H230420   1.685   4.650   0.401
10060WAT      O30421   8.090   4.724   0.433
10060WAT     H130422   8.040   4.721   0.346
10060WAT     H230423   8.186   4.745   0.415
10061WAT      O30424   1.568   8.245   0.473
10061WAT     H130425   1.572   8.189   0.390
10061WAT     H230426   1.658   8.286   0.489
10062WAT      O30427   3.131   6.108   9.355
10062WAT     H130428   3.164   6.046   9.284
10062WAT     H230429   3.083   6.185   9.312
10063WAT      O30430   7.910   8.589   6.950
10063WAT     H130431   7.873   8.511   7.000
10063WAT     H230432   7.860   8.672   6.976
10064WAT      O30433   8.386   9.185   6.808
10064WAT     H130434   8.461   9.152   6.865
10064WAT     H230435   8.303   9.196   6.863
10065WAT      O30436   3.751   9.711   4.241
10065WAT     H130437   3.819   9.778   4.211
10065WAT     H230438   3.748   9.710   4.341
10066WAT      O30439   6.029   7.945   5.533
10066WAT     H130440   6.021   7.944   5.632
10066WAT     H230441   6.096   8.015   5.505
10067WAT      O30442   1.087   0.851   0.281
10067WAT     H130443   1.003   0.890   0.241
10067WAT     H230444   1.089   0.870   0.379
10068WAT      O30445   5.936   8.665   8.764
10068WAT     H130446   5.906   8.576   8.800
10068WAT     H230447   5.883   8.687   8.682
10069WAT      O30448   1.566   6.072   3.324
10069WAT     H130449   1.666   6.076   3.314
10069WAT     H230450   1.535   5.980   3.302
10070WAT      O30451   2.273   2.656   0.527
10070WAT     H130452   2.346   2.724   0.536
10070WAT     H230453   2.279   2.591   0.603
10071WAT      O30454   6.896   1.738   4.521
10071WAT     H130455   6.961   1.779   4.585
10071WAT     H230456   6.934   1.652   4.486
10072WAT      O30457   6.335   3.260   4.197
10072WAT     H130458   6.341   3.313   4.112
10072WAT     H230459   6.394   3.302   4.266
10073WAT      O30460   8.386   7.336   9.282
10073WAT     H130461   8.325   7.329   9.361
10073WAT     H230462   8.338   7.380   9.206
10074WAT      O30463   9.242   2.992   8.539
10074WAT     H130464   9.187   2.980   8.456
10074WAT     H230465   9.192   2.953   8.617
10075WAT      O30466   6.822   5.178   8.459
10075WAT     H130467   6.890   5.250   8.463
10075WAT     H230468   6.865   5.090   8.481
10076WAT      O30469   9.301   4.725   5.331
10076WAT     H130470   9.343   4.813   5.354
10076WAT     H230471   9.371   4.653   5.333
10077WAT      O30472   4.778   9.096   3.093
10077WAT     H130473   4.813   9.015   3.046
10077WAT     H230474   4.698   9.131   3.044
10078WAT      O30475   0.752   0.705   3.342
10078WAT     H130476   0.709   0.786   3.382
10078WAT     H230477   0.785   0.726   3.250
10079WAT      O30478   8.613   9.601   5.976
10079WAT     H130479   8.644   9.622   6.069
10079WAT     H230480   8.606   9.685   5.923
10080WAT      O30481   4.703   1.040   9.013
10080WAT     H130482   4.637   0.966   9.029
10080WAT     H230483   4.748   1.063   9.099
10081WAT      O30484   1.897   7.611   0.726
10081WAT     H130485   1.935   7.592   0.816
10081WAT     H230486   1.916   7.534   0.665
10082WAT      O30487   6.310   8.513   4.829
10082WAT     H130488   6.303   8.535   4.926
10082WAT     H230489   6.270   8.423   4.812
10083WAT      O30490   6.844   0.009   0.434
10083WAT     H130491   6.753   0.033   0.400
10083WAT     H230492   6.847   0.026   0.533
10084WAT      O30493   6.172   0.556   0.735
10084WAT     H130494   6.224   0.498   0.671
10084WAT     H230495   6.232   0.584   0.810
10085WAT      O30496   6.496   4.706   5.271
10085WAT     H130497   6.436   4.783   5.295
10085WAT     H230498   6.581   4.741   5.232
10086WAT      O30499   9.522   7.730   5.714
10086WAT     H130500   9.565   7.643   5.688
10086WAT     H230501   9.526   7.741   5.813
10087WAT      O30502   0.235   0.009   7.904
10087WAT     H130503   0.190  -0.050   7.837
10087WAT     H230504   0.330   0.022   7.878
10088WAT      O30505   6.746   1.095   6.715
10088WAT     H130506   6.672   1.084   6.649
10088WAT     H230507   6.815   1.158   6.678
10089WAT      O30508   4.215   4.049   6.733
10089WAT     H130509   4.305   4.020   6.702
10089WAT     H230510   4.175   4.111   6.666
10090WAT      O30511   7.928   9.103   3.279
10090WAT     H130512   7.896   9.057   3.361
10090WAT     H230513   7.907   9.201   3.285
10091WAT      O30514   5.687   4.154   3.944
10091WAT     H130515   5.712   4.146   3.847
10091WAT     H230516   5.721   4.074   3.994
10092WAT      O30517   9.742   7.618   6.938
10092WAT     H130518   9.676   7.599   6.865
10092WAT     H230519   9.695   7.661   7.015
10093WAT      O30520   0.057   9.509   4.385
10093WAT     H130521  -0.019   9.463   4.339
10093WAT     H230522   0.093   9.581   4.325
10094WAT      O30523   2.605   4.274   4.115
10094WAT     H130524   2.543   4.310   4.045
10094WAT     H230525   2.566   4.191   4.155
10095WAT      O30526   0.461   8.469   2.980
10095WAT     H130527   0.450   8.455   3.078
10095WAT     H230528   0.439   8.564   2.957
10096WAT      O30529   0.608   0.027   0.987
10096WAT     H130530   0.602   0.090   1.064
10096WAT     H230531   0.671   0.063   0.919
10097WAT      O30532   9.442   0.461   3.864
10097WAT     H130533   9.463   0.461   3.962
10097WAT     H230534   9.424   0.555   3.834
10098WAT      O30535   6.504   2.336   8.131
10098WAT     H130536   6.405   2.322   8.126
10098WAT     H230537   6.551   2.248   8.120
10099WAT      O30538   3.698   2.617   5.117
10099WAT     H130539   3.719   2.690   5.052
10099WAT     H230540   3.751   2.535   5.094
10100WAT      O30541   5.124   4.439   9.497
10100WAT     H130542   5.158   4.356   9.453
10100WAT     H230543   5.189   4.514   9.483
10101WAT      O30544   8.413   9.376   4.012
10101WAT     H130545   8.430   9.448   4.080
10101WAT     H230546   8.333   9.401   3.957
10102WAT      O30547   7.609   5.296   9.733
10102WAT     H130548   7.708   5.286   9.719
10102WAT     H230549   7.592   5.326   9.826
10103WAT      O30550   2.691   5.336   9.549
10103WAT     H130551   2.742   5.322   9.634
10103WAT     H230552   2.663   5.247   9.512
10104WAT      O30553   6.942   8.610   5.149
10104WAT     H130554   6.990   8.688   5.190
10104WAT     H230555   6.969   8.601   5.054
10105WAT      O30556   9.207   2.595   6.335
10105WAT     H130557   9.183   2.555   6.424
10105WAT     H230558   9.124   2.630   6.291
10106WAT      O30559   6.972   4.642   8.819
10106WAT     H130560   6.917   4.723   8.840
10106WAT     H230561   6.955   4.614   8.724
10107WAT      O30562   3.397   0.237   4.745
10107WAT     H130563   3.342   0.294   4.684
10107WAT     H230564   3.385   0.267   4.840
10108WAT      O30565   7.033   4.541   6.703
10108WAT     H130566   7.013   4.621   6.760
10108WAT     H230567   7.102   4.484   6.748
10109WAT      O30568   7.426   6.001   5.597
10109WAT     H130569   7.374   5.958   5.523
10109WAT     H230570   7.363   6.056   5.654
10110WAT      O30571   2.405   0.700   6.364
10110WAT     H130572   2.492   0.704   6.413
10110WAT     H230573   2.350   0.780   6.386
10111WAT      O30574   4.984   6.685   2.394
10111WAT     H130575   4.886   6.702   2.385
10111WAT     H230576   5.000   6.587   2.411
10112WAT      O30577   9.551   0.035   1.430
10112WAT     H130578   9.596  -0.020   1.360
10112WAT     H230579   9.480   0.091   1.388
10113WAT      O30580   3.245   8.449   2.579
10113WAT     H130581   3.190   8.525   2.544
10113WAT     H230582   3.332   8.485   2.614
10114WAT      O30583   1.359   3.774   9.459
10114WAT     H130584   1.365   3.873   9.445
10114WAT     H230585   1.375   3.727   9.372
10115WAT      O30586   5.727   8.435   9.796
10115WAT     H130587   5.751   8.500   9.724
10115WAT     H230588   5.645   8.384   9.769
10116WAT      O30589   9.763   7.552   1.323
10116WAT     H130590   9.728   7.635   1.366
10116WAT     H230591   9.816   7.575   1.242
10117WAT      O30592   1.110   8.477   8.050
10117WAT     H130593   1.204   8.469   8.083
10117WAT     H230594   1.073   8.566   8.076
10118WAT      O30595   4.371   0.382   3.727
10118WAT     H130596   4.402   0.297   3.685
10118WAT     H230597   4.295   0.420   3.674
10119WAT      O30598   8.337   2.713   0.907
10119WAT     H130599   8.267   2.724   0.977
10119WAT     H230600   8.306   2.756   0.822
10120WAT      O30601   3.727   7.384   7.287
10120WAT     H130602   3.801   7.342   7.340
10120WAT     H230603   3.693   7.464   7.336
10121WAT      O30604   7.522   6.640   7.173
10121WAT     H130605   7.467   6.608   7.250
10121WAT     H230606   7.493   6.733   7.148
10122WAT      O30607   4.950   2.717   4.685
10122WAT     H130608   5.024   2.748   4.625
10122WAT     H230609   4.962   2.620   4.706
10123WAT      O30610   2.062   7.359   2.471
10123WAT     H130611   2.036   7.305   2.552
10123WAT     H230612   2.083   7.452   2.499
10124WAT      O30613   6.070   7.811   7.569
10124WAT     H130614   5.987   7.864   7.554
10124WAT     H230615   6.086   7.751   7.490
10125WAT      O30616   1.678   4.394   5.360
10125WAT     H130617   1.682   4.459   5.436
10125WAT     H230618   1.770   4.360   5.341
10126WAT      O30619   6.507   4.628   4.705
10126WAT     H130620   6.462   4.611   4.793
10126WAT     H230621   6.477   4.561   4.638
10127WAT      O30622   1.048   1.003   2.882
10127WAT     H130623   1.091   0.935   2.823
10127WAT     H230624   1.046   0.970   2.976
10128WAT      O30625   7.406   8.465   0.586
10128WAT     H130626   7.366   8.548   0.547
10128WAT     H230627   7.472   8.427   0.523
10129WAT      O30628   6.172   5.035   1.981
10129WAT     H130629   6.171   5.119   2.036
10129WAT     H230630   6.266   5.014   1.954
10130WAT      O30631   9.370   1.770   3.503
10130WAT     H130632   9.314   1.846   3.471
10130WAT     H230633   9.419   1.730   3.425
10131WAT      O30634   2.145   8.093   2.259
10131WAT     H130635   2.130   8.190   2.240
10131WAT     H230636   2.242   8.076   2.275
10132WAT      O30637   0.397   0.377   8.813
10132WAT     H130638   0.430   0.371   8.908
10132WAT     H230639   0.316   0.436   8.810
10133WAT      O30640   2.150   3.397   9.666
10133WAT     H130641   2.196   3.467   9.612
10133WAT     H230642   2.147   3.425   9.762
10134WAT      O30643   5.917   5.805   1.785
10134WAT     H130644   5.944   5.895   1.752
10134WAT     H230645   5.835   5.775   1.736
10135WAT      O30646   5.494   9.600   3.696
10135WAT     H130647   5.542   9.513   3.709
10135WAT     H230648   5.463   9.634   3.785
10136WAT      O30649   6.031   4.270   0.101
10136WAT     H130650   6.075   4.186   0.131
10136WAT     H230651   5.938   4.251   0.070
10137WAT      O30652   1.669   1.399   0.454
10137WAT     H130653   1.617   1.485   0.456
10137WAT     H230654   1.614   1.327   0.496
10138WAT      O30655   6.522   3.603   2.024
10138WAT     H130656   6.487   3.687   1.983
10138WAT     H230657   6.620   3.594   2.003
10139WAT      O30658   1.676   5.968   1.273
10139WAT     H130659   1.624   5.940   1.192
10139WAT     H230660   1.764   5.922   1.273
10140WAT      O30661   9.450   8.862   1.530
10140WAT     H130662   9.511   8.837   1.605
10140WAT     H230663   9.384   8.931   1.561
10141WAT      O30664   1.528   6.979   8.116
10141WAT     H130665   1.587   7.058   8.100
10141WAT     H230666   1.433   7.008   8.117
10142WAT      O30667   1.845   9.418   0.668
10142WAT     H130668   1.819   9.489   0.733
10142WAT     H230669   1.763   9.383   0.622
10143WAT      O30670   5.589   0.014   6.008
10143WAT     H130671   5.522   0.020   6.082
10143WAT     H230672   5.609  -0.082   5.988
10144WAT      O30673   2.448   2.170   4.349
10144WAT     H130674   2.463   2.088   4.294
10144WAT     H230675   2.531   2.227   4.348
10145WAT      O30676   1.641   7.983   5.568
10145WAT     H130677   1.721   8.042   5.561
10145WAT     H230678   1.561   8.031   5.531
10146WAT      O30679   9.657   8.085   1.229
10146WAT     H130680   9.608   8.088   1.142
10146WAT     H230681   9.600   8.041   1.298
10147WAT      O30682   3.425   6.185   2.389
10147WAT     H130683   3.329   6.212   2.383
10147WAT     H230684   3.442   6.145   2.479
10148WAT      O30685   6.606   6.993   1.907
10148WAT     H130686   6.547   7.029   1.834
10148WAT     H230687   6.563   7.009   1.996
10149WAT      O30688   2.252   0.203   9.241
10149WAT     H130689   2.236   0.219   9.143
10149WAT     H230690   2.186   0.135   9.273
10150WAT      O30691   9.783   8.911   5.045
10150WAT     H130692   9.848   8.859   4.990
10150WAT     H230693   9.699   8.925   4.993
10151WAT      O30694   8.582   0.890   6.351
10151WAT     H130695   8.536   0.803   6.336
10151WAT     H230696   8.680   0.874   6.364
10152WAT      O30697   2.955   2.374   8.773
10152WAT     H130698   3.032   2.378   8.836
10152WAT     H230699   2.870   2.358   8.823
10153WAT      O30700   3.969   6.877   9.145
10153WAT     H130701   3.870   6.888   9.134
10153WAT     H230702   4.008   6.833   9.064
10154WAT      O30703   8.655   3.242   6.404
10154WAT     H130704   8.584   3.297   6.359
10154WAT     H230705   8.732   3.228   6.341
10155WAT      O30706   3.409   3.978   0.564
10155WAT     H130707   3.316   3.974   0.528
10155WAT     H230708   3.454   3.890   0.549
10156WAT      O30709   5.839   1.275   5.228
10156WAT     H130710   5.753   1.240   5.191
10156WAT     H230711   5.883   1.334   5.161
10157WAT      O30712   3.522   7.672   2.839
10157WAT     H130713   3.522   7.649   2.936
10157WAT     H230714   3.433   7.652   2.800
10158WAT      O30715   7.407   0.861   5.381
10158WAT     H130716   7.360   0.803   5.447
10158WAT     H230717   7.344   0.930   5.345
10159WAT      O30718   6.474   7.873   4.283
10159WAT     H130719   6.393   7.908   4.235
10159WAT     H230720   6.556   7.896   4.231
10160WAT      O30721   2.344   1.831   1.937
10160WAT     H130722   2.292   1.754   1.901
10160WAT     H230723   2.442   1.813   1.928
10161WAT      O30724   0.465   6.554   4.497
10161WAT     H130725   0.489   6.646   4.528
10161WAT     H230726   0.419   6.560   4.408
10162WAT      O30727   8.432   2.109   1.872
10162WAT     H130728   8.390   2.196   1.897
10162WAT     H230729   8.490   2.121   1.792
10163WAT      O30730   3.829   0.767   7.268
10163WAT     H130731   3.869   0.686   7.226
10163WAT     H230732   3.852   0.848   7.213
10164WAT      O30733   0.875   5.881   0.173
10164WAT     H130734   0.780   5.849   0.170
10164WAT     H230735   0.933   5.810   0.213
10165WAT      O30736   3.231   1.424   0.955
10165WAT     H130737   3.278   1.376   1.029
10165WAT     H230738   3.286   1.501   0.924
10166WAT      O30739   6.357   8.140   2.089
10166WAT     H130740   6.269   8.167   2.049
10166WAT     H230741   6.352   8.045   2.119
10167WAT      O30742   0.751   1.008   8.158
10167WAT     H130743   0.706   1.093   8.185
10167WAT     H230744   0.751   1.000   8.059
10168WAT      O30745   8.966   2.706   4.458
10168WAT     H130746   9.009   2.684   4.546
10168WAT     H230747   8.905   2.632   4.432
10169WAT      O30748   9.071   9.293   5.269
10169WAT     H130749   9.169   9.275   5.272
10169WAT     H230750   9.026   9.228   5.208
10170WAT      O30751   3.859   3.636   8.794
10170WAT     H130752   3.821   3.624   8.703
10170WAT     H230753   3.785   3.650   8.860
10171WAT      O30754   6.917   5.631   5.565
10171WAT     H130755   6.853   5.618   5.489
10171WAT     H230756   6.870   5.680   5.639
10172WAT      O30757   5.123   4.293   5.595
10172WAT     H130758   5.152   4.253   5.682
10172WAT     H230759   5.032   4.258   5.571
10173WAT      O30760   9.433   8.131   7.767
10173WAT     H130761   9.532   8.134   7.783
10173WAT     H230762   9.405   8.036   7.753
10174WAT      O30763   8.240   0.541   5.988
10174WAT     H130764   8.223   0.462   6.046
10174WAT     H230765   8.270   0.511   5.897
10175WAT      O30766   2.229   9.223   7.088
10175WAT     H130767   2.183   9.138   7.113
10175WAT     H230768   2.165   9.300   7.093
10176WAT      O30769   5.085   1.165   1.906
10176WAT     H130770   5.043   1.075   1.898
10176WAT     H230771   5.160   1.161   1.972
10177WAT      O30772   4.948   6.821   3.966
10177WAT     H130773   4.901   6.859   4.046
10177WAT     H230774   4.880   6.791   3.899
10178WAT      O30775   6.357   2.927   3.177
10178WAT     H130776   6.272   2.972   3.203
10178WAT     H230777   6.378   2.948   3.081
10179WAT      O30778   6.712   2.728   7.276
10179WAT     H130779   6.707   2.773   7.187
10179WAT     H230780   6.703   2.629   7.264
10180WAT      O30781   4.425   1.879   6.760
10180WAT     H130782   4.397   1.971   6.787
10180WAT     H230783   4.518   1.882   6.724
10181WAT      O30784   8.312   6.194   7.554
10181WAT     H130785   8.344   6.171   7.462
10181WAT     H230786   8.305   6.110   7.608
10182WAT      O30787   0.718   1.522   1.295
10182WAT     H130788   0.719   1.473   1.208
10182WAT     H230789   0.807   1.510   1.340
10183WAT      O30790   2.893   8.855   8.535
10183WAT     H130791   2.837   8.908   8.470
10183WAT     H230792   2.842   8.775   8.565
10184WAT      O30793   3.403   8.577   5.313
10184WAT     H130794   3.404   8.646   5.241
10184WAT     H230795   3.453   8.613   5.393
10185WAT      O30796   5.051   6.837   0.238
10185WAT     H130797   5.040   6.773   0.314
10185WAT     H230798   4.971   6.897   0.233
10186WAT      O30799   1.733   1.841   6.698
10186WAT     H130800   1.711   1.770   6.764
10186WAT     H230801   1.830   1.834   6.672
10187WAT      O30802   6.841   7.177   4.786
10187WAT     H130803   6.812   7.102   4.845
10187WAT     H230804   6.934   7.204   4.811
10188WAT      O30805   5.105   3.095   7.101
10188WAT     H130806   5.059   3.165   7.155
10188WAT     H230807   5.189   3.134   7.061
10189WAT      O30808   5.944   0.578   5.072
10189WAT     H130809   5.880   0.519   5.023
10189WAT     H230810   5.951   0.547   5.167
10190WAT      O30811   1.573   0.106   8.954
10190WAT     H130812   1.614   0.192   8.922
10190WAT     H230813   1.580   0.101   9.054
10191WAT      O30814   1.034   5.816   9.614
10191WAT     H130815   1.058   5.835   9.709
10191WAT     H230816   1.113   5.776   9.567
10192WAT      O30817   3.923   1.196   0.928
10192WAT     H130818   3.936   1.149   0.841
10192WAT     H230819   4.009   1.238   0.956
10193WAT      O30820   9.101   7.276   4.237
10193WAT     H130821   9.200   7.268   4.225
10193WAT     H230822   9.061   7.319   4.156
10194WAT      O30823   6.726   7.674   2.789
10194WAT     H130824   6.630   7.697   2.775
10194WAT     H230825   6.756   7.707   2.879
10195WAT      O30826   2.288   2.712   7.082
10195WAT     H130827   2.188   2.717   7.083
10195WAT     H230828   2.327   2.800   7.110
10196WAT      O30829   5.063   1.892   9.852
10196WAT     H130830   5.131   1.922   9.919
10196WAT     H230831   5.032   1.970   9.798
10197WAT      O30832   4.331   6.230   2.688
10197WAT     H130833   4.295   6.245   2.596
10197WAT     H230834   4.268   6.171   2.739
10198WAT      O30835   2.710   0.704   6.146
10198WAT     H130836   2.718   0.606   6.126
10198WAT     H230837   2.614   0.731   6.139
10199WAT      O30838   4.528   5.088   7.763
10199WAT     H130839   4.617   5.043   7.750
10199WAT     H230840   4.540   5.187   7.752
10200WAT      O30841   4.596   7.274   6.425
10200WAT     H130842   4.638   7.358   6.390
10200WAT     H230843   4.624   7.260   6.520
10201WAT      O30844   8.589   3.888   4.696
10201WAT     H130845   8.658   3.935   4.642
10201WAT     H230846   8.609   3.899   4.794
10202WAT      O30847   0.255   1.361   8.088
10202WAT     H130848   0.237   1.268   8.055
10202WAT     H230849   0.319   1.406   8.026
10203WAT      O30850   8.461   8.246   2.154
10203WAT     H130851   8.407   8.330   2.159
10203WAT     H230852   8.500   8.237   2.063
10204WAT      O30853   0.119   1.509   3.858
10204WAT     H130854   0.133   1.546   3.766
10204WAT     H230855   0.124   1.409   3.855
10205WAT      O30856   1.505   7.867   0.249
10205WAT     H130857   1.414   7.907   0.264
10205WAT     H230858   1.531   7.813   0.330
10206WAT      O30859   3.773   2.564   3.613
10206WAT     H130860   3.720   2.556   3.698
10206WAT     H230861   3.844   2.493   3.611
10207WAT      O30862   7.971   8.268   2.212
10207WAT     H130863   8.021   8.301   2.292
10207WAT     H230864   7.922   8.184   2.236
10208WAT      O30865   5.547   1.526   7.495
10208WAT     H130866   5.461   1.529   7.546
10208WAT     H230867   5.607   1.457   7.535
10209WAT      O30868   9.472   9.108   9.247
10209WAT     H130869   9.388   9.089   9.298
10209WAT     H230870   9.457   9.187   9.187
10210WAT      O30871   1.247   7.356   4.744
10210WAT     H130872   1.216   7.351   4.839
10210WAT     H230873   1.168   7.370   4.684
10211WAT      O30874   1.097   2.359   4.283
10211WAT     H130875   1.136   2.275   4.321
10211WAT     H230876   1.163   2.434   4.291
10212WAT      O30877   8.217  -0.003   4.731
10212WAT     H130878   8.314  -0.008   4.755
10212WAT     H230879   8.184   0.090   4.748
10213WAT      O30880   4.247   7.243   4.840
10213WAT     H130881   4.328   7.185   4.836
10213WAT     H230882   4.170   7.191   4.877
10214WAT      O30883   5.121   4.968   5.893
10214WAT     H130884   5.035   5.002   5.856
10214WAT     H230885   5.197   5.018   5.851
10215WAT      O30886   6.834   4.464   3.164
10215WAT     H130887   6.823   4.433   3.070
10215WAT     H230888   6.866   4.388   3.221
10216WAT      O30889   6.061   2.379   2.251
10216WAT     H130890   6.051   2.423   2.340
10216WAT     H230891   6.016   2.290   2.253
10217WAT      O30892   0.993   0.777   1.539
10217WAT     H130893   1.008   0.679   1.554
10217WAT     H230894   0.967   0.792   1.444
10218WAT      O30895   0.162   1.928   6.276
10218WAT     H130896   0.095   1.857   6.298
10218WAT     H230897   0.235   1.926   6.345
10219WAT      O30898   0.187   5.607   4.562
10219WAT     H130899   0.088   5.599   4.575
10219WAT     H230900   0.229   5.516   4.569
10220WAT      O30901   8.891   5.256   6.647
10220WAT     H130902   8.795   5.259   6.618
10220WAT     H230903   8.902   5.311   6.730
10221WAT      O30904   5.569   4.908   0.131
10221WAT     H130905   5.538   4.861   0.214
10221WAT     H230906   5.519   4.994   0.120
10222WAT      O30907   2.399   3.907   2.120
10222WAT     H130908   2.481   3.867   2.160
10222WAT     H230909   2.343   3.949   2.191
10223WAT      O30910   1.151   8.210   3.433
10223WAT     H130911   1.215   8.187   3.360
10223WAT     H230912   1.170   8.302   3.467
10224WAT      O30913   0.328   8.690   5.701
10224WAT     H130914   0.367   8.658   5.787
10224WAT     H230915   0.379   8.770   5.669
10225WAT      O30916   0.586   6.375   0.512
10225WAT     H130917   0.622   6.299   0.566
10225WAT     H230918   0.505   6.413   0.558
10226WAT      O30919   4.593   7.938   1.630
10226WAT     H130920   4.688   7.968   1.638
10226WAT     H230921   4.553   7.927   1.721
10227WAT      O30922   6.896   3.976   4.141
10227WAT     H130923   6.866   3.994   4.047
10227WAT     H230924   6.856   3.890   4.173
10228WAT      O30925   7.275   8.294   3.412
10228WAT     H130926   7.242   8.252   3.497
10228WAT     H230927   7.365   8.256   3.389
10229WAT      O30928   6.084   3.189   4.299
10229WAT     H130929   6.088   3.258   4.372
10229WAT     H230930   6.172   3.187   4.251
10230WAT      O30931   1.985   0.384   0.077
10230WAT     H130932   1.937   0.452   0.021
10230WAT     H230933   1.930   0.364   0.158
10231WAT      O30934   4.266   2.681   4.494
10231WAT     H130935   4.359   2.658   4.523
10231WAT     H230936   4.222   2.736   4.565
10232WAT      O30937   9.096   3.532   6.851
10232WAT     H130938   9.177   3.572   6.894
10232WAT     H230939   9.093   3.558   6.755
10233WAT      O30940   1.741   1.052   8.168
10233WAT     H130941   1.692   1.139   8.160
10233WAT     H230942   1.691   0.981   8.118
10234WAT      O30943   0.339   9.674   3.500
10234WAT     H130944   0.399   9.663   3.579
10234WAT     H230945   0.263   9.611   3.506
10235WAT      O30946   7.267   5.695   8.848
10235WAT     H130947   7.299   5.641   8.770
10235WAT     H230948   7.194   5.646   8.894
10236WAT      O30949   2.614   9.746   0.814
10236WAT     H130950   2.678   9.672   0.835
10236WAT     H230951   2.646   9.831   0.856
10237WAT      O30952   9.102   1.442   2.444
10237WAT     H130953   9.049   1.361   2.466
10237WAT     H230954   9.166   1.462   2.519
10238WAT      O30955   8.591   5.757   8.402
10238WAT     H130956   8.605   5.842   8.451
10238WAT     H230957   8.555   5.687   8.464
10239WAT      O30958   6.440   8.999   2.019
10239WAT     H130959   6.393   9.084   1.996
10239WAT     H230960   6.375   8.924   2.016
10240WAT      O30961   9.506   0.606   0.163
10240WAT     H130962   9.596   0.573   0.135
10240WAT     H230963   9.444   0.606   0.085
10241WAT      O30964   8.385   8.694   1.832
10241WAT     H130965   8.438   8.771   1.867
10241WAT     H230966   8.305   8.678   1.890
10242WAT      O30967   3.087   5.453   9.590
10242WAT     H130968   3.060   5.549   9.601
10242WAT     H230969   3.183   5.442   9.619
10243WAT      O30970   1.774   9.421   5.836
10243WAT     H130971   1.814   9.389   5.750
10243WAT     H230972   1.712   9.352   5.872
10244WAT      O30973   8.791   9.103   9.346
10244WAT     H130974   8.707   9.155   9.329
10244WAT     H230975   8.777   9.007   9.322
10245WAT      O30976   0.450   8.412   4.626
10245WAT     H130977   0.517   8.480   4.657
10245WAT     H230978   0.492   8.352   4.558
10246WAT      O30979   5.874   8.310   0.716
10246WAT     H130980   5.828   8.243   0.657
10246WAT     H230981   5.807   8.378   0.747
10247WAT      O30982   4.181   0.778   7.531
10247WAT     H130983   4.180   0.769   7.432
10247WAT     H230984   4.183   0.874   7.556
10248WAT      O30985   6.590   7.576   4.933
10248WAT     H130986   6.507   7.523   4.916
10248WAT     H230987   6.567   7.674   4.929
10249WAT      O30988   8.597   0.430   4.492
10249WAT     H130989   8.685   0.456   4.531
10249WAT     H230990   8.544   0.512   4.470
10250WAT      O30991   0.578   4.416   5.385
10250WAT     H130992   0.632   4.368   5.316
10250WAT     H230993   0.610   4.510   5.393
10251WAT      O30994   6.839   2.626   1.884
10251WAT     H130995   6.794   2.609   1.971
10251WAT     H230996   6.771   2.650   1.815
10252WAT      O30997   5.798   1.922   2.956
10252WAT     H130998   5.877   1.901   2.898
10252WAT     H230999   5.825   1.917   3.052
10253WAT      O31000   7.323   0.312   4.504
10253WAT     H131001   7.297   0.262   4.586
10253WAT     H231002   7.306   0.255   4.423
10254WAT      O31003   9.724   8.036   0.837
10254WAT     H131004   9.754   7.954   0.886
10254WAT     H231005   9.627   8.051   0.853
10255WAT      O31006   7.063   2.249   4.070
10255WAT     H131007   7.046   2.245   4.168
10255WAT     H231008   6.982   2.219   4.020
10256WAT      O31009   0.856   3.764   1.283
10256WAT     H131010   0.862   3.664   1.276
10256WAT     H231011   0.948   3.801   1.299
10257WAT      O31012   4.282   1.693   8.276
10257WAT     H131013   4.222   1.617   8.252
10257WAT     H231014   4.228   1.768   8.315
10258WAT      O31015   4.681   2.280   1.614
10258WAT     H131016   4.701   2.193   1.658
10258WAT     H231017   4.667   2.265   1.516
10259WAT      O31018   0.361   7.302   5.765
10259WAT     H131019   0.441   7.320   5.821
10259WAT     H231020   0.278   7.306   5.821
10260WAT      O31021   5.431   2.845   1.165
10260WAT     H131022   5.341   2.885   1.147
10260WAT     H231023   5.448   2.772   1.098
10261WAT      O31024   2.383   8.969   1.253
10261WAT     H131025   2.467   8.916   1.246
10261WAT     H231026   2.304   8.907   1.251
10262WAT      O31027   4.929   7.898   0.918
10262WAT     H131028   4.929   7.798   0.922
10262WAT     H231029   4.962   7.934   1.005
10263WAT      O31030   5.399   7.926   9.440
10263WAT     H131031   5.314   7.960   9.479
10263WAT     H231032   5.477   7.970   9.485
10264WAT      O31033   9.327   8.155   4.693
10264WAT     H131034   9.249   8.176   4.634
10264WAT     H231035   9.398   8.224   4.680
10265WAT      O31036   2.133   0.124   2.845
10265WAT     H131037   2.134   0.175   2.931
10265WAT     H231038   2.038   0.112   2.815
10266WAT      O31039   5.760   8.985   8.242
10266WAT     H131040   5.828   8.924   8.201
10266WAT     H231041   5.754   8.966   8.340
10267WAT      O31042   9.363   3.747   4.836
10267WAT     H131043   9.273   3.729   4.875
10267WAT     H231044   9.353   3.802   4.753
10268WAT      O31045   8.312   6.040   0.155
10268WAT     H131046   8.220   6.008   0.136
10268WAT     H231047   8.349   5.991   0.234
10269WAT      O31048   6.312   8.659   1.718
10269WAT     H131049   6.382   8.630   1.652
10269WAT     H231050   6.265   8.740   1.682
10270WAT      O31051   6.975   4.065   0.913
10270WAT     H131052   6.956   4.096   1.006
10270WAT     H231053   7.043   3.991   0.916
10271WAT      O31054   1.609   0.532   8.472
10271WAT     H131055   1.688   0.560   8.418
10271WAT     H231056   1.566   0.452   8.430
10272WAT      O31057   2.191   1.139   0.031
10272WAT     H131058   2.182   1.059   0.089
10272WAT     H231059   2.118   1.138  -0.038
10273WAT      O31060   0.641   9.296   6.245
10273WAT     H131061   0.625   9.389   6.211
10273WAT     H231062   0.717   9.297   6.310
10274WAT      O31063   4.756   7.261   7.261
10274WAT     H131064   4.855   7.252   7.261
10274WAT     H231065   4.714   7.175   7.233
10275WAT      O31066   0.850   7.211   4.623
10275WAT     H131067   0.877   7.225   4.718
10275WAT     H231068   0.931   7.216   4.565
10276WAT      O31069   0.106   7.836   9.808
10276WAT     H131070   0.061   7.865   9.723
10276WAT     H231071   0.148   7.916   9.852
10277WAT      O31072   5.961   1.955   4.596
10277WAT     H131073   6.011   1.913   4.672
10277WAT     H231074   5.911   2.034   4.630
10278WAT      O31075   1.873   9.573   6.876
10278WAT     H131076   1.900   9.631   6.799
10278WAT     H231077   1.773   9.567   6.880
10279WAT      O31078   8.162   6.044   7.291
10279WAT     H131079   8.064   6.060   7.304
10279WAT     H231080   8.187   6.059   7.195
10280WAT      O31081   8.145   4.008   2.625
10280WAT     H131082   8.142   4.077   2.698
10280WAT     H231083   8.081   3.935   2.647
10281WAT      O31084   4.590   8.097   5.355
10281WAT     H131085   4.578   8.128   5.449
10281WAT     H231086   4.659   8.153   5.310
10282WAT      O31087   7.958   8.208   1.726
10282WAT     H131088   7.955   8.119   1.681
10282WAT     H231089   7.933   8.279   1.660
10283WAT      O31090   8.179   3.616   1.919
10283WAT     H131091   8.180   3.686   1.991
10283WAT     H231092   8.272   3.586   1.900
10284WAT      O31093   4.144   3.574   4.124
10284WAT     H131094   4.179   3.629   4.048
10284WAT     H231095   4.170   3.478   4.110
10285WAT      O31096   9.070   3.557   8.528
10285WAT     H131097   9.094   3.547   8.431
10285WAT     H231098   9.076   3.467   8.572
10286WAT      O31099   5.528   0.531   5.790
10286WAT     H131100   5.506   0.437   5.816
10286WAT     H231101   5.446   0.588   5.796
10287WAT      O31102   3.708   7.398   1.108
10287WAT     H131103   3.647   7.408   1.186
10287WAT     H231104   3.662   7.432   1.025
10288WAT      O31105   9.123   2.922   7.278
10288WAT     H131106   9.045   2.960   7.327
10288WAT     H231107   9.192   2.993   7.265
10289WAT      O31108   4.968   7.642   7.879
10289WAT     H131109   5.067   7.635   7.889
10289WAT     H231110   4.935   7.566   7.822
10290WAT      O31111   5.282   8.592   0.577
10290WAT     H131112   5.376   8.566   0.552
10290WAT     H231113   5.259   8.550   0.664
10291WAT      O31114   0.131   9.821   5.895
10291WAT     H131115   0.193   9.776   5.831
10291WAT     H231116   0.086   9.752   5.952
10292WAT      O31117   3.655   5.105   6.659
10292WAT     H131118   3.667   5.042   6.735
10292WAT     H231119   3.734   5.165   6.651
10293WAT      O31120   1.018   6.607   8.110
10293WAT     H131121   0.950   6.667   8.153
10293WAT     H231122   1.033   6.637   8.016
10294WAT      O31123   1.820   4.833   2.247
10294WAT     H131124   1.839   4.926   2.215
10294WAT     H231125   1.724   4.825   2.273
10295WAT      O31126   7.535   3.913   8.938
10295WAT     H131127   7.460   3.856   8.972
10295WAT     H231128   7.497   3.997   8.898
10296WAT      O31129   2.245   7.086   9.231
10296WAT     H131130   2.172   7.115   9.169
10296WAT     H231131   2.330   7.077   9.179
10297WAT      O31132   4.900   0.050   0.448
10297WAT     H131133   4.823   0.115   0.447
10297WAT     H231134   4.916   0.020   0.541
10298WAT      O31135   3.906   1.594   1.845
10298WAT     H131136   4.004   1.599   1.868
10298WAT     H231137   3.872   1.687   1.826
10299WAT      O31138   4.072   5.968   6.439
10299WAT     H131139   4.003   6.001   6.504
10299WAT     H231140   4.140   6.039   6.423
10300WAT      O31141   4.837   1.162   4.667
10300WAT     H131142   4.807   1.221   4.591
10300WAT     H231143   4.894   1.215   4.730
10301WAT      O31144   4.078   0.364   6.964
10301WAT     H131145   4.175   0.348   6.979
10301WAT     H231146   4.046   0.308   6.888
10302WAT      O31147   7.961   9.395   0.911
10302WAT     H131148   7.903   9.476   0.913
10302WAT     H231149   8.022   9.396   0.991
10303WAT      O31150   8.859   5.367   1.383
10303WAT     H131151   8.845   5.295   1.315
10303WAT     H231152   8.869   5.326   1.474
10304WAT      O31153   4.188   8.151   8.244
10304WAT     H131154   4.274   8.154   8.193
10304WAT     H231155   4.111   8.160   8.180
10305WAT      O31156   8.608   9.702   2.839
10305WAT     H131157   8.621   9.682   2.936
10305WAT     H231158   8.626   9.619   2.786
10306WAT      O31159   0.428   2.201   3.217
10306WAT     H131160   0.409   2.275   3.281
10306WAT     H231161   0.406   2.230   3.124
10307WAT      O31162   0.747   7.203   5.968
10307WAT     H131163   0.656   7.244   5.968
10307WAT     H231164   0.739   7.106   5.990
10308WAT      O31165   2.827   0.806   4.004
10308WAT     H131166   2.785   0.748   4.073
10308WAT     H231167   2.926   0.788   4.000
10309WAT      O31168   3.157   1.974   1.782
10309WAT     H131169   3.232   2.005   1.840
10309WAT     H231170   3.193   1.948   1.692
10310WAT      O31171   7.115   4.118   8.542
10310WAT     H131172   7.036   4.173   8.566
10310WAT     H231173   7.091   4.021   8.545
10311WAT      O31174   3.152   6.579   7.948
10311WAT     H131175   3.194   6.655   7.996
10311WAT     H231176   3.196   6.493   7.975
10312WAT      O31177   6.097   4.914   6.169
10312WAT     H131178   6.014   4.865   6.142
10312WAT     H231179   6.076   5.010   6.186
10313WAT      O31180   0.477   4.300   7.295
10313WAT     H131181   0.397   4.255   7.334
10313WAT     H231182   0.559   4.266   7.341
10314WAT      O31183   5.880   5.537   5.927
10314WAT     H131184   5.783   5.544   5.902
10314WAT     H231185   5.935   5.530   5.844
10315WAT      O31186   1.927   0.527   7.144
10315WAT     H131187   1.837   0.568   7.157
10315WAT     H231188   1.988   0.555   7.219
10316WAT      O31189   3.054   0.834   0.251
10316WAT     H131190   3.053   0.740   0.284
10316WAT     H231191   2.984   0.887   0.300
10317WAT      O31192   7.483   5.439   5.381
10317WAT     H131193   7.426   5.458   5.461
10317WAT     H231194   7.432   5.384   5.315
10318WAT      O31195   8.678   2.842   6.069
10318WAT     H131196   8.692   2.935   6.103
10318WAT     H231197   8.581   2.817   6.079
10319WAT      O31198   1.974   7.317   0.261
10319WAT     H131199   1.893   7.369   0.286
10319WAT     H231200   2.003   7.261   0.338
10320WAT      O31201   7.167   3.082   1.500
10320WAT     H131202   7.120   3.010   1.551
10320WAT     H231203   7.223   3.137   1.563
10321WAT      O31204   9.032   8.033   3.717
10321WAT     H131205   9.129   8.026   3.739
10321WAT     H231206   8.997   7.944   3.688
10322WAT      O31207   1.902   6.082   7.422
10322WAT     H131208   1.856   6.051   7.505
10322WAT     H231209   1.937   6.175   7.435
10323WAT      O31210   4.024   4.238   7.464
10323WAT     H131211   3.930   4.268   7.479
10323WAT     H231212   4.052   4.177   7.538
10324WAT      O31213   0.593   4.620   6.611
10324WAT     H131214   0.500   4.651   6.592
10324WAT     H231215   0.658   4.677   6.560
10325WAT      O31216   7.743   9.463   6.881
10325WAT     H131217   7.773   9.556   6.857
10325WAT     H231218   7.815   9.398   6.859
10326WAT      O31219   0.534   7.761   0.215
10326WAT     H131220   0.485   7.695   0.158
10326WAT     H231221   0.473   7.838   0.235
10327WAT      O31222   8.286   2.025   3.074
10327WAT     H131223   8.362   2.028   3.139
10327WAT     H231224   8.292   2.103   3.012
10328WAT      O31225   6.347   8.946   3.764
10328WAT     H131226   6.374   8.851   3.783
10328WAT     H231227   6.323   8.955   3.667
10329WAT      O31228   6.690   5.795   0.530
10329WAT     H131229   6.655   5.889   0.530
10329WAT     H231230   6.621   5.733   0.567
10330WAT      O31231   6.350   6.756   6.880
10330WAT     H131232   6.275   6.767   6.815
10330WAT     H231233   6.358   6.838   6.936
10331WAT      O31234   5.869   4.063   5.003
10331WAT     H131235   5.929   3.983   4.998
10331WAT     H231236   5.849   4.095   4.910
10332WAT      O31237   7.837   2.260   6.272
10332WAT     H131238   7.765   2.239   6.205
10332WAT     H231239   7.912   2.307   6.226
10333WAT      O31240   7.184   9.407   4.280
10333WAT     H131241   7.232   9.327   4.244
10333WAT     H231242   7.128   9.447   4.208
10334WAT      O31243   5.358   2.522   3.945
10334WAT     H131244   5.308   2.473   4.016
10334WAT     H231245   5.309   2.606   3.921
10335WAT      O31246   2.634   3.579   9.181
10335WAT     H131247   2.715   3.578   9.239
10335WAT     H231248   2.616   3.487   9.147
10336WAT      O31249   8.509   9.788   1.969
10336WAT     H131250   8.590   9.790   2.028
10336WAT     H231251   8.519   9.856   1.896
10337WAT      O31252   8.333   9.262   0.454
10337WAT     H131253   8.348   9.253   0.552
10337WAT     H231254   8.246   9.308   0.437
10338WAT      O31255   2.841   4.130   7.247
10338WAT     H131256   2.768   4.171   7.302
10338WAT     H231257   2.924   4.185   7.256
10339WAT      O31258   0.400   8.117   3.594
10339WAT     H131259   0.468   8.185   3.618
10339WAT     H231260   0.438   8.025   3.607
10340WAT      O31261   7.306   1.115   3.765
10340WAT     H131262   7.385   1.137   3.823
10340WAT     H231263   7.297   1.016   3.759
10341WAT      O31264   5.140   3.556   4.101
10341WAT     H131265   5.157   3.592   4.193
10341WAT     H231266   5.070   3.611   4.056
10342WAT      O31267   1.721   1.008   0.913
10342WAT     H131268   1.811   1.038   0.879
10342WAT     H231269   1.733   0.956   0.997
10343WAT      O31270   8.678   8.339   0.815
10343WAT     H131271   8.714   8.309   0.903
10343WAT     H231272   8.599   8.283   0.790
10344WAT      O31273   1.410   7.534   2.319
10344WAT     H131274   1.442   7.439   2.319
10344WAT     H231275   1.414   7.570   2.225
10345WAT      O31276   3.400   6.966   4.156
10345WAT     H131277   3.336   6.915   4.214
10345WAT     H231278   3.349   7.032   4.101
10346WAT      O31279   4.290   4.013   9.186
10346WAT     H131280   4.309   4.108   9.165
10346WAT     H231281   4.292   3.959   9.102
10347WAT      O31282   9.325   3.704   0.007
10347WAT     H131283   9.298   3.800   0.012
10347WAT     H231284   9.422   3.698  -0.019
10348WAT      O31285   3.269   1.840   8.996
10348WAT     H131286   3.358   1.831   9.042
10348WAT     H231287   3.268   1.924   8.942
10349WAT      O31288   8.332   4.109   0.974
10349WAT     H131289   8.249   4.076   0.928
10349WAT     H231290   8.380   4.031   1.015
10350WAT      O31291   1.382   8.102   8.664
10350WAT     H131292   1.424   8.141   8.582
10350WAT     H231293   1.372   8.004   8.653
10351WAT      O31294   7.928   5.963   6.530
10351WAT     H131295   7.899   6.057   6.545
10351WAT     H231296   7.848   5.905   6.513
10352WAT      O31297   0.522   1.956   6.462
10352WAT     H131298   0.509   2.013   6.381
10352WAT     H231299   0.617   1.925   6.465
10353WAT      O31300   6.948   1.838   3.605
10353WAT     H131301   7.030   1.849   3.661
10353WAT     H231302   6.899   1.755   3.632
10354WAT      O31303   0.584   6.904   3.707
10354WAT     H131304   0.658   6.877   3.645
10354WAT     H231305   0.562   6.828   3.768
10355WAT      O31306   3.915   4.917   1.715
10355WAT     H131307   3.976   4.991   1.686
10355WAT     H231308   3.832   4.919   1.659
10356WAT      O31309   8.779   0.506   1.185
10356WAT     H131310   8.797   0.533   1.279
10356WAT     H231311   8.775   0.587   1.127
10357WAT      O31312   8.765   6.009   9.809
10357WAT     H131313   8.750   6.095   9.858
10357WAT     H231314   8.752   5.932   9.872
10358WAT      O31315   8.091   7.383   4.435
10358WAT     H131316   8.160   7.361   4.367
10358WAT     H231317   8.080   7.306   4.498
10359WAT      O31318   7.639   7.581   3.934
10359WAT     H131319   7.669   7.501   3.985
10359WAT     H231320   7.545   7.568   3.904
10360WAT      O31321   7.807   0.128   2.632
10360WAT     H131322   7.812   0.202   2.565
10360WAT     H231323   7.782   0.167   2.721
10361WAT      O31324   0.039   5.971   2.403
10361WAT     H131325   0.007   6.028   2.328
10361WAT     H231326   0.126   5.928   2.377
10362WAT      O31327   6.021   4.030   7.557
10362WAT     H131328   6.061   4.121   7.570
10362WAT     H231329   5.982   4.024   7.465
10363WAT      O31330   8.528   4.919   7.092
10363WAT     H131331   8.565   4.909   7.185
10363WAT     H231332   8.434   4.951   7.097
10364WAT      O31333   8.929   6.850   5.555
10364WAT     H131334   8.971   6.940   5.550
10364WAT     H231335   8.833   6.859   5.578
10365WAT      O31336   0.977   3.332   1.351
10365WAT     H131337   1.040   3.384   1.408
10365WAT     H231338   0.934   3.261   1.406
10366WAT      O31339   5.497   6.535   1.618
10366WAT     H131340   5.585   6.486   1.612
10366WAT     H231341   5.489   6.576   1.709
10367WAT      O31342   3.018   3.916   2.339
10367WAT     H131343   3.046   4.011   2.351
10367WAT     H231344   2.982   3.880   2.425
10368WAT      O31345   3.477   0.151   3.492
10368WAT     H131346   3.384   0.114   3.492
10368WAT     H231347   3.494   0.199   3.405
10369WAT      O31348   6.913   2.756   9.388
10369WAT     H131349   6.941   2.851   9.379
10369WAT     H231350   6.984   2.696   9.349
10370WAT      O31351   2.281   6.989   5.248
10370WAT     H131352   2.238   6.902   5.225
10370WAT     H231353   2.293   7.043   5.165
10371WAT      O31354   9.489   2.417   4.236
10371WAT     H131355   9.504   2.410   4.138
10371WAT     H231356   9.576   2.404   4.284
10372WAT      O31357   1.314   5.729   0.069
10372WAT     H131358   1.333   5.633   0.052
10372WAT     H231359   1.215   5.741   0.081
10373WAT      O31360   1.844   3.968   1.660
10373WAT     H131361   1.809   4.015   1.579
10373WAT     H231362   1.847   4.033   1.736
10374WAT      O31363   7.477   4.235   8.198
10374WAT     H131364   7.394   4.244   8.251
10374WAT     H231365   7.462   4.271   8.106
10375WAT      O31366   5.031   8.265   2.347
10375WAT     H131367   5.090   8.340   2.321
10375WAT     H231368   4.998   8.279   2.441
10376WAT      O31369   7.888   6.966   0.704
10376WAT     H131370   7.984   6.955   0.729
10376WAT     H231371   7.855   6.882   0.661
10377WAT      O31372   9.661   7.673   9.310
10377WAT     H131373   9.760   7.663   9.317
10377WAT     H231374   9.624   7.703   9.397
10378WAT      O31375   9.711   7.971   5.564
10378WAT     H131376   9.720   7.878   5.601
10378WAT     H231377   9.719   7.967   5.464
10379WAT      O31378   4.195   4.250   1.258
10379WAT     H131379   4.226   4.186   1.187
10379WAT     H231380   4.234   4.223   1.346
10380WAT      O31381   2.352   9.034   5.838
10380WAT     H131382   2.341   9.004   5.744
10380WAT     H231383   2.398   9.123   5.839
10381WAT      O31384   8.497   2.220   6.252
10381WAT     H131385   8.465   2.184   6.165
10381WAT     H231386   8.435   2.191   6.325
10382WAT      O31387   8.404   9.091   5.008
10382WAT     H131388   8.312   9.054   4.999
10382WAT     H231389   8.470   9.016   5.003
10383WAT      O31390   6.389   7.644   7.525
10383WAT     H131391   6.440   7.726   7.500
10383WAT     H231392   6.293   7.668   7.542
10384WAT      O31393   2.301   8.336   2.430
10384WAT     H131394   2.267   8.428   2.447
10384WAT     H231395   2.295   8.282   2.515
10385WAT      O31396   6.029   7.877   5.192
10385WAT     H131397   6.000   7.798   5.138
10385WAT     H231398   6.112   7.854   5.242
10386WAT      O31399   3.343   1.056   6.701
10386WAT     H131400   3.278   1.037   6.775
10386WAT     H231401   3.392   0.972   6.677
10387WAT      O31402   8.447   3.887   0.384
10387WAT     H131403   8.372   3.951   0.402
10387WAT     H231404   8.415   3.794   0.398
10388WAT      O31405   8.671   3.482   6.968
10388WAT     H131406   8.760   3.474   7.012
10388WAT     H231407   8.674   3.441   6.877
10389WAT      O31408   8.882   2.793   5.456
10389WAT     H131409   8.932   2.726   5.402
10389WAT     H231410   8.804   2.826   5.404
10390WAT      O31411   3.755   5.673   5.456
10390WAT     H131412   3.739   5.600   5.521
10390WAT     H231413   3.731   5.642   5.364
10391WAT      O31414   1.567   7.048   4.080
10391WAT     H131415   1.659   7.031   4.117
10391WAT     H231416   1.575   7.086   3.988
10392WAT      O31417   2.146   0.973   6.670
10392WAT     H131418   2.179   1.033   6.597
10392WAT     H231419   2.056   0.937   6.646
10393WAT      O31420   7.494   8.171   1.496
10393WAT     H131421   7.450   8.197   1.410
10393WAT     H231422   7.491   8.248   1.559
10394WAT      O31423   9.041   4.508   8.554
10394WAT     H131424   8.952   4.471   8.527
10394WAT     H231425   9.071   4.576   8.487
10395WAT      O31426   4.513   6.941   6.403
10395WAT     H131427   4.459   6.864   6.437
10395WAT     H231428   4.469   6.979   6.321
10396WAT      O31429   4.703   0.675   0.609
10396WAT     H131430   4.645   0.708   0.534
10396WAT     H231431   4.701   0.575   0.610
10397WAT      O31432   6.917   2.616   8.989
10397WAT     H131433   6.859   2.635   8.910
10397WAT     H231434   6.862   2.621   9.073
10398WAT      O31435   3.488   5.952   0.969
10398WAT     H131436   3.562   5.958   0.903
10398WAT     H231437   3.486   5.859   1.008
10399WAT      O31438   3.581   5.485   0.046
10399WAT     H131439   3.483   5.482   0.063
10399WAT     H231440   3.622   5.558   0.102
10400WAT      O31441   5.275   8.072   5.222
10400WAT     H131442   5.263   8.028   5.311
10400WAT     H231443   5.271   8.172   5.233
10401WAT      O31444   8.115   8.567   3.084
10401WAT     H131445   8.199   8.622   3.080
10401WAT     H231446   8.046   8.616   3.137
10402WAT      O31447   5.793   7.595   4.953
10402WAT     H131448   5.888   7.609   4.980
10402WAT     H231449   5.732   7.632   5.023
10403WAT      O31450   5.267   9.388   9.607
10403WAT     H131451   5.305   9.475   9.638
10403WAT     H231452   5.318   9.313   9.649
10404WAT      O31453   8.299   2.401   9.840
10404WAT     H131454   8.240   2.447   9.773
10404WAT     H231455   8.245   2.376   9.920
10405WAT      O31456   8.912   1.497   1.883
10405WAT     H131457   8.843   1.477   1.814
10405WAT     H231458   8.907   1.593   1.908
10406WAT      O31459   4.576   6.414   3.367
10406WAT     H131460   4.487   6.417   3.324
10406WAT     H231461   4.587   6.493   3.428
10407WAT      O31462   7.488   0.106   0.156
10407WAT     H131463   7.480   0.199   0.192
10407WAT     H231464   7.492   0.109   0.056
10408WAT      O31465   6.760   7.081   8.903
10408WAT     H131466   6.661   7.086   8.890
10408WAT     H231467   6.806   7.131   8.830
10409WAT      O31468   8.464   7.411   5.137
10409WAT     H131469   8.441   7.449   5.227
10409WAT     H231470   8.564   7.413   5.126
10410WAT      O31471   0.108   8.624   6.864
10410WAT     H131472   0.150   8.570   6.792
10410WAT     H231473   0.168   8.701   6.887
10411WAT      O31474   9.148   6.550   4.252
10411WAT     H131475   9.162   6.532   4.155
10411WAT     H231476   9.184   6.473   4.306
10412WAT      O31477   2.405   1.136   6.051
10412WAT     H131478   2.433   1.214   5.995
10412WAT     H231479   2.485   1.100   6.100
10413WAT      O31480   3.141   3.621   4.358
10413WAT     H131481   3.135   3.618   4.258
10413WAT     H231482   3.198   3.547   4.391
10414WAT      O31483   6.333   5.924   3.702
10414WAT     H131484   6.298   6.018   3.710
10414WAT     H231485   6.433   5.926   3.697
10415WAT      O31486   0.536   8.243   4.409
10415WAT     H131487   0.512   8.201   4.322
10415WAT     H231488   0.578   8.175   4.469
10416WAT      O31489   7.973   9.078   1.147
10416WAT     H131490   7.873   9.076   1.136
10416WAT     H231491   8.015   9.114   1.064
10417WAT      O31492   8.322   4.038   4.224
10417WAT     H131493   8.247   4.103   4.216
10417WAT     H231494   8.407   4.087   4.245
10418WAT      O31495   5.234   9.719   6.129
10418WAT     H131496   5.290   9.794   6.166
10418WAT     H231497   5.289   9.664   6.067
10419WAT      O31498   0.713   9.499   7.309
10419WAT     H131499   0.709   9.593   7.275
10419WAT     H231500   0.757   9.498   7.399
10420WAT      O31501   5.370   0.230   5.001
10420WAT     H131502   5.279   0.190   5.007
10420WAT     H231503   5.432   0.180   5.061
10421WAT      O31504   1.786   3.773   6.857
10421WAT     H131505   1.740   3.717   6.926
10421WAT     H231506   1.717   3.818   6.799
10422WAT      O31507   6.456   9.832   2.702
10422WAT     H131508   6.361   9.831   2.669
10422WAT     H231509   6.514   9.878   2.635
10423WAT      O31510   3.739   8.121   1.604
10423WAT     H131511   3.640   8.108   1.603
10423WAT     H231512   3.760   8.218   1.589
10424WAT      O31513   6.844   6.462   6.517
10424WAT     H131514   6.751   6.479   6.484
10424WAT     H231515   6.840   6.421   6.608
10425WAT      O31516   5.975   2.471   5.226
10425WAT     H131517   6.046   2.422   5.277
10425WAT     H231518   5.953   2.420   5.143
10426WAT      O31519   5.362   3.190   9.858
10426WAT     H131520   5.336   3.211   9.952
10426WAT     H231521   5.452   3.146   9.857
10427WAT      O31522   6.840   7.457   1.911
10427WAT     H131523   6.896   7.521   1.858
10427WAT     H231524   6.860   7.363   1.882
10428WAT      O31525   8.089   9.046   4.717
10428WAT     H131526   8.121   8.999   4.635
10428WAT     H231527   8.094   9.145   4.704
10429WAT      O31528   6.673   9.060   6.542
10429WAT     H131529   6.578   9.068   6.513
10429WAT     H231530   6.701   9.144   6.589
10430WAT      O31531   3.846   8.784   1.106
10430WAT     H131532   3.773   8.748   1.164
10430WAT     H231533   3.932   8.738   1.128
10431WAT      O31534   8.423   3.586   1.267
10431WAT     H131535   8.366   3.579   1.348
10431WAT     H231536   8.515   3.614   1.293
10432WAT      O31537   4.003   0.994   9.108
10432WAT     H131538   4.005   0.921   9.040
10432WAT     H231539   3.918   1.046   9.098
10433WAT      O31540   5.962   8.528   5.802
10433WAT     H131541   5.926   8.437   5.782
10433WAT     H231542   6.052   8.520   5.844
10434WAT      O31543   2.083   8.383   8.849
10434WAT     H131544   2.097   8.423   8.759
10434WAT     H231545   2.068   8.456   8.916
10435WAT      O31546   9.147   9.604   7.201
10435WAT     H131547   9.066   9.593   7.144
10435WAT     H231548   9.195   9.688   7.176
10436WAT      O31549   5.120   2.377   5.459
10436WAT     H131550   5.037   2.423   5.491
10436WAT     H231551   5.136   2.399   5.363
10437WAT      O31552   2.023   6.598   5.954
10437WAT     H131553   2.014   6.504   5.986
10437WAT     H231554   2.084   6.648   6.016
10438WAT      O31555   8.510   4.069   0.113
10438WAT     H131556   8.507   4.132   0.190
10438WAT     H231557   8.422   4.022   0.104
10439WAT      O31558   5.642   5.354   5.418
10439WAT     H131559   5.588   5.413   5.357
10439WAT     H231560   5.683   5.280   5.365
10440WAT      O31561   4.184   0.148   1.184
10440WAT     H131562   4.169   0.189   1.274
10440WAT     H231563   4.180   0.219   1.114
10441WAT      O31564   9.137   3.002   9.025
10441WAT     H131565   9.042   2.993   8.995
10441WAT     H231566   9.177   2.911   9.035
10442WAT      O31567   5.600   0.432   6.090
10442WAT     H131568   5.639   0.457   6.179
10442WAT     H231569   5.645   0.350   6.055
10443WAT      O31570   9.670   9.713   7.947
10443WAT     H131571   9.667   9.618   7.977
10443WAT     H231572   9.729   9.766   8.008
10444WAT      O31573   0.227   5.558   8.938
10444WAT     H131574   0.169   5.613   8.878
10444WAT     H231575   0.310   5.609   8.960
10445WAT      O31576   2.498   6.112   4.141
10445WAT     H131577   2.487   6.089   4.238
10445WAT     H231578   2.482   6.209   4.128
10446WAT      O31579   9.068   9.645   1.326
10446WAT     H131580   9.035   9.657   1.232
10446WAT     H231581   9.142   9.710   1.344
10447WAT      O31582   7.060   9.326   3.078
10447WAT     H131583   6.993   9.254   3.067
10447WAT     H231584   7.037   9.382   3.158
10448WAT      O31585   4.361   4.263   7.171
10448WAT     H131586   4.299   4.241   7.096
10448WAT     H231587   4.309   4.308   7.244
10449WAT      O31588   3.665   1.536   4.596
10449WAT     H131589   3.757   1.500   4.578
10449WAT     H231590   3.668   1.593   4.678
10450WAT      O31591   7.217   6.521   7.758
10450WAT     H131592   7.315   6.522   7.740
10450WAT     H231593   7.186   6.612   7.786
10451WAT      O31594   2.043   8.072   6.236
10451WAT     H131595   2.068   8.072   6.139
10451WAT     H231596   2.079   7.989   6.280
10452WAT      O31597   6.292   3.482   1.163
10452WAT     H131598   6.352   3.405   1.141
10452WAT     H231599   6.269   3.479   1.260
10453WAT      O31600   4.665   1.219   8.036
10453WAT     H131601   4.729   1.276   8.088
10453WAT     H231602   4.617   1.158   8.099
10454WAT      O31603   6.495   6.203   0.752
10454WAT     H131604   6.442   6.254   0.684
10454WAT     H231605   6.465   6.229   0.844
10455WAT      O31606   3.188   5.727   3.478
10455WAT     H131607   3.241   5.658   3.429
10455WAT     H231608   3.250   5.793   3.520
10456WAT      O31609   4.196   1.644   4.393
10456WAT     H131610   4.270   1.583   4.366
10456WAT     H231611   4.127   1.592   4.445
10457WAT      O31612   1.780   6.546   9.271
10457WAT     H131613   1.688   6.578   9.292
10457WAT     H231614   1.779   6.497   9.184
10458WAT      O31615   5.615   8.708   5.608
10458WAT     H131616   5.574   8.682   5.696
10458WAT     H231617   5.543   8.719   5.540
10459WAT      O31618   0.583   2.653   0.445
10459WAT     H131619   0.534   2.609   0.521
10459WAT     H231620   0.680   2.660   0.468
10460WAT      O31621   0.765   4.627   8.902
10460WAT     H131622   0.756   4.666   8.810
10460WAT     H231623   0.797   4.699   8.965
10461WAT      O31624   7.856   9.170   8.636
10461WAT     H131625   7.935   9.229   8.649
10461WAT     H231626   7.874   9.080   8.676
10462WAT      O31627   6.903   3.000   5.485
10462WAT     H131628   6.991   3.041   5.510
10462WAT     H231629   6.894   2.997   5.385
10463WAT      O31630   8.002   2.526   8.628
10463WAT     H131631   7.929   2.459   8.639
10463WAT     H231632   8.071   2.512   8.700
10464WAT      O31633   1.353   3.089   9.066
10464WAT     H131634   1.401   3.154   9.007
10464WAT     H231635   1.420   3.032   9.114
10465WAT      O31636   2.467   6.265   4.651
10465WAT     H131637   2.472   6.280   4.750
10465WAT     H231638   2.400   6.327   4.611
10466WAT      O31639   3.882   2.240   2.847
10466WAT     H131640   3.939   2.223   2.767
10466WAT     H231641   3.825   2.321   2.832
10467WAT      O31642   8.178   9.776   5.347
10467WAT     H131643   8.130   9.791   5.434
10467WAT     H231644   8.231   9.692   5.353
10468WAT      O31645   4.736   6.687   8.026
10468WAT     H131646   4.702   6.777   8.052
10468WAT     H231647   4.723   6.623   8.102
10469WAT      O31648   0.451   7.908   9.124
10469WAT     H131649   0.527   7.881   9.065
10469WAT     H231650   0.471   7.882   9.219
10470WAT      O31651   0.760   2.558   2.108
10470WAT     H131652   0.695   2.489   2.139
10470WAT     H231653   0.853   2.523   2.116
10471WAT      O31654   8.939   1.242   5.241
10471WAT     H131655   8.925   1.273   5.147
10471WAT     H231656   9.030   1.270   5.272
10472WAT      O31657   5.799   0.999   9.771
10472WAT     H131658   5.727   0.939   9.735
10472WAT     H231659   5.802   0.991   9.871
10473WAT      O31660   5.811   0.175   4.037
10473WAT     H131661   5.820   0.184   4.136
10473WAT     H231662   5.722   0.134   4.016
10474WAT      O31663   1.907   3.770   2.431
10474WAT     H131664   1.832   3.705   2.419
10474WAT     H231665   1.890   3.850   2.373
10475WAT      O31666   9.156   4.080   6.437
10475WAT     H131667   9.152   3.991   6.482
10475WAT     H231668   9.097   4.144   6.485
10476WAT      O31669   3.731   6.087   4.309
10476WAT     H131670   3.785   6.006   4.328
10476WAT     H231671   3.647   6.061   4.260
10477WAT      O31672   0.833   3.811   4.897
10477WAT     H131673   0.900   3.826   4.824
10477WAT     H231674   0.823   3.713   4.912
10478WAT      O31675   9.266   2.259   7.602
10478WAT     H131676   9.324   2.297   7.531
10478WAT     H231677   9.261   2.323   7.679
10479WAT      O31678   3.671   4.081   0.827
10479WAT     H131679   3.618   4.097   0.744
10479WAT     H231680   3.725   4.163   0.848
10480WAT      O31681   8.689   7.974   2.014
10480WAT     H131682   8.700   7.977   1.915
10480WAT     H231683   8.612   7.914   2.037
10481WAT      O31684   3.461   2.535   0.370
10481WAT     H131685   3.465   2.440   0.400
10481WAT     H231686   3.531   2.552   0.300
10482WAT      O31687   3.555   8.080   8.865
10482WAT     H131688   3.459   8.063   8.887
10482WAT     H231689   3.586   8.014   8.797
10483WAT      O31690   3.879   3.175   4.219
10483WAT     H131691   3.805   3.208   4.279
10483WAT     H231692   3.874   3.076   4.211
10484WAT      O31693   6.934   6.379   0.789
10484WAT     H131694   6.924   6.471   0.825
10484WAT     H231695   7.019   6.373   0.737
10485WAT      O31696   2.116   4.543   0.138
10485WAT     H131697   2.053   4.474   0.102
10485WAT     H231698   2.161   4.589   0.061
10486WAT      O31699   0.383   0.498   6.801
10486WAT     H131700   0.380   0.436   6.879
10486WAT     H231701   0.389   0.444   6.716
10487WAT      O31702   7.255   9.336   8.089
10487WAT     H131703   7.331   9.387   8.130
10487WAT     H231704   7.209   9.394   8.022
10488WAT      O31705   2.547   1.047   1.960
10488WAT     H131706   2.639   1.042   1.999
10488WAT     H231707   2.543   0.993   1.876
10489WAT      O31708   1.737   6.731   6.527
10489WAT     H131709   1.747   6.636   6.557
10489WAT     H231710   1.646   6.744   6.488
10490WAT      O31711   5.975   3.221   1.212
10490WAT     H131712   6.049   3.162   1.244
10490WAT     H231713   5.981   3.310   1.256
10491WAT      O31714   3.668   9.362   3.974
10491WAT     H131715   3.745   9.319   3.927
10491WAT     H231716   3.681   9.356   4.072
10492WAT      O31717   9.387   0.795   4.346
10492WAT     H131718   9.386   0.794   4.246
10492WAT     H231719   9.341   0.712   4.380
10493WAT      O31720   7.591   9.671   9.349
10493WAT     H131721   7.579   9.625   9.437
10493WAT     H231722   7.618   9.766   9.364
10494WAT      O31723   3.316   9.044   9.753
10494WAT     H131724   3.276   8.992   9.677
10494WAT     H231725   3.338   8.982   9.828
10495WAT      O31726   8.102   8.062   4.915
10495WAT     H131727   8.148   8.024   4.835
10495WAT     H231728   8.171   8.092   4.981
10496WAT      O31729   3.740   0.580   4.622
10496WAT     H131730   3.743   0.601   4.719
10496WAT     H231731   3.789   0.494   4.604
10497WAT      O31732   2.473   2.857   5.390
10497WAT     H131733   2.380   2.825   5.375
10497WAT     H231734   2.471   2.945   5.438
10498WAT      O31735   7.736   1.892   1.978
10498WAT     H131736   7.640   1.914   1.995
10498WAT     H231737   7.761   1.810   2.028
10499WAT      O31738   2.924   9.141   4.684
10499WAT     H131739   2.963   9.222   4.639
10499WAT     H231740   2.882   9.169   4.771
10500WAT      O31741   6.127   1.499   9.482
10500WAT     H131742   6.218   1.538   9.496
10500WAT     H231743   6.124   1.407   9.521
10501WAT      O31744   5.400   1.560   8.959
10501WAT     H131745   5.453   1.482   8.994
10501WAT     H231746   5.363   1.537   8.870
10502WAT      O31747   9.638   8.220   3.724
10502WAT     H131748   9.660   8.151   3.793
10502WAT     H231749   9.645   8.179   3.633
10503WAT      O31750   7.016   6.714   0.761
10503WAT     H131751   6.922   6.748   0.758
10503WAT     H231752   7.057   6.722   0.670
10504WAT      O31753   2.454   0.998   8.442
10504WAT     H131754   2.427   1.038   8.354
10504WAT     H231755   2.382   0.937   8.475
10505WAT      O31756   9.641   9.635   9.355
10505WAT     H131757   9.608   9.617   9.448
10505WAT     H231758   9.615   9.559   9.295
10506WAT      O31759   2.473   9.111   2.643
10506WAT     H131760   2.439   9.200   2.613
10506WAT     H231761   2.528   9.069   2.571
10507WAT      O31762   3.978   3.570   9.055
10507WAT     H131763   4.032   3.648   9.022
10507WAT     H231764   4.011   3.486   9.010
10508WAT      O31765   3.538   9.660   5.257
10508WAT     H131766   3.571   9.745   5.299
10508WAT     H231767   3.536   9.670   5.158
10509WAT      O31768   2.633   7.976   8.402
10509WAT     H131769   2.567   7.917   8.448
10509WAT     H231770   2.711   7.993   8.463
10510WAT      O31771   5.667   9.154   8.857
10510WAT     H131772   5.747   9.093   8.864
10510WAT     H231773   5.633   9.175   8.948
10511WAT      O31774   8.259   5.591   3.756
10511WAT     H131775   8.318   5.533   3.700
10511WAT     H231776   8.241   5.677   3.708
10512WAT      O31777   7.452   5.570   0.178
10512WAT     H131778   7.382   5.498   0.174
10512WAT     H231779   7.407   5.658   0.191
10513WAT      O31780   5.075   4.119   0.464
10513WAT     H131781   5.037   4.058   0.394
10513WAT     H231782   5.045   4.213   0.446
10514WAT      O31783   0.623   2.412   0.310
10514WAT     H131784   0.686   2.421   0.233
10514WAT     H231785   0.594   2.503   0.340
10515WAT      O31786   4.374   7.555   4.461
10515WAT     H131787   4.328   7.606   4.389
10515WAT     H231788   4.345   7.589   4.550
10516WAT      O31789   7.231   2.519   3.485
10516WAT     H131790   7.136   2.512   3.454
10516WAT     H231791   7.288   2.554   3.410
10517WAT      O31792   1.288   9.307   5.953
10517WAT     H131793   1.198   9.347   5.934
10517WAT     H231794   1.323   9.264   5.869
10518WAT      O31795   2.053   5.477   4.557
10518WAT     H131796   2.039   5.417   4.635
10518WAT     H231797   1.969   5.479   4.501
10519WAT      O31798   1.956   1.983   8.069
10519WAT     H131799   1.974   1.967   7.972
10519WAT     H231800   1.879   2.045   8.079
10520WAT      O31801   1.803   0.010   2.486
10520WAT     H131802   1.787   0.084   2.421
10520WAT     H231803   1.863  -0.058   2.444
10521WAT      O31804   8.583   7.441   7.656
10521WAT     H131805   8.555   7.530   7.690
10521WAT     H231806   8.659   7.406   7.711
10522WAT      O31807   4.168   5.123   6.876
10522WAT     H131808   4.237   5.051   6.880
10522WAT     H231809   4.213   5.211   6.860
10523WAT      O31810   6.013   5.047   9.432
10523WAT     H131811   6.020   5.032   9.530
10523WAT     H231812   6.046   5.139   9.410
10524WAT      O31813   1.977   3.363   7.310
10524WAT     H131814   1.880   3.349   7.331
10524WAT     H231815   1.985   3.424   7.231
10525WAT      O31816   6.852   6.130   3.201
10525WAT     H131817   6.832   6.051   3.259
10525WAT     H231818   6.863   6.212   3.258
10526WAT      O31819   8.716   0.298   8.025
10526WAT     H131820   8.621   0.270   8.036
10526WAT     H231821   8.724   0.397   8.037
10527WAT      O31822   0.399   6.741   8.417
10527WAT     H131823   0.493   6.719   8.389
10527WAT     H231824   0.349   6.656   8.434
10528WAT      O31825   9.101   3.294   0.696
10528WAT     H131826   9.023   3.232   0.696
10528WAT     H231827   9.185   3.242   0.686
10529WAT      O31828   8.462   1.285   5.096
10529WAT     H131829   8.390   1.286   5.027
10529WAT     H231830   8.541   1.336   5.062
10530WAT      O31831   5.443   2.067   8.734
10530WAT     H131832   5.382   2.122   8.792
10530WAT     H231833   5.431   2.095   8.639
10531WAT      O31834   2.665   6.237   1.336
10531WAT     H131835   2.701   6.309   1.277
10531WAT     H231836   2.642   6.276   1.425
10532WAT      O31837   9.718   8.085   3.944
10532WAT     H131838   9.811   8.110   3.915
10532WAT     H231839   9.688   8.146   4.017
10533WAT      O31840   8.542   5.234   7.230
10533WAT     H131841   8.625   5.236   7.175
10533WAT     H231842   8.552   5.165   7.301
10534WAT      O31843   3.961   1.854   3.538
10534WAT     H131844   4.028   1.815   3.475
10534WAT     H231845   3.893   1.906   3.487
10535WAT      O31846   5.163   8.884   7.816
10535WAT     H131847   5.173   8.981   7.835
10535WAT     H231848   5.232   8.832   7.867
10536WAT      O31849   0.441   5.964   8.345
10536WAT     H131850   0.378   6.042   8.355
10536WAT     H231851   0.392   5.887   8.303
10537WAT      O31852   3.984   4.519   6.622
10537WAT     H131853   3.941   4.608   6.637
10537WAT     H231854   4.077   4.520   6.658
10538WAT      O31855   1.809   2.462   6.633
10538WAT     H131856   1.897   2.417   6.652
10538WAT     H231857   1.826   2.551   6.592
10539WAT      O31858   5.803   1.466   9.064
10539WAT     H131859   5.826   1.453   8.968
10539WAT     H231860   5.712   1.428   9.081
10540WAT      O31861   0.022   7.046   3.863
10540WAT     H131862   0.014   7.145   3.875
10540WAT     H231863   0.111   7.024   3.823
10541WAT      O31864   4.066   9.233   4.356
10541WAT     H131865   4.081   9.221   4.455
10541WAT     H231866   3.994   9.301   4.342
10542WAT      O31867   8.735   0.049   9.248
10542WAT     H131868   8.772  -0.038   9.280
10542WAT     H231869   8.717   0.108   9.326
10543WAT      O31870   2.530   1.488   7.892
10543WAT     H131871   2.508   1.518   7.985
10543WAT     H231872   2.580   1.402   7.895
10544WAT      O31873   1.198   2.313   9.391
10544WAT     H131874   1.142   2.396   9.380
10544WAT     H231875   1.139   2.233   9.386
10545WAT      O31876   8.526   8.104   1.523
10545WAT     H131877   8.601   8.170   1.520
10545WAT     H231878   8.492   8.089   1.430
10546WAT      O31879   9.640   3.190   4.996
10546WAT     H131880   9.633   3.214   5.093
10546WAT     H231881   9.561   3.134   4.969
10547WAT      O31882   0.856   4.335   4.344
10547WAT     H131883   0.771   4.348   4.294
10547WAT     H231884   0.903   4.253   4.309
10548WAT      O31885   8.280   9.211   0.722
10548WAT     H131886   8.191   9.216   0.768
10548WAT     H231887   8.346   9.266   0.773
10549WAT      O31888   7.940   1.533   1.174
10549WAT     H131889   7.953   1.505   1.269
10549WAT     H231890   8.021   1.583   1.143
10550WAT      O31891   7.752   4.181   9.164
10550WAT     H131892   7.834   4.197   9.219
10550WAT     H231893   7.693   4.262   9.169
10551WAT      O31894   3.649   2.173   2.148
10551WAT     H131895   3.610   2.083   2.168
10551WAT     H231896   3.727   2.189   2.209
10552WAT      O31897   7.084   2.275   8.818
10552WAT     H131898   7.139   2.341   8.766
10552WAT     H231899   7.091   2.296   8.915
10553WAT      O31900   5.711   0.993   1.886
10553WAT     H131901   5.710   1.092   1.878
10553WAT     H231902   5.695   0.952   1.796
10554WAT      O31903   8.383   1.207   7.447
10554WAT     H131904   8.461   1.181   7.391
10554WAT     H231905   8.404   1.290   7.498
10555WAT      O31906   3.909   6.221   6.183
10555WAT     H131907   3.958   6.227   6.096
10555WAT     H231908   3.837   6.290   6.185
10556WAT      O31909   4.397   5.014   1.959
10556WAT     H131910   4.347   5.100   1.953
10556WAT     H231911   4.362   4.950   1.891
10557WAT      O31912   8.178   7.154   7.182
10557WAT     H131913   8.166   7.065   7.226
10557WAT     H231914   8.189   7.225   7.252
10558WAT      O31915   9.279   7.374   5.377
10558WAT     H131916   9.364   7.351   5.329
10558WAT     H231917   9.293   7.363   5.475
10559WAT      O31918   9.493   1.647   9.145
10559WAT     H131919   9.553   1.567   9.142
10559WAT     H231920   9.546   1.730   9.128
10560WAT      O31921   1.346   7.717   8.208
10560WAT     H131922   1.336   7.789   8.139
10560WAT     H231923   1.439   7.679   8.203
10561WAT      O31924   3.693   5.043   0.096
10561WAT     H131925   3.776   5.000   0.131
10561WAT     H231926   3.693   5.040  -0.004
10562WAT      O31927   6.077   8.012   9.263
10562WAT     H131928   6.025   7.940   9.308
10562WAT     H231929   6.069   8.002   9.164
10563WAT      O31930   7.892   9.317   2.539
10563WAT     H131931   7.866   9.329   2.443
10563WAT     H231932   7.812   9.331   2.598
10564WAT      O31933   2.005   7.585   1.481
10564WAT     H131934   1.931   7.626   1.428
10564WAT     H231935   1.971   7.562   1.573
10565WAT      O31936   2.570   8.590   9.368
10565WAT     H131937   2.504   8.517   9.386
10565WAT     H231938   2.617   8.614   9.453
10566WAT      O31939   4.578   6.932   7.602
10566WAT     H131940   4.532   6.844   7.603
10566WAT     H231941   4.625   6.946   7.688
10567WAT      O31942   4.771   3.786   4.174
10567WAT     H131943   4.834   3.778   4.251
10567WAT     H231944   4.678   3.768   4.206
10568WAT      O31945   4.065   9.143   5.159
10568WAT     H131946   4.104   9.139   5.250
10568WAT     H231947   4.094   9.063   5.106
10569WAT      O31948   3.708   2.476   8.726
10569WAT     H131949   3.745   2.384   8.709
10569WAT     H231950   3.749   2.540   8.662
10570WAT      O31951   4.678   8.589   6.857
10570WAT     H131952   4.595   8.543   6.887
10570WAT     H231953   4.725   8.630   6.936
10571WAT      O31954   8.683   9.557   9.132
10571WAT     H131955   8.776   9.545   9.098
10571WAT     H231956   8.633   9.622   9.074
10572WAT      O31957   0.682   6.541   5.648
10572WAT     H131958   0.779   6.539   5.621
10572WAT     H231959   0.670   6.487   5.732
10573WAT      O31960   5.537   1.880   0.098
10573WAT     H131961   5.603   1.928   0.040
10573WAT     H231962   5.540   1.782   0.078
10574WAT      O31963   0.719   9.463   9.289
10574WAT     H131964   0.799   9.410   9.261
10574WAT     H231965   0.637   9.409   9.274
10575WAT      O31966   6.915   4.971   3.901
10575WAT     H131967   6.958   4.943   3.815
10575WAT     H231968   6.974   4.943   3.977
10576WAT      O31969   0.768   4.781   1.265
10576WAT     H131970   0.822   4.752   1.186
10576WAT     H231971   0.777   4.713   1.338
10577WAT      O31972   6.256   3.014   0.649
10577WAT     H131973   6.283   3.102   0.611
10577WAT     H231974   6.157   3.012   0.661
10578WAT      O31975   0.505   2.500   7.870
10578WAT     H131976   0.503   2.569   7.799
10578WAT     H231977   0.546   2.538   7.953
10579WAT      O31978   5.007   1.769   0.813
10579WAT     H131979   5.090   1.787   0.866
10579WAT     H231980   4.928   1.806   0.862
10580WAT      O31981   6.839   8.569   7.513
10580WAT     H131982   6.910   8.533   7.453
10580WAT     H231983   6.882   8.615   7.591
10581WAT      O31984   7.999   1.391   4.877
10581WAT     H131985   7.937   1.469   4.890
10581WAT     H231986   8.020   1.381   4.780
10582WAT      O31987   2.722   0.521   3.574
10582WAT     H131988   2.761   0.581   3.645
10582WAT     H231989   2.744   0.426   3.596
10583WAT      O31990   2.051   2.763   7.793
10583WAT     H131991   2.082   2.858   7.794
10583WAT     H231992   2.129   2.702   7.808
10584WAT      O31993   8.005   0.450   5.311
10584WAT     H131994   8.025   0.410   5.221
10584WAT     H231995   8.032   0.385   5.383
10585WAT      O31996   9.009   8.840   2.773
10585WAT     H131997   8.912   8.837   2.749
10585WAT     H231998   9.042   8.747   2.791
10586WAT      O31999   9.270   7.253   8.716
10586WAT     H132000   9.193   7.221   8.770
10586WAT     H232001   9.327   7.314   8.772
10587WAT      O32002   0.884   3.962   7.947
10587WAT     H132003   0.983   3.976   7.941
10587WAT     H232004   0.862   3.920   8.035
10588WAT      O32005   2.026   6.076   7.825
10588WAT     H132006   2.041   6.042   7.918
10588WAT     H232007   2.107   6.056   7.769
10589WAT      O32008   3.471   8.910   2.330
10589WAT     H132009   3.536   8.921   2.406
10589WAT     H232010   3.460   8.813   2.308
10590WAT      O32011   2.703   9.833   1.624
10590WAT     H132012   2.647   9.762   1.667
10590WAT     H232013   2.797   9.824   1.656
10591WAT      O32014   9.061   8.147   9.002
10591WAT     H132015   8.997   8.190   9.066
10591WAT     H232016   9.155   8.168   9.030
10592WAT      O32017   4.854   0.593   7.687
10592WAT     H132018   4.842   0.646   7.771
10592WAT     H232019   4.902   0.649   7.620
10593WAT      O32020   9.491   5.437   7.457
10593WAT     H132021   9.434   5.355   7.468
10593WAT     H232022   9.577   5.424   7.506
10594WAT      O32023   6.048   5.455   5.478
10594WAT     H132024   6.089   5.522   5.416
10594WAT     H232025   6.043   5.366   5.433
10595WAT      O32026   2.028   4.771   8.083
10595WAT     H132027   2.117   4.745   8.046
10595WAT     H232028   2.003   4.861   8.047
10596WAT      O32029   7.104   7.689   5.856
10596WAT     H132030   7.128   7.736   5.771
10596WAT     H232031   7.113   7.752   5.933
10597WAT      O32032   6.939   1.421   0.619
10597WAT     H132033   6.862   1.365   0.588
10597WAT     H232034   6.948   1.415   0.718
10598WAT      O32035   3.348   7.000   9.293
10598WAT     H132036   3.417   7.047   9.238
10598WAT     H232037   3.389   6.971   9.380
10599WAT      O32038   2.469   0.945   7.574
10599WAT     H132039   2.536   0.967   7.645
10599WAT     H232040   2.512   0.953   7.484
10600WAT      O32041   7.821   5.664   4.197
10600WAT     H132042   7.832   5.657   4.098
10600WAT     H232043   7.739   5.718   4.218
10601WAT      O32044   1.734   8.084   8.099
10601WAT     H132045   1.673   8.048   8.028
10601WAT     H232046   1.801   8.014   8.124
10602WAT      O32047   2.351   6.718   2.215
10602WAT     H132048   2.360   6.769   2.130
10602WAT     H232049   2.438   6.720   2.264
10603WAT      O32050   4.901   7.400   8.153
10603WAT     H132051   4.982   7.421   8.098
10603WAT     H232052   4.930   7.376   8.246
10604WAT      O32053   5.398   6.711   4.402
10604WAT     H132054   5.482   6.766   4.406
10604WAT     H232055   5.327   6.756   4.457
10605WAT      O32056   6.420   0.339   9.283
10605WAT     H132057   6.351   0.391   9.233
10605WAT     H232058   6.459   0.396   9.355
10606WAT      O32059   1.275   8.892   2.134
10606WAT     H132060   1.206   8.962   2.152
10606WAT     H232061   1.329   8.877   2.216
10607WAT      O32062   6.641   1.506   6.737
10607WAT     H132063   6.618   1.587   6.683
10607WAT     H232064   6.559   1.473   6.783
10608WAT      O32065   9.119   0.897   2.070
10608WAT     H132066   9.092   0.937   1.983
10608WAT     H232067   9.201   0.842   2.057
10609WAT      O32068   1.023   1.898   3.381
10609WAT     H132069   0.964   1.864   3.454
10609WAT     H232070   0.989   1.867   3.293
10610WAT      O32071   6.591   6.799   6.776
10610WAT     H132072   6.496   6.798   6.808
10610WAT     H232073   6.640   6.874   6.820
10611WAT      O32074   1.875   3.077   8.214
10611WAT     H132075   1.929   3.090   8.131
10611WAT     H232076   1.829   2.988   8.211
10612WAT      O32077   2.021   5.228   2.265
10612WAT     H132078   2.100   5.186   2.220
10612WAT     H232079   2.002   5.181   2.351
10613WAT      O32080   0.226   9.842   7.232
10613WAT     H132081   0.200   9.816   7.139
10613WAT     H232082   0.162   9.802   7.297
10614WAT      O32083   3.932   8.795   3.397
10614WAT     H132084   3.896   8.729   3.463
10614WAT     H232085   3.874   8.795   3.315
10615WAT      O32086   5.295   1.162   8.450
10615WAT     H132087   5.388   1.126   8.449
10615WAT     H232088   5.230   1.087   8.440
10616WAT      O32089   1.034   8.573   6.993
10616WAT     H132090   1.023   8.672   7.004
10616WAT     H232091   0.944   8.531   6.979
10617WAT      O32092   8.609   8.741   7.087
10617WAT     H132093   8.528   8.738   7.028
10617WAT     H232094   8.589   8.693   7.172
10618WAT      O32095   3.156   5.860   3.793
10618WAT     H132096   3.099   5.928   3.746
10618WAT     H232097   3.158   5.880   3.891
10619WAT      O32098   7.913   5.585   6.245
10619WAT     H132099   7.895   5.684   6.241
10619WAT     H232100   7.954   5.556   6.159
10620WAT      O32101   7.652   8.818   3.174
10620WAT     H132102   7.735   8.808   3.227
10620WAT     H232103   7.574   8.782   3.226
10621WAT      O32104   4.231   4.030   5.421
10621WAT     H132105   4.217   3.998   5.514
10621WAT     H232106   4.176   4.112   5.405
10622WAT      O32107   3.863   0.361   4.601
10622WAT     H132108   3.873   0.356   4.502
10622WAT     H232109   3.952   0.344   4.645
10623WAT      O32110   0.701   8.287   8.541
10623WAT     H132111   0.678   8.304   8.637
10623WAT     H232112   0.787   8.236   8.536
10624WAT      O32113   3.724   1.531   4.898
10624WAT     H132114   3.640   1.530   4.952
10624WAT     H232115   3.743   1.624   4.867
10625WAT      O32116   1.625   8.306   6.196
10625WAT     H132117   1.580   8.286   6.283
10625WAT     H232118   1.568   8.275   6.120
10626WAT      O32119   8.445   0.186   3.508
10626WAT     H132120   8.453   0.247   3.430
10626WAT     H232121   8.477   0.094   3.483
10627WAT      O32122   9.582   8.895   7.749
10627WAT     H132123   9.504   8.957   7.754
10627WAT     H232124   9.646   8.916   7.822
10628WAT      O32125   2.110   6.784   8.165
10628WAT     H132126   2.156   6.866   8.132
10628WAT     H232127   2.119   6.778   8.264
10629WAT      O32128   9.243   8.919   7.972
10629WAT     H132129   9.215   8.823   7.967
10629WAT     H232130   9.229   8.953   8.064
10630WAT      O32131   9.786   4.096   5.496
10630WAT     H132132   9.828   4.046   5.421
10630WAT     H232133   9.854   4.153   5.541
10631WAT      O32134   6.848   2.860   0.529
10631WAT     H132135   6.822   2.892   0.620
10631WAT     H232136   6.893   2.772   0.536
10632WAT      O32137   3.570   7.718   3.989
10632WAT     H132138   3.555   7.620   3.981
10632WAT     H232139   3.556   7.747   4.084
10633WAT      O32140   8.332   5.113   3.331
10633WAT     H132141   8.361   5.042   3.266
10633WAT     H232142   8.301   5.193   3.280
10634WAT      O32143   1.157   0.894   8.839
10634WAT     H132144   1.182   0.985   8.806
10634WAT     H232145   1.177   0.826   8.768
10635WAT      O32146   1.902   5.527   9.642
10635WAT     H132147   1.981   5.563   9.691
10635WAT     H232148   1.912   5.428   9.630
10636WAT      O32149   1.299   1.760   5.090
10636WAT     H132150   1.358   1.708   5.153
10636WAT     H232151   1.342   1.763   5.000
10637WAT      O32152   3.739   5.014   0.444
10637WAT     H132153   3.664   4.953   0.468
10637WAT     H232154   3.826   4.967   0.458
10638WAT      O32155   4.331   8.343   8.602
10638WAT     H132156   4.263   8.381   8.539
10638WAT     H232157   4.417   8.326   8.552
10639WAT      O32158   7.413   7.969   1.178
10639WAT     H132159   7.398   7.918   1.263
10639WAT     H232160   7.411   8.067   1.197
10640WAT      O32161   2.291   6.093   2.288
10640WAT     H132162   2.293   6.008   2.235
10640WAT     H232163   2.209   6.144   2.264
10641WAT      O32164   6.701   6.249   3.002
10641WAT     H132165   6.620   6.282   3.052
10641WAT     H232166   6.772   6.224   3.068
10642WAT      O32167   7.339   3.288   1.899
10642WAT     H132168   7.291   3.342   1.830
10642WAT     H232169   7.434   3.274   1.871
10643WAT      O32170   3.935   5.039   3.715
10643WAT     H132171   3.954   5.000   3.806
10643WAT     H232172   3.914   5.136   3.724
10644WAT      O32173   4.420   9.423   3.649
10644WAT     H132174   4.329   9.400   3.613
10644WAT     H232175   4.490   9.381   3.591
10645WAT      O32176   8.787   5.738   6.233
10645WAT     H132177   8.870   5.778   6.194
10645WAT     H232178   8.795   5.638   6.234
10646WAT      O32179   7.401   4.347   4.483
10646WAT     H132180   7.348   4.262   4.491
10646WAT     H232181   7.498   4.327   4.488
10647WAT      O32182   3.569   9.037   1.316
10647WAT     H132183   3.557   9.134   1.334
10647WAT     H232184   3.641   9.000   1.375
10648WAT      O32185   6.229   8.659   6.410
10648WAT     H132186   6.226   8.758   6.420
10648WAT     H232187   6.216   8.635   6.314
10649WAT      O32188   9.492   2.884   7.869
10649WAT     H132189   9.403   2.907   7.908
10649WAT     H232190   9.554   2.963   7.878
10650WAT      O32191   9.614   2.578   2.086
10650WAT     H132192   9.687   2.646   2.075
10650WAT     H232193   9.654   2.491   2.116
10651WAT      O32194   3.230   5.369   7.225
10651WAT     H132195   3.176   5.290   7.253
10651WAT     H232196   3.247   5.364   7.126
10652WAT      O32197   0.792   8.577   6.408
10652WAT     H132198   0.870   8.637   6.393
10652WAT     H232199   0.787   8.552   6.505
10653WAT      O32200   3.482   3.539   8.759
10653WAT     H132201   3.443   3.546   8.851
10653WAT     H232202   3.490   3.442   8.734
10654WAT      O32203   5.424   3.396   2.369
10654WAT     H132204   5.430   3.315   2.311
10654WAT     H232205   5.340   3.392   2.423
10655WAT      O32206   6.232   1.565   3.851
10655WAT     H132207   6.155   1.576   3.914
10655WAT     H232208   6.205   1.598   3.761
10656WAT      O32209   2.656   6.927   8.403
10656WAT     H132210   2.629   6.905   8.497
10656WAT     H232211   2.731   6.993   8.404
10657WAT      O32212   1.140   2.743   3.670
10657WAT     H132213   1.161   2.751   3.767
10657WAT     H232214   1.192   2.667   3.631
10658WAT      O32215   8.698   9.195   9.803
10658WAT     H132216   8.750   9.170   9.884
10658WAT     H232217   8.746   9.265   9.752
10659WAT      O32218   2.933   1.538   3.813
10659WAT     H132219   2.989   1.514   3.892
10659WAT     H232220   2.979   1.510   3.729
10660WAT      O32221   7.123   3.221   9.199
10660WAT     H132222   7.091   3.290   9.264
10660WAT     H232223   7.183   3.264   9.131
10661WAT      O32224   3.734   3.964   1.075
10661WAT     H132225   3.708   4.001   0.985
10661WAT     H232226   3.829   3.936   1.073
10662WAT      O32227   9.395   2.433   7.442
10662WAT     H132228   9.443   2.397   7.361
10662WAT     H232229   9.462   2.473   7.505
10663WAT      O32230   5.754   0.949   6.984
10663WAT     H132231   5.807   1.013   7.041
10663WAT     H232232   5.799   0.860   6.983
10664WAT      O32233   6.270   7.964   0.024
10664WAT     H132234   6.332   7.901  -0.024
10664WAT     H232235   6.189   7.980  -0.032
10665WAT      O32236   4.706   0.292   0.184
10665WAT     H132237   4.778   0.225   0.165
10665WAT     H232238   4.620   0.244   0.200
10666WAT      O32239   5.749   2.550   1.291
10666WAT     H132240   5.805   2.552   1.208
10666WAT     H232241   5.806   2.528   1.370
10667WAT      O32242   0.208   1.447   5.837
10667WAT     H132243   0.281   1.384   5.809
10667WAT     H232244   0.136   1.448   5.767
10668WAT      O32245   1.552   4.895   8.961
10668WAT     H132246   1.528   4.803   8.929
10668WAT     H232247   1.577   4.952   8.883
10669WAT      O32248   6.197   1.986   5.394
10669WAT     H132249   6.129   2.029   5.452
10669WAT     H232250   6.285   2.034   5.404
10670WAT      O32251   1.331   2.943   3.295
10670WAT     H132252   1.247   2.897   3.324
10670WAT     H232253   1.362   2.905   3.208
10671WAT      O32254   6.837   0.313   6.256
10671WAT     H132255   6.923   0.363   6.270
10671WAT     H232256   6.856   0.227   6.209
10672WAT      O32257   3.643   1.904   6.169
10672WAT     H132258   3.656   1.874   6.074
10672WAT     H232259   3.672   1.999   6.178
10673WAT      O32260   5.869   2.658   6.841
10673WAT     H132261   5.801   2.590   6.815
10673WAT     H232262   5.825   2.733   6.889
10674WAT      O32263   9.132   5.101   8.146
10674WAT     H132264   9.227   5.123   8.125
10674WAT     H232265   9.095   5.041   8.075
10675WAT      O32266   4.294   4.560   4.577
10675WAT     H132267   4.221   4.628   4.567
10675WAT     H232268   4.348   4.557   4.493
10676WAT      O32269   0.436   0.019   4.979
10676WAT     H132270   0.507  -0.040   4.939
10676WAT     H232271   0.360  -0.038   5.010
10677WAT      O32272   3.630   3.420   9.603
10677WAT     H132273   3.706   3.388   9.659
10677WAT     H232274   3.616   3.357   9.526
10678WAT      O32275   5.190   4.579   7.251
10678WAT     H132276   5.163   4.648   7.319
10678WAT     H232277   5.278   4.604   7.212
10679WAT      O32278   5.416   9.690   3.956
10679WAT     H132279   5.445   9.610   4.007
10679WAT     H232280   5.364   9.751   4.016
10680WAT      O32281   1.222   5.439   1.160
10680WAT     H132282   1.297   5.408   1.218
10680WAT     H232283   1.231   5.538   1.144
10681WAT      O32284   7.745   4.597   5.784
10681WAT     H132285   7.721   4.655   5.861
10681WAT     H232286   7.822   4.539   5.809
10682WAT      O32287   9.871   6.982   8.610
10682WAT     H132288   9.951   6.923   8.622
10682WAT     H232289   9.839   7.014   8.699
10683WAT      O32290   0.063   0.981   5.337
10683WAT     H132291   0.046   0.917   5.412
10683WAT     H232292   0.162   0.985   5.319
10684WAT      O32293   8.197   0.585   9.043
10684WAT     H132294   8.235   0.675   9.063
10684WAT     H232295   8.252   0.540   8.973
10685WAT      O32296   8.799   2.751   7.807
10685WAT     H132297   8.853   2.673   7.836
10685WAT     H232298   8.799   2.757   7.707
10686WAT      O32299   3.244   7.068   3.583
10686WAT     H132300   3.296   7.145   3.544
10686WAT     H232301   3.251   6.989   3.523
10687WAT      O32302   4.188   0.073   1.646
10687WAT     H132303   4.161  -0.023   1.651
10687WAT     H232304   4.171   0.117   1.734
10688WAT      O32305   6.834   0.834   3.389
10688WAT     H132306   6.774   0.782   3.450
10688WAT     H232307   6.838   0.929   3.420
10689WAT      O32308   0.122   4.731   9.395
10689WAT     H132309   0.162   4.656   9.448
10689WAT     H232310   0.142   4.818   9.439
10690WAT      O32311   9.143   2.418   8.275
10690WAT     H132312   9.208   2.448   8.205
10690WAT     H232313   9.185   2.348   8.332
10691WAT      O32314   6.141   8.719   8.955
10691WAT     H132315   6.233   8.692   8.927
10691WAT     H232316   6.083   8.731   8.874
10692WAT      O32317   7.163   3.563   9.049
10692WAT     H132318   7.241   3.586   9.108
10692WAT     H232319   7.195   3.547   8.956
10693WAT      O32320   8.320   2.836   6.620
10693WAT     H132321   8.314   2.889   6.536
10693WAT     H232322   8.276   2.886   6.694
10694WAT      O32323   9.395   4.536   5.677
10694WAT     H132324   9.431   4.474   5.747
10694WAT     H232325   9.417   4.630   5.702
10695WAT      O32326   9.270   8.487   9.729
10695WAT     H132327   9.275   8.395   9.690
10695WAT     H232328   9.337   8.546   9.686
10696WAT      O32329   7.775   0.896   9.422
10696WAT     H132330   7.822   0.809   9.410
10696WAT     H232331   7.761   0.938   9.333
10697WAT      O32332   0.130   6.674   4.482
10697WAT     H132333   0.081   6.721   4.555
10697WAT     H232334   0.175   6.742   4.424
10698WAT      O32335   4.899   9.729   1.819
10698WAT     H132336   4.847   9.814   1.826
10698WAT     H232337   4.926   9.699   1.910
10699WAT      O32338   1.468   1.824   9.405
10699WAT     H132339   1.383   1.780   9.374
10699WAT     H232340   1.485   1.799   9.500
10700WAT      O32341   9.038   3.278   6.882
10700WAT     H132342   9.073   3.371   6.880
10700WAT     H232343   9.022   3.250   6.977
10701WAT      O32344   2.442   0.842   0.156
10701WAT     H132345   2.344   0.859   0.152
10701WAT     H232346   2.491   0.929   0.170
10702WAT      O32347   9.505   1.961   2.001
10702WAT     H132348   9.495   1.910   2.086
10702WAT     H232349   9.474   1.904   1.925
10703WAT      O32350   1.959   0.629   9.066
10703WAT     H132351   1.922   0.566   9.135
10703WAT     H232352   1.946   0.723   9.097
10704WAT      O32353   0.880   4.596   3.198
10704WAT     H132354   0.878   4.509   3.149
10704WAT     H232355   0.943   4.589   3.276
10705WAT      O32356   1.996   5.050   2.471
10705WAT     H132357   2.094   5.061   2.482
10705WAT     H232358   1.962   4.982   2.536
10706WAT      O32359   4.981   8.407   3.067
10706WAT     H132360   4.964   8.310   3.082
10706WAT     H232361   5.079   8.426   3.069
10707WAT      O32362   5.347   8.935   6.510
10707WAT     H132363   5.262   8.968   6.468
10707WAT     H232364   5.343   8.836   6.522
10708WAT      O32365   7.310   0.033   5.316
10708WAT     H132366   7.276   0.110   5.261
10708WAT     H232367   7.247  -0.044   5.308
10709WAT      O32368   5.702   1.251   3.553
10709WAT     H132369   5.763   1.276   3.478
10709WAT     H232370   5.756   1.211   3.627
10710WAT      O32371   6.498   5.022   1.047
10710WAT     H132372   6.586   5.027   0.999
10710WAT     H232373   6.487   5.102   1.105
10711WAT      O32374   8.989   6.085   7.983
10711WAT     H132375   8.986   6.124   8.075
10711WAT     H232376   8.957   5.990   7.986
10712WAT      O32377   1.114   7.033   5.030
10712WAT     H132378   1.072   7.059   4.943
10712WAT     H232379   1.046   6.989   5.088
10713WAT      O32380   9.251   8.905   1.256
10713WAT     H132381   9.230   8.833   1.323
10713WAT     H232382   9.166   8.940   1.218
10714WAT      O32383   0.482   8.558   7.418
10714WAT     H132384   0.556   8.589   7.478
10714WAT     H232385   0.399   8.545   7.471
10715WAT      O32386   3.343   0.645   7.262
10715WAT     H132387   3.435   0.676   7.285
10715WAT     H232388   3.338   0.546   7.273
10716WAT      O32389   4.665   2.032   8.021
10716WAT     H132390   4.615   2.016   7.936
10716WAT     H232391   4.629   2.114   8.065
10717WAT      O32392   4.880   4.540   5.834
10717WAT     H132393   4.923   4.536   5.744
10717WAT     H232394   4.932   4.602   5.893
10718WAT      O32395   5.915   0.374   2.981
10718WAT     H132396   5.920   0.311   3.059
10718WAT     H232397   5.823   0.413   2.977
10719WAT      O32398   9.114   5.941   4.219
10719WAT     H132399   9.111   6.034   4.181
10719WAT     H232400   9.164   5.882   4.156
10720WAT      O32401   3.810   6.097   5.787
10720WAT     H132402   3.746   6.171   5.765
10720WAT     H232403   3.776   6.047   5.867
10721WAT      O32404   9.449   3.201   9.138
10721WAT     H132405   9.395   3.258   9.200
10721WAT     H232406   9.427   3.105   9.152
10722WAT      O32407   0.742   9.080   2.517
10722WAT     H132408   0.682   9.114   2.445
10722WAT     H232409   0.729   9.133   2.601
10723WAT      O32410   1.724   5.795   7.912
10723WAT     H132411   1.665   5.736   7.967
10723WAT     H232412   1.754   5.746   7.830
10724WAT      O32413   4.654   0.552   7.978
10724WAT     H132414   4.623   0.511   8.064
10724WAT     H232415   4.690   0.481   7.918
10725WAT      O32416   1.847   9.533   4.808
10725WAT     H132417   1.912   9.471   4.763
10725WAT     H232418   1.766   9.543   4.751
10726WAT      O32419   3.551   2.425   5.258
10726WAT     H132420   3.594   2.513   5.236
10726WAT     H232421   3.565   2.406   5.355
10727WAT      O32422   4.874   3.026   3.268
10727WAT     H132423   4.846   2.991   3.179
10727WAT     H232424   4.891   2.949   3.330
10728WAT      O32425   9.338   3.316   9.358
10728WAT     H132426   9.269   3.271   9.415
10728WAT     H232427   9.403   3.365   9.417
10729WAT      O32428   7.458   6.961   7.503
10729WAT     H132429   7.546   6.981   7.459
10729WAT     H232430   7.466   6.877   7.556
10730WAT      O32431   5.871   3.324   5.072
10730WAT     H132432   5.803   3.303   5.001
10730WAT     H232433   5.963   3.319   5.033
10731WAT      O32434   4.128   5.875   0.381
10731WAT     H132435   4.226   5.887   0.366
10731WAT     H232436   4.099   5.787   0.344
10732WAT      O32437   1.696   6.644   3.152
10732WAT     H132438   1.721   6.553   3.185
10732WAT     H232439   1.647   6.693   3.224
10733WAT      O32440   3.069   4.091   1.448
10733WAT     H132441   3.022   4.039   1.519
10733WAT     H232442   3.113   4.171   1.488
10734WAT      O32443   4.801   6.484   0.270
10734WAT     H132444   4.872   6.530   0.322
10734WAT     H232445   4.805   6.515   0.175
10735WAT      O32446   7.842   5.971   7.913
10735WAT     H132447   7.812   6.002   8.004
10735WAT     H232448   7.772   5.996   7.845
10736WAT      O32449   4.667   4.906   3.051
10736WAT     H132450   4.635   4.858   2.969
10736WAT     H232451   4.593   4.964   3.086
10737WAT      O32452   9.510   7.604   1.527
10737WAT     H132453   9.546   7.523   1.573
10737WAT     H232454   9.585   7.669   1.509
10738WAT      O32455   3.258   5.666   1.922
10738WAT     H132456   3.186   5.690   1.988
10738WAT     H232457   3.332   5.733   1.928
10739WAT      O32458   8.694   4.552   9.755
10739WAT     H132459   8.657   4.464   9.786
10739WAT     H232460   8.620   4.608   9.719
10740WAT      O32461   0.693   9.690   6.911
10740WAT     H132462   0.737   9.681   6.821
10740WAT     H232463   0.633   9.770   6.911
10741WAT      O32464   9.506   5.574   9.824
10741WAT     H132465   9.581   5.551   9.762
10741WAT     H232466   9.439   5.500   9.824
10742WAT      O32467   9.444   7.978   4.281
10742WAT     H132468   9.498   8.048   4.236
10742WAT     H232469   9.504   7.917   4.332
10743WAT      O32470   1.264   7.898   6.351
10743WAT     H132471   1.350   7.846   6.346
10743WAT     H232472   1.219   7.879   6.438
10744WAT      O32473   5.211   8.076   9.567
10744WAT     H132474   5.209   8.110   9.661
10744WAT     H232475   5.190   8.151   9.504
10745WAT      O32476   2.371   2.347   8.370
10745WAT     H132477   2.454   2.293   8.386
10745WAT     H232478   2.350   2.401   8.451
10746WAT      O32479   3.829   1.615   0.622
10746WAT     H132480   3.785   1.675   0.688
10746WAT     H232481   3.916   1.583   0.659
10747WAT      O32482   8.110   9.592   1.737
10747WAT     H132483   8.149   9.501   1.746
10747WAT     H232484   8.093   9.612   1.640
10748WAT      O32485   0.335   7.660   5.742
10748WAT     H132486   0.419   7.608   5.722
10748WAT     H232487   0.360   7.753   5.769
10749WAT      O32488   5.029   9.503   8.243
10749WAT     H132489   5.060   9.525   8.150
10749WAT     H232490   4.965   9.426   8.239
10750WAT      O32491   3.754   1.098   1.370
10750WAT     H132492   3.816   1.102   1.292
10750WAT     H232493   3.728   1.191   1.397
10751WAT      O32494   5.955   8.663   6.207
10751WAT     H132495   5.949   8.727   6.131
10751WAT     H232496   5.966   8.713   6.293
10752WAT      O32497   2.700   1.173   5.202
10752WAT     H132498   2.682   1.268   5.227
10752WAT     H232499   2.738   1.124   5.280
10753WAT      O32500   1.037   0.872   6.452
10753WAT     H132501   0.971   0.854   6.525
10753WAT     H232502   1.018   0.960   6.410
10754WAT      O32503   0.068   9.374   2.633
10754WAT     H132504   0.073   9.447   2.564
10754WAT     H232505   0.026   9.293   2.593
10755WAT      O32506   8.527   7.584   7.031
10755WAT     H132507   8.470   7.575   7.112
10755WAT     H232508   8.572   7.496   7.012
10756WAT      O32509   7.547   2.830   2.822
10756WAT     H132510   7.484   2.880   2.881
10756WAT     H232511   7.500   2.750   2.784
10757WAT      O32512   0.933   8.021   6.457
10757WAT     H132513   1.022   8.051   6.490
10757WAT     H232514   0.889   7.965   6.527
10758WAT      O32515   3.499   5.296   7.815
10758WAT     H132516   3.495   5.327   7.910
10758WAT     H232517   3.410   5.312   7.771
10759WAT      O32518   8.439   8.460   0.439
10759WAT     H132519   8.525   8.415   0.417
10759WAT     H232520   8.363   8.412   0.393
10760WAT      O32521   0.864   3.239   0.175
10760WAT     H132522   0.946   3.237   0.118
10760WAT     H232523   0.787   3.199   0.124
10761WAT      O32524   1.690   8.302   3.963
10761WAT     H132525   1.766   8.291   3.900
10761WAT     H232526   1.718   8.363   4.038
10762WAT      O32527   7.758   1.501   6.075
10762WAT     H132528   7.687   1.454   6.023
10762WAT     H232529   7.717   1.543   6.156
10763WAT      O32530   5.445   5.193   6.670
10763WAT     H132531   5.449   5.108   6.619
10763WAT     H232532   5.491   5.182   6.759
10764WAT      O32533   3.859   2.147   0.917
10764WAT     H132534   3.769   2.103   0.921
10764WAT     H232535   3.858   2.229   0.974
10765WAT      O32536   3.353   3.652   6.185
10765WAT     H132537   3.355   3.559   6.220
10765WAT     H232538   3.264   3.694   6.206
10766WAT      O32539   2.103   1.065   1.096
10766WAT     H132540   2.053   1.030   1.175
10766WAT     H232541   2.189   1.107   1.126
10767WAT      O32542   4.979   7.055   9.312
10767WAT     H132543   4.983   7.147   9.352
10767WAT     H232544   4.891   7.042   9.267
10768WAT      O32545   5.781   7.293   6.625
10768WAT     H132546   5.700   7.246   6.588
10768WAT     H232547   5.758   7.333   6.714
10769WAT      O32548   4.579   7.666   1.191
10769WAT     H132549   4.563   7.711   1.279
10769WAT     H232550   4.508   7.695   1.126
10770WAT      O32551   7.743   0.501   7.055
10770WAT     H132552   7.827   0.478   7.103
10770WAT     H232553   7.720   0.597   7.071
10771WAT      O32554   5.817   6.144   9.351
10771WAT     H132555   5.790   6.120   9.258
10771WAT     H232556   5.795   6.068   9.413
10772WAT      O32557   2.426   4.112   0.437
10772WAT     H132558   2.394   4.139   0.528
10772WAT     H232559   2.442   4.194   0.382
10773WAT      O32560   3.813   6.336   9.588
10773WAT     H132561   3.859   6.281   9.519
10773WAT     H232562   3.875   6.408   9.619
10774WAT      O32563   4.133   3.576   5.983
10774WAT     H132564   4.230   3.577   6.008
10774WAT     H232565   4.099   3.670   5.976
10775WAT      O32566   6.952   5.493   2.789
10775WAT     H132567   6.993   5.580   2.762
10775WAT     H232568   6.947   5.488   2.889
10776WAT      O32569   1.306   5.838   4.839
10776WAT     H132570   1.366   5.896   4.895
10776WAT     H232571   1.298   5.878   4.748
10777WAT      O32572   7.511   4.451   6.044
10777WAT     H132573   7.532   4.444   5.947
10777WAT     H232574   7.473   4.364   6.076
10778WAT      O32575   6.191   0.938   5.955
10778WAT     H132576   6.167   0.967   6.048
10778WAT     H232577   6.225   1.017   5.903
10779WAT      O32578   2.457   4.119   6.490
10779WAT     H132579   2.422   4.064   6.414
10779WAT     H232580   2.552   4.095   6.507
10780WAT      O32581   1.825   5.752   0.255
10780WAT     H132582   1.909   5.789   0.215
10780WAT     H232583   1.749   5.815   0.237
10781WAT      O32584   1.571   2.390   2.562
10781WAT     H132585   1.478   2.421   2.583
10781WAT     H232586   1.624   2.467   2.528
10782WAT      O32587   1.411   2.517   3.354
10782WAT     H132588   1.333   2.495   3.413
10782WAT     H232589   1.467   2.435   3.341
10783WAT      O32590   6.421   4.979   3.419
10783WAT     H132591   6.411   4.974   3.519
10783WAT     H232592   6.392   5.069   3.387
10784WAT      O32593   2.911   3.023   4.120
10784WAT     H132594   2.982   3.018   4.050
10784WAT     H232595   2.927   3.103   4.177
10785WAT      O32596   4.215   9.782   6.555
10785WAT     H132597   4.160   9.815   6.632
10785WAT     H232598   4.200   9.841   6.476
10786WAT      O32599   0.860   4.960   7.220
10786WAT     H132600   0.827   4.867   7.205
10786WAT     H232601   0.800   5.006   7.285
10787WAT      O32602   6.064   1.566   3.406
10787WAT     H132603   5.966   1.571   3.386
10787WAT     H232604   6.113   1.537   3.324
10788WAT      O32605   2.081   9.785   2.612
10788WAT     H132606   2.137   9.837   2.676
10788WAT     H232607   2.118   9.795   2.520
10789WAT      O32608   8.729   4.190   3.151
10789WAT     H132609   8.821   4.178   3.114
10789WAT     H232610   8.689   4.101   3.172
10790WAT      O32611   4.434   6.519   2.472
10790WAT     H132612   4.509   6.545   2.532
10790WAT     H232613   4.411   6.423   2.487
10791WAT      O32614   9.521   3.971   6.389
10791WAT     H132615   9.489   4.064   6.368
10791WAT     H232616   9.618   3.963   6.367
10792WAT      O32617   4.444   5.598   9.850
10792WAT     H132618   4.525   5.541   9.832
10792WAT     H232619   4.379   5.586   9.774
10793WAT      O32620   7.683   0.602   3.564
10793WAT     H132621   7.753   0.535   3.539
10793WAT     H232622   7.620   0.615   3.488
10794WAT      O32623   6.684   5.913   3.025
10794WAT     H132624   6.642   5.997   2.992
10794WAT     H232625   6.714   5.925   3.119
10795WAT      O32626   2.048   1.019   5.294
10795WAT     H132627   1.951   1.035   5.312
10795WAT     H232628   2.085   0.955   5.361
10796WAT      O32629   7.250   4.243   4.201
10796WAT     H132630   7.323   4.278   4.260
10796WAT     H232631   7.237   4.145   4.219
10797WAT      O32632   2.775   7.802   1.604
10797WAT     H132633   2.799   7.833   1.695
10797WAT     H232634   2.700   7.858   1.568
10798WAT      O32635   5.320   0.692   3.673
10798WAT     H132636   5.401   0.724   3.722
10798WAT     H232637   5.259   0.769   3.654
10799WAT      O32638   8.931   5.258   2.256
10799WAT     H132639   8.885   5.344   2.234
10799WAT     H232640   8.965   5.216   2.172
10800WAT      O32641   7.557   1.435   5.183
10800WAT     H132642   7.637   1.492   5.168
10800WAT     H232643   7.569   1.381   5.266
10801WAT      O32644   9.282   2.891   6.647
10801WAT     H132645   9.208   2.847   6.597
10801WAT     H232646   9.308   2.835   6.725
10802WAT      O32647   0.105   8.608   9.321
10802WAT     H132648   0.112   8.522   9.270
10802WAT     H232649   0.194   8.654   9.321
10803WAT      O32650   5.211   5.843   5.330
10803WAT     H132651   5.257   5.811   5.247
10803WAT     H232652   5.114   5.820   5.326
10804WAT      O32653   6.170   1.334   8.927
10804WAT     H132654   6.100   1.307   8.993
10804WAT     H232655   6.260   1.327   8.970
10805WAT      O32656   7.761   8.008   7.664
10805WAT     H132657   7.821   7.974   7.590
10805WAT     H232658   7.800   7.982   7.752
10806WAT      O32659   3.554   0.325   1.654
10806WAT     H132660   3.539   0.266   1.575
10806WAT     H232661   3.560   0.421   1.625
10807WAT      O32662   1.165   3.336   3.715
10807WAT     H132663   1.263   3.357   3.708
10807WAT     H232664   1.145   3.255   3.661
10808WAT      O32665   0.996   4.217   0.045
10808WAT     H132666   1.060   4.143   0.067
10808WAT     H232667   0.961   4.257   0.130
10809WAT      O32668   8.077   8.755   7.579
10809WAT     H132669   8.019   8.686   7.621
10809WAT     H232670   8.040   8.846   7.598
10810WAT      O32671   9.082   3.883   0.687
10810WAT     H132672   9.070   3.788   0.715
10810WAT     H232673   9.179   3.908   0.692
10811WAT      O32674   6.747   4.271   2.664
10811WAT     H132675   6.680   4.200   2.686
10811WAT     H232676   6.827   4.229   2.620
10812WAT      O32677   7.351   7.023   9.818
10812WAT     H132678   7.262   7.067   9.803
10812WAT     H232679   7.371   7.022   9.916
10813WAT      O32680   0.995   8.449   2.649
10813WAT     H132681   1.001   8.432   2.748
10813WAT     H232682   0.904   8.423   2.617
10814WAT      O32683   9.469   6.214   4.665
10814WAT     H132684   9.513   6.195   4.577
10814WAT     H232685   9.386   6.268   4.650
10815WAT      O32686   1.476   3.290   5.300
10815WAT     H132687   1.535   3.357   5.255
10815WAT     H232688   1.531   3.229   5.357
10816WAT      O32689   9.188   4.115   6.136
10816WAT     H132690   9.164   4.132   6.232
10816WAT     H232691   9.184   4.201   6.086
10817WAT      O32692   4.623   0.080   0.672
10817WAT     H132693   4.552   0.150   0.663
10817WAT     H232694   4.628   0.027   0.587
10818WAT      O32695   1.734   5.243   2.787
10818WAT     H132696   1.734   5.148   2.754
10818WAT     H232697   1.727   5.305   2.709
10819WAT      O32698   3.079   0.272   3.868
10819WAT     H132699   3.119   0.341   3.927
10819WAT     H232700   3.101   0.292   3.772
10820WAT      O32701   3.546   5.246   4.259
10820WAT     H132702   3.545   5.146   4.258
10820WAT     H232703   3.601   5.277   4.336
10821WAT      O32704   9.451   9.084   6.149
10821WAT     H132705   9.480   9.043   6.236
10821WAT     H232706   9.431   9.181   6.163
10822WAT      O32707   8.329   8.439   7.489
10822WAT     H132708   8.286   8.349   7.493
10822WAT     H232709   8.373   8.459   7.577
10823WAT      O32710   3.865   6.732   7.358
10823WAT     H132711   3.838   6.660   7.422
10823WAT     H232712   3.889   6.691   7.270
10824WAT      O32713   1.290   5.691   1.048
10824WAT     H132714   1.208   5.709   0.994
10824WAT     H232715   1.343   5.775   1.057
10825WAT      O32716   3.094   6.211   6.351
10825WAT     H132717   3.066   6.133   6.295
10825WAT     H232718   3.108   6.290   6.292
10826WAT      O32719   6.033   4.443   4.351
10826WAT     H132720   6.062   4.471   4.259
10826WAT     H232721   6.039   4.344   4.359
10827WAT      O32722   2.868   9.021   9.172
10827WAT     H132723   2.923   8.988   9.095
10827WAT     H232724   2.807   9.094   9.141
10828WAT      O32725   0.858   1.403   2.784
10828WAT     H132726   0.836   1.306   2.796
10828WAT     H232727   0.846   1.429   2.688
10829WAT      O32728   7.216   7.947   9.542
10829WAT     H132729   7.300   7.977   9.497
10829WAT     H232730   7.148   8.019   9.537
10830WAT      O32731   9.689   9.712   5.799
10830WAT     H132732   9.714   9.791   5.743
10830WAT     H232733   9.740   9.632   5.768
10831WAT      O32734   9.084   7.839   8.504
10831WAT     H132735   9.129   7.749   8.503
10831WAT     H232736   9.042   7.854   8.594
10832WAT      O32737   4.190   8.714   6.082
10832WAT     H132738   4.103   8.759   6.104
10832WAT     H232739   4.223   8.747   5.993
10833WAT      O32740   1.057   3.376   9.003
10833WAT     H132741   1.044   3.295   9.061
10833WAT     H232742   1.121   3.438   9.048
10834WAT      O32743   0.082   4.711   5.974
10834WAT     H132744  -0.000   4.661   6.003
10834WAT     H232745   0.056   4.786   5.913
10835WAT      O32746   8.604   8.309   9.789
10835WAT     H132747   8.701   8.332   9.784
10835WAT     H232748   8.560   8.366   9.858
10836WAT      O32749   1.804   8.099   5.920
10836WAT     H132750   1.781   8.165   5.848
10836WAT     H232751   1.727   8.089   5.982
10837WAT      O32752   4.724   6.225   4.352
10837WAT     H132753   4.783   6.218   4.271
10837WAT     H232754   4.690   6.134   4.375
10838WAT      O32755   1.270   1.743   2.027
10838WAT     H132756   1.215   1.798   1.964
10838WAT     H232757   1.366   1.770   2.020
10839WAT      O32758   1.128   7.010   3.927
10839WAT     H132759   1.109   6.998   4.025
10839WAT     H232760   1.054   6.969   3.874
10840WAT      O32761   4.075   7.802   9.159
10840WAT     H132762   4.153   7.761   9.112
10840WAT     H232763   3.990   7.765   9.121
10841WAT      O32764   6.847   9.045   8.486
10841WAT     H132765   6.940   9.048   8.523
10841WAT     H232766   6.822   8.950   8.465
10842WAT      O32767   3.023   3.015   9.661
10842WAT     H132768   3.080   3.097   9.664
10842WAT     H232769   3.077   2.936   9.691
10843WAT      O32770   6.950   2.057   2.817
10843WAT     H132771   7.036   2.027   2.776
10843WAT     H232772   6.927   2.149   2.784
10844WAT      O32773   3.063   2.107   2.073
10844WAT     H132774   3.018   2.098   1.985
10844WAT     H232775   3.160   2.127   2.059
10845WAT      O32776   2.319   8.940   2.040
10845WAT     H132777   2.358   8.862   2.089
10845WAT     H232778   2.315   8.919   1.942
10846WAT      O32779   4.150   8.657   2.161
10846WAT     H132780   4.131   8.753   2.144
10846WAT     H232781   4.206   8.620   2.086
10847WAT      O32782   1.950   6.090   6.791
10847WAT     H132783   1.869   6.067   6.738
10847WAT     H232784   1.970   6.016   6.855
10848WAT      O32785   3.381   7.883   6.771
10848WAT     H132786   3.330   7.819   6.828
10848WAT     H232787   3.444   7.832   6.712
10849WAT      O32788   8.023   6.543   4.339
10849WAT     H132789   8.032   6.605   4.417
10849WAT     H232790   8.103   6.553   4.280
10850WAT      O32791   2.312   8.487   1.580
10850WAT     H132792   2.274   8.536   1.502
10850WAT     H232793   2.243   8.424   1.617
10851WAT      O32794   6.683   0.793   0.119
10851WAT     H132795   6.772   0.761   0.152
10851WAT     H232796   6.649   0.731   0.049
10852WAT      O32797   3.824   3.515   8.307
10852WAT     H132798   3.879   3.449   8.360
10852WAT     H232799   3.727   3.500   8.326
10853WAT      O32800   4.614   1.823   2.506
10853WAT     H132801   4.612   1.725   2.525
10853WAT     H232802   4.640   1.873   2.588
10854WAT      O32803   4.011   8.683   7.279
10854WAT     H132804   3.946   8.648   7.211
10854WAT     H232805   3.967   8.686   7.369
10855WAT      O32806   5.760   5.103   6.099
10855WAT     H132807   5.692   5.152   6.044
10855WAT     H232808   5.776   5.013   6.060
10856WAT      O32809   2.806   6.345   2.535
10856WAT     H132810   2.880   6.352   2.601
10856WAT     H232811   2.772   6.250   2.533
10857WAT      O32812   7.812   1.341   6.475
10857WAT     H132813   7.768   1.271   6.419
10857WAT     H232814   7.761   1.426   6.467
10858WAT      O32815   9.569   0.913   0.206
10858WAT     H132816   9.666   0.921   0.184
10858WAT     H232817   9.518   0.886   0.123
10859WAT      O32818   3.432   8.682   2.973
10859WAT     H132819   3.422   8.774   3.010
10859WAT     H232820   3.482   8.624   3.038
10860WAT      O32821   5.604   4.459   9.095
10860WAT     H132822   5.656   4.529   9.143
10860WAT     H232823   5.667   4.393   9.054
10861WAT      O32824   4.504   1.059   5.333
10861WAT     H132825   4.426   0.998   5.320
10861WAT     H232826   4.506   1.127   5.259
10862WAT      O32827   0.242   5.466   1.602
10862WAT     H132828   0.250   5.371   1.574
10862WAT     H232829   0.196   5.518   1.530
10863WAT      O32830   8.976   6.691   0.276
10863WAT     H132831   8.876   6.701   0.277
10863WAT     H232832   9.001   6.613   0.219
10864WAT      O32833   1.800   7.438   8.862
10864WAT     H132834   1.874   7.486   8.909
10864WAT     H232835   1.715   7.491   8.872
10865WAT      O32836   2.035   1.526   8.091
10865WAT     H132837   1.993   1.437   8.072
10865WAT     H232838   2.002   1.594   8.026
10866WAT      O32839   1.056   5.698   0.292
10866WAT     H132840   1.111   5.752   0.356
10866WAT     H232841   1.099   5.609   0.278
10867WAT      O32842   1.769   9.231   3.942
10867WAT     H132843   1.733   9.304   3.884
10867WAT     H232844   1.737   9.245   4.036
10868WAT      O32845   6.596   8.002   2.888
10868WAT     H132846   6.624   8.094   2.860
10868WAT     H232847   6.670   7.959   2.940
10869WAT      O32848   4.487   2.159   8.435
10869WAT     H132849   4.529   2.107   8.509
10869WAT     H232850   4.445   2.242   8.473
10870WAT      O32851   5.411   0.004   4.345
10870WAT     H132852   5.458   0.092   4.347
10870WAT     H232853   5.314   0.018   4.325
10871WAT      O32854   4.976   1.305   4.850
10871WAT     H132855   4.940   1.397   4.832
10871WAT     H232856   4.928   1.264   4.927
10872WAT      O32857   2.401   9.025   1.554
10872WAT     H132858   2.361   9.103   1.602
10872WAT     H232859   2.365   9.020   1.461
10873WAT      O32860   3.091   9.522   9.753
10873WAT     H132861   3.103   9.522   9.852
10873WAT     H232862   3.117   9.611   9.715
10874WAT      O32863   5.206   6.524   1.553
10874WAT     H132864   5.283   6.461   1.544
10874WAT     H232865   5.209   6.569   1.642
10875WAT      O32866   1.354   7.090   3.486
10875WAT     H132867   1.449   7.077   3.457
10875WAT     H232868   1.346   7.077   3.585
10876WAT      O32869   7.719   4.568   6.979
10876WAT     H132870   7.636   4.528   6.940
10876WAT     H232871   7.798   4.544   6.922
10877WAT      O32872   7.428   3.254   0.627
10877WAT     H132873   7.486   3.217   0.699
10877WAT     H232874   7.340   3.283   0.665
10878WAT      O32875   6.379   8.043   7.821
10878WAT     H132876   6.380   7.943   7.816
10878WAT     H232877   6.291   8.073   7.856
10879WAT      O32878   3.706   5.726   9.744
10879WAT     H132879   3.685   5.756   9.651
10879WAT     H232880   3.643   5.653   9.771
10880WAT      O32881   3.865   8.271   7.023
10880WAT     H132882   3.880   8.175   7.045
10880WAT     H232883   3.926   8.299   6.949
10881WAT      O32884   5.329   3.441   3.622
10881WAT     H132885   5.263   3.398   3.683
10881WAT     H232886   5.323   3.541   3.632
10882WAT      O32887   2.117   8.360   7.424
10882WAT     H132888   2.071   8.375   7.512
10882WAT     H232889   2.216   8.363   7.439
10883WAT      O32890   9.281   7.405   1.803
10883WAT     H132891   9.374   7.429   1.775
10883WAT     H232892   9.279   7.387   1.901
10884WAT      O32893   7.595   1.490   0.567
10884WAT     H132894   7.503   1.452   0.573
10884WAT     H232895   7.645   1.444   0.493
10885WAT      O32896   9.226   8.768   5.679
10885WAT     H132897   9.164   8.689   5.671
10885WAT     H232898   9.228   8.799   5.774
10886WAT      O32899   0.515   9.003   5.810
10886WAT     H132900   0.429   8.980   5.855
10886WAT     H232901   0.585   9.020   5.879
10887WAT      O32902   8.662   7.824   6.207
10887WAT     H132903   8.583   7.882   6.189
10887WAT     H232904   8.662   7.746   6.144
10888WAT      O32905   9.584   6.300   8.396
10888WAT     H132906   9.655   6.334   8.334
10888WAT     H232907   9.601   6.204   8.417
10889WAT      O32908   4.829   4.322   2.189
10889WAT     H132909   4.917   4.278   2.207
10889WAT     H232910   4.841   4.421   2.187
10890WAT      O32911   4.202   9.043   8.170
10890WAT     H132912   4.114   9.086   8.191
10890WAT     H232913   4.258   9.041   8.253
10891WAT      O32914   8.125   3.717   7.884
10891WAT     H132915   8.143   3.658   7.964
10891WAT     H232916   8.135   3.813   7.911
10892WAT      O32917   3.183   7.525   2.343
10892WAT     H132918   3.266   7.578   2.323
10892WAT     H232919   3.185   7.496   2.438
10893WAT      O32920   7.426   9.455   6.158
10893WAT     H132921   7.386   9.444   6.248
10893WAT     H232922   7.525   9.439   6.163
10894WAT      O32923   9.541   0.187   5.016
10894WAT     H132924   9.495   0.111   5.062
10894WAT     H232925   9.640   0.170   5.016
10895WAT      O32926   5.033   2.067   4.129
10895WAT     H132927   5.059   1.972   4.112
10895WAT     H232928   5.106   2.128   4.097
10896WAT      O32929   2.597   6.697   2.986
10896WAT     H132930   2.547   6.616   3.017
10896WAT     H232931   2.656   6.671   2.909
10897WAT      O32932   0.326   5.821   9.030
10897WAT     H132933   0.318   5.865   8.941
10897WAT     H232934   0.256   5.857   9.092
10898WAT      O32935   0.276   1.968   7.581
10898WAT     H132936   0.327   1.900   7.529
10898WAT     H232937   0.226   2.027   7.518
10899WAT      O32938   4.540   1.304   9.490
10899WAT     H132939   4.577   1.395   9.469
10899WAT     H232940   4.519   1.299   9.588
10900WAT      O32941   0.548   0.205   1.707
10900WAT     H132942   0.489   0.200   1.787
10900WAT     H232943   0.643   0.214   1.736
10901WAT      O32944   0.570   0.642   1.874
10901WAT     H132945   0.607   0.729   1.843
10901WAT     H232946   0.614   0.616   1.960
10902WAT      O32947   6.966   0.845   0.797
10902WAT     H132948   6.971   0.813   0.703
10902WAT     H232949   7.029   0.791   0.854
10903WAT      O32950   3.027   7.761   2.111
10903WAT     H132951   3.016   7.663   2.124
10903WAT     H232952   3.035   7.805   2.201
10904WAT      O32953   5.623   3.232   3.035
10904WAT     H132954   5.593   3.151   2.984
10904WAT     H232955   5.603   3.314   2.982
10905WAT      O32956   8.008   0.919   2.270
10905WAT     H132957   7.957   0.979   2.209
10905WAT     H232958   8.106   0.928   2.251
10906WAT      O32959   3.261   8.287   1.866
10906WAT     H132960   3.229   8.263   1.775
10906WAT     H232961   3.274   8.386   1.872
10907WAT      O32962   6.868   6.559   5.224
10907WAT     H132963   6.937   6.492   5.252
10907WAT     H232964   6.882   6.645   5.273
10908WAT      O32965   5.366   5.849   4.506
10908WAT     H132966   5.345   5.909   4.429
10908WAT     H232967   5.281   5.808   4.540
10909WAT      O32968   0.502   1.294   9.861
10909WAT     H132969   0.552   1.339   9.935
10909WAT     H232970   0.549   1.311   9.774
10910WAT      O32971   8.607   5.892   7.466
10910WAT     H132972   8.639   5.909   7.559
10910WAT     H232973   8.544   5.965   7.439
10911WAT      O32974   1.359   9.115   9.572
10911WAT     H132975   1.289   9.162   9.517
10911WAT     H232976   1.356   9.149   9.666
10912WAT      O32977   4.584   0.007   3.899
10912WAT     H132978   4.592  -0.043   3.813
10912WAT     H232979   4.499  -0.017   3.945
10913WAT      O32980   0.534   7.501   2.548
10913WAT     H132981   0.507   7.583   2.598
10913WAT     H232982   0.600   7.525   2.477
10914WAT      O32983   8.699   3.505   7.573
10914WAT     H132984   8.793   3.519   7.605
10914WAT     H232985   8.642   3.479   7.651
10915WAT      O32986   8.938   4.445   5.154
10915WAT     H132987   9.017   4.400   5.113
10915WAT     H232988   8.933   4.423   5.251
10916WAT      O32989   3.732   8.575   5.636
10916WAT     H132990   3.652   8.624   5.602
10916WAT     H232991   3.814   8.610   5.590
10917WAT      O32992   4.937   7.565   7.330
10917WAT     H132993   4.869   7.623   7.375
10917WAT     H232994   4.916   7.560   7.232
10918WAT      O32995   7.580   2.318   1.053
10918WAT     H132996   7.560   2.414   1.075
10918WAT     H232997   7.596   2.309   0.954
10919WAT      O32998   7.097   1.167   5.981
10919WAT     H132999   7.007   1.124   5.975
10919WAT     H233000   7.095   1.239   6.050
10920WAT      O33001   9.373   8.110   5.948
10920WAT     H133002   9.364   8.060   5.861
10920WAT     H233003   9.385   8.207   5.929
10921WAT      O33004   5.902   1.713   4.458
10921WAT     H133005   5.816   1.680   4.496
10921WAT     H233006   5.940   1.784   4.517
10922WAT      O33007   1.021   2.133   3.256
10922WAT     H133008   1.010   2.054   3.316
10922WAT     H233009   0.934   2.151   3.209
10923WAT      O33010   5.735   4.246   9.029
10923WAT     H133011   5.792   4.192   8.966
10923WAT     H233012   5.713   4.191   9.109
10924WAT      O33013   8.882   5.841   9.247
10924WAT     H133014   8.809   5.845   9.178
10924WAT     H233015   8.964   5.803   9.205
10925WAT      O33016   2.403   1.320   0.107
10925WAT     H133017   2.325   1.267   0.074
10925WAT     H233018   2.408   1.312   0.207
10926WAT      O33019   8.105   3.481   6.738
10926WAT     H133020   8.067   3.524   6.820
10926WAT     H233021   8.062   3.521   6.656
10927WAT      O33022   0.046   9.288   1.386
10927WAT     H133023   0.020   9.359   1.453
10927WAT     H233024   0.023   9.319   1.294
10928WAT      O33025   8.713   6.991   0.391
10928WAT     H133026   8.686   7.064   0.454
10928WAT     H233027   8.805   7.009   0.356
10929WAT      O33028   7.882   3.229   0.341
10929WAT     H133029   7.878   3.133   0.366
10929WAT     H233030   7.809   3.279   0.387
10930WAT      O33031   1.890   8.134   5.323
10930WAT     H133032   1.986   8.112   5.311
10930WAT     H233033   1.840   8.117   5.238
10931WAT      O33034   3.285   2.228   7.826
10931WAT     H133035   3.320   2.233   7.919
10931WAT     H233036   3.347   2.171   7.770
10932WAT      O33037   6.522   6.059   9.015
10932WAT     H133038   6.488   5.973   8.976
10932WAT     H233039   6.594   6.095   8.957
10933WAT      O33040   5.672   7.641   4.507
10933WAT     H133041   5.691   7.676   4.599
10933WAT     H233042   5.705   7.707   4.439
10934WAT      O33043   5.992   0.285   3.859
10934WAT     H133044   5.922   0.236   3.911
10934WAT     H233045   5.971   0.382   3.857
10935WAT      O33046   1.391   4.313   9.134
10935WAT     H133047   1.316   4.281   9.075
10935WAT     H233048   1.423   4.238   9.192
10936WAT      O33049   4.892   1.664   6.034
10936WAT     H133050   4.967   1.694   5.975
10936WAT     H233051   4.844   1.744   6.070
10937WAT      O33052   5.532   3.977   6.830
10937WAT     H133053   5.479   4.060   6.850
10937WAT     H233054   5.471   3.898   6.831
10938WAT      O33055   2.050   1.738   9.782
10938WAT     H133056   2.052   1.693   9.872
10938WAT     H233057   2.072   1.671   9.711
10939WAT      O33058   7.272   8.624   7.089
10939WAT     H133059   7.255   8.722   7.091
10939WAT     H233060   7.340   8.600   7.158
10940WAT      O33061   6.461   0.186   5.194
10940WAT     H133062   6.429   0.165   5.286
10940WAT     H233063   6.503   0.277   5.193
10941WAT      O33064   2.013   1.971   8.717
10941WAT     H133065   2.020   1.930   8.809
10941WAT     H233066   2.049   2.064   8.719
10942WAT      O33067   8.376   6.791   0.230
10942WAT     H133068   8.411   6.857   0.163
10942WAT     H233069   8.378   6.699   0.191
10943WAT      O33070   3.831   9.317   3.023
10943WAT     H133071   3.856   9.351   3.114
10943WAT     H233072   3.774   9.236   3.033
10944WAT      O33073   9.320   8.048   3.744
10944WAT     H133074   9.370   8.063   3.829
10944WAT     H233075   9.370   7.983   3.687
10945WAT      O33076   3.636   2.038   3.194
10945WAT     H133077   3.536   2.034   3.195
10945WAT     H233078   3.668   2.053   3.100
10946WAT      O33079   0.514   5.281   3.264
10946WAT     H133080   0.529   5.237   3.175
10946WAT     H233081   0.416   5.297   3.277
10947WAT      O33082   6.427   9.477   3.590
10947WAT     H133083   6.391   9.437   3.506
10947WAT     H233084   6.383   9.433   3.669
10948WAT      O33085   2.357   6.330   8.438
10948WAT     H133086   2.296   6.337   8.358
10948WAT     H233087   2.356   6.236   8.472
10949WAT      O33088   3.907   7.298   2.455
10949WAT     H133089   3.846   7.367   2.495
10949WAT     H233090   3.950   7.245   2.528
10950WAT      O33091   8.023   7.696   0.154
10950WAT     H133092   8.110   7.684   0.106
10950WAT     H233093   7.981   7.782   0.126
10951WAT      O33094   4.977   3.751   5.355
10951WAT     H133095   5.045   3.684   5.324
10951WAT     H233096   4.984   3.761   5.455
10952WAT      O33097   3.847   5.243   0.541
10952WAT     H133098   3.804   5.157   0.512
10952WAT     H233099   3.941   5.247   0.505
10953WAT      O33100   7.914   5.015   4.345
10953WAT     H133101   7.965   5.098   4.320
10953WAT     H233102   7.920   5.001   4.444
10954WAT      O33103   5.311   0.520   4.104
10954WAT     H133104   5.248   0.575   4.160
10954WAT     H233105   5.303   0.424   4.131
10955WAT      O33106   1.715   0.047   8.675
10955WAT     H133107   1.616   0.047   8.691
10955WAT     H233108   1.743   0.136   8.640
10956WAT      O33109   1.402   4.974   3.051
10956WAT     H133110   1.468   4.899   3.052
10956WAT     H233111   1.312   4.940   3.077
10957WAT      O33112   5.846   3.005   0.184
10957WAT     H133113   5.914   2.947   0.228
10957WAT     H233114   5.849   2.991   0.085
10958WAT      O33115   0.961   4.279   9.636
10958WAT     H133116   0.892   4.237   9.578
10958WAT     H233117   1.035   4.315   9.579
10959WAT      O33118   8.691   6.932   2.957
10959WAT     H133119   8.725   6.894   2.871
10959WAT     H233120   8.767   6.974   3.007
10960WAT      O33121   5.790   7.434   3.282
10960WAT     H133122   5.772   7.506   3.215
10960WAT     H233123   5.753   7.461   3.371
10961WAT      O33124   1.542   3.321   6.170
10961WAT     H133125   1.553   3.391   6.241
10961WAT     H233126   1.500   3.363   6.089
10962WAT      O33127   9.080   7.977   0.835
10962WAT     H133128   8.995   7.927   0.849
10962WAT     H233129   9.134   7.976   0.919
10963WAT      O33130   7.883   4.901   2.751
10963WAT     H133131   7.797   4.943   2.721
10963WAT     H233132   7.898   4.816   2.699
10964WAT      O33133   6.711   7.792   0.552
10964WAT     H133134   6.714   7.835   0.462
10964WAT     H233135   6.633   7.827   0.604
10965WAT      O33136   4.488   4.717   1.474
10965WAT     H133137   4.484   4.680   1.381
10965WAT     H233138   4.579   4.702   1.512
10966WAT      O33139   5.854   1.940   3.243
10966WAT     H133140   5.920   1.882   3.195
10966WAT     H233141   5.898   1.981   3.323
10967WAT      O33142   7.537   5.074   6.989
10967WAT     H133143   7.524   5.008   7.063
10967WAT     H233144   7.634   5.081   6.968
10968WAT      O33145   0.367   9.454   5.778
10968WAT     H133146   0.453   9.404   5.780
10968WAT     H233147   0.383   9.550   5.801
10969WAT      O33148   2.088   6.295   1.704
10969WAT     H133149   2.082   6.251   1.614
10969WAT     H233150   2.165   6.359   1.705
10970WAT      O33151   0.316   6.460   3.104
10970WAT     H133152   0.351   6.529   3.167
10970WAT     H233153   0.353   6.476   3.012
10971WAT      O33154   0.937   7.871   8.686
10971WAT     H133155   1.017   7.815   8.710
10971WAT     H233156   0.862   7.851   8.749
10972WAT      O33157   9.090   2.454   6.551
10972WAT     H133158   9.062   2.483   6.643
10972WAT     H233159   9.124   2.361   6.554
10973WAT      O33160   0.455   7.023   4.385
10973WAT     H133161   0.497   7.095   4.329
10973WAT     H233162   0.489   6.934   4.355
10974WAT      O33163   6.573   8.299   7.967
10974WAT     H133164   6.490   8.353   7.979
10974WAT     H233165   6.549   8.202   7.959
10975WAT      O33166   9.719   2.483   0.225
10975WAT     H133167   9.708   2.578   0.194
10975WAT     H233168   9.637   2.455   0.274
10976WAT      O33169   4.528   7.161   6.206
10976WAT     H133170   4.466   7.220   6.153
10976WAT     H233171   4.534   7.196   6.300
10977WAT      O33172   2.347   3.786   8.060
10977WAT     H133173   2.394   3.852   8.118
10977WAT     H233174   2.344   3.697   8.107
10978WAT      O33175   5.067   5.252   2.064
10978WAT     H133176   5.108   5.331   2.109
10978WAT     H233177   5.059   5.270   1.966
10979WAT      O33178   7.413   6.695   8.281
10979WAT     H133179   7.448   6.778   8.323
10979WAT     H233180   7.432   6.696   8.183
10980WAT      O33181   7.208   2.888   0.422
10980WAT     H133182   7.145   2.965   0.421
10980WAT     H233183   7.302   2.922   0.429
10981WAT      O33184   0.158   9.130   2.306
10981WAT     H133185   0.076   9.184   2.321
10981WAT     H233186   0.141   9.035   2.332
10982WAT      O33187   3.952   5.010   8.575
10982WAT     H133188   3.857   5.041   8.585
10982WAT     H233189   4.001   5.072   8.514
10983WAT      O33190   1.739   5.325   0.722
10983WAT     H133191   1.782   5.297   0.636
10983WAT     H233192   1.715   5.244   0.775
10984WAT      O33193   8.637   1.561   3.157
10984WAT     H133194   8.651   1.534   3.062
10984WAT     H233195   8.669   1.487   3.217
10985WAT      O33196   6.983   5.644   0.017
10985WAT     H133197   6.919   5.572  -0.008
10985WAT     H233198   7.009   5.634   0.113
10986WAT      O33199   5.449   7.520   8.060
10986WAT     H133200   5.493   7.430   8.053
10986WAT     H233201   5.446   7.563   7.970
10987WAT      O33202   5.402   7.530   3.621
10987WAT     H133203   5.356   7.480   3.548
10987WAT     H233204   5.486   7.481   3.647
10988WAT      O33205   7.659   2.139   6.107
10988WAT     H133206   7.614   2.082   6.038
10988WAT     H233207   7.603   2.219   6.125
10989WAT      O33208   4.551   6.971   5.179
10989WAT     H133209   4.570   6.878   5.147
10989WAT     H233210   4.453   6.983   5.192
10990WAT      O33211   5.427   8.041   6.125
10990WAT     H133212   5.405   7.950   6.161
10990WAT     H233213   5.352   8.104   6.145
10991WAT      O33214   7.674   5.403   2.622
10991WAT     H133215   7.689   5.346   2.541
10991WAT     H233216   7.683   5.499   2.597
10992WAT      O33217   0.116   2.928   2.922
10992WAT     H133218   0.133   2.898   3.015
10992WAT     H233219   0.201   2.960   2.880
10993WAT      O33220   1.195   6.721   2.173
10993WAT     H133221   1.143   6.713   2.088
10993WAT     H233222   1.293   6.710   2.154
10994WAT      O33223   6.865   9.113   2.640
10994WAT     H133224   6.851   9.204   2.679
10994WAT     H233225   6.938   9.066   2.690
10995WAT      O33226   5.183   0.975   7.546
10995WAT     H133227   5.204   1.035   7.623
10995WAT     H233228   5.090   0.993   7.513
10996WAT      O33229   0.334   9.572   7.886
10996WAT     H133230   0.347   9.475   7.865
10996WAT     H233231   0.238   9.589   7.908
10997WAT      O33232   0.318   4.649   8.189
10997WAT     H133233   0.298   4.604   8.102
10997WAT     H233234   0.334   4.579   8.259
10998WAT      O33235   1.748   2.320   2.217
10998WAT     H133236   1.670   2.277   2.262
10998WAT     H233237   1.811   2.249   2.185
10999WAT      O33238   9.315   3.455   2.008
10999WAT     H133239   9.248   3.393   2.048
10999WAT     H233240   9.273   3.545   1.994
11000WAT      O33241   8.419   1.179   7.071
11000WAT     H133242   8.482   1.143   7.001
11000WAT     H233243   8.469   1.241   7.132
11001WAT      O33244   5.152   7.957   4.175
11001WAT     H133245   5.133   7.926   4.268
11001WAT     H233246   5.113   7.892   4.109
11002WAT      O33247   8.272   7.784   9.347
11002WAT     H133248   8.255   7.695   9.389
11002WAT     H233249   8.342   7.833   9.399
11003WAT      O33250   8.744   1.883   5.791
11003WAT     H133251   8.647   1.869   5.768
11003WAT     H233252   8.752   1.909   5.887
11004WAT      O33253   5.272   8.453   7.489
11004WAT     H133254   5.198   8.450   7.422
11004WAT     H233255   5.248   8.514   7.564
11005WAT      O33256   9.778   3.770   6.820
11005WAT     H133257   9.776   3.765   6.920
11005WAT     H233258   9.713   3.704   6.782
11006WAT      O33259   0.036   1.699   6.347
11006WAT     H133260   0.022   1.633   6.274
11006WAT     H233261   0.063   1.651   6.431
11007WAT      O33262   7.668   6.703   2.739
11007WAT     H133263   7.583   6.662   2.773
11007WAT     H233264   7.653   6.801   2.724
11008WAT      O33265   6.581   4.302   7.565
11008WAT     H133266   6.538   4.254   7.641
11008WAT     H233267   6.519   4.373   7.531
11009WAT      O33268   7.702   8.069   1.284
11009WAT     H133269   7.630   8.087   1.351
11009WAT     H233270   7.663   8.071   1.192
11010WAT      O33271   0.491   5.617   1.207
11010WAT     H133272   0.523   5.690   1.267
11010WAT     H233273   0.468   5.537   1.261
11011WAT      O33274   9.408   5.730   0.695
11011WAT     H133275   9.394   5.721   0.596
11011WAT     H233276   9.370   5.650   0.742
11012WAT      O33277   4.022   4.951   3.959
11012WAT     H133278   4.091   4.879   3.950
11012WAT     H233279   4.066   5.034   3.994
11013WAT      O33280   1.823   9.763   4.044
11013WAT     H133281   1.917   9.795   4.054
11013WAT     H233282   1.798   9.764   3.947
11014WAT      O33283   3.459   9.769   6.979
11014WAT     H133284   3.363   9.750   6.998
11014WAT     H233285   3.467   9.817   6.891
11015WAT      O33286   4.274   7.852   4.225
11015WAT     H133287   4.242   7.910   4.300
11015WAT     H233288   4.196   7.811   4.178
11016WAT      O33289   6.065   3.579   4.464
11016WAT     H133290   6.014   3.494   4.480
11016WAT     H233291   6.102   3.578   4.371
11017WAT      O33292   1.276   1.422   3.369
11017WAT     H133293   1.270   1.468   3.458
11017WAT     H233294   1.361   1.370   3.365
11018WAT      O33295   8.392   1.620   5.414
11018WAT     H133296   8.368   1.632   5.511
11018WAT     H233297   8.420   1.525   5.399
11019WAT      O33298   6.632   2.946   2.423
11019WAT     H133299   6.692   2.949   2.343
11019WAT     H233300   6.674   2.889   2.493
11020WAT      O33301   9.620   4.786   5.450
11020WAT     H133302   9.703   4.816   5.402
11020WAT     H233303   9.545   4.847   5.426
11021WAT      O33304   6.717   7.967   1.702
11021WAT     H133305   6.652   7.895   1.681
11021WAT     H233306   6.733   8.023   1.621
11022WAT      O33307   7.259   9.020   4.298
11022WAT     H133308   7.187   9.054   4.359
11022WAT     H233309   7.257   8.920   4.297
11023WAT      O33310   5.232   7.301   5.931
11023WAT     H133311   5.192   7.258   5.850
11023WAT     H233312   5.186   7.266   6.013
11024WAT      O33313   3.111   2.497   1.963
11024WAT     H133314   3.157   2.441   1.894
11024WAT     H233315   3.164   2.580   1.979
11025WAT      O33316   2.310   3.984   4.068
11025WAT     H133317   2.268   4.057   4.014
11025WAT     H233318   2.239   3.929   4.111
11026WAT      O33319   3.178   6.076   3.054
11026WAT     H133320   3.159   6.098   3.150
11026WAT     H233321   3.260   6.019   3.049
11027WAT      O33322   3.770   8.139   2.606
11027WAT     H133323   3.738   8.061   2.551
11027WAT     H233324   3.762   8.223   2.553
11028WAT      O33325   8.641   0.788   1.968
11028WAT     H133326   8.653   0.855   2.042
11028WAT     H233327   8.709   0.715   1.979
11029WAT      O33328   4.657   1.126   7.098
11029WAT     H133329   4.706   1.189   7.159
11029WAT     H233330   4.571   1.168   7.069
11030WAT      O33331   9.291   3.170   6.330
11030WAT     H133332   9.259   3.098   6.269
11030WAT     H233333   9.311   3.253   6.276
11031WAT      O33334   5.192   5.053   8.001
11031WAT     H133335   5.226   4.997   7.925
11031WAT     H233336   5.232   5.020   8.087
11032WAT      O33337   4.515   0.914   3.727
11032WAT     H133338   4.542   0.819   3.739
11032WAT     H233339   4.572   0.972   3.784
11033WAT      O33340   9.795   4.756   8.461
11033WAT     H133341   9.775   4.854   8.472
11033WAT     H233342   9.786   4.731   8.364
11034WAT      O33343   6.127   5.792   2.790
11034WAT     H133344   6.216   5.787   2.835
11034WAT     H233345   6.078   5.874   2.822
11035WAT      O33346   3.032   2.031   9.209
11035WAT     H133347   3.095   2.087   9.155
11035WAT     H233348   2.979   2.090   9.269
11036WAT      O33349   6.631   6.953   7.096
11036WAT     H133350   6.543   6.975   7.054
11036WAT     H233351   6.651   6.856   7.081
11037WAT      O33352   1.028   5.026   1.907
11037WAT     H133353   1.097   4.978   1.852
11037WAT     H233354   0.996   4.966   1.980
11038WAT      O33355   1.387   8.691   9.790
11038WAT     H133356   1.342   8.769   9.833
11038WAT     H233357   1.360   8.607   9.837
11039WAT      O33358   2.756   2.161   4.912
11039WAT     H133359   2.665   2.201   4.922
11039WAT     H233360   2.799   2.195   4.828
11040WAT      O33361   9.475   2.806   9.894
11040WAT     H133362   9.459   2.901   9.865
11040WAT     H233363   9.462   2.745   9.816
11041WAT      O33364   6.087   7.072   3.278
11041WAT     H133365   6.024   7.144   3.307
11041WAT     H233366   6.053   7.029   3.194
11042WAT      O33367   0.408   8.005   8.091
11042WAT     H133368   0.354   8.060   8.156
11042WAT     H233369   0.486   8.059   8.059
11043WAT      O33370   0.077   7.975   5.139
11043WAT     H133371   0.090   8.074   5.131
11043WAT     H233372   0.066   7.935   5.048
11044WAT      O33373   5.124   9.669   1.599
11044WAT     H133374   5.128   9.578   1.556
11044WAT     H233375   5.049   9.672   1.664
11045WAT      O33376   7.934   5.180   3.087
11045WAT     H133377   7.990   5.229   3.154
11045WAT     H233378   7.958   5.209   2.995
11046WAT      O33379   4.222   6.758   5.126
11046WAT     H133380   4.261   6.780   5.215
11046WAT     H233381   4.176   6.669   5.132
11047WAT      O33382   9.787   5.413   2.398
11047WAT     H133383   9.818   5.507   2.412
11047WAT     H233384   9.840   5.351   2.455
11048WAT      O33385   4.583   4.272   3.362
11048WAT     H133386   4.500   4.249   3.312
11048WAT     H233387   4.653   4.305   3.298
11049WAT      O33388   8.367   9.586   8.198
11049WAT     H133389   8.306   9.510   8.223
11049WAT     H233390   8.440   9.552   8.139
11050WAT      O33391   6.846   9.577   5.861
11050WAT     H133392   6.919   9.509   5.851
11050WAT     H233393   6.878   9.665   5.827
11051WAT      O33394   2.792   8.047   5.948
11051WAT     H133395   2.857   8.097   6.005
11051WAT     H233396   2.723   8.003   6.005
11052WAT      O33397   2.192   0.781   9.388
11052WAT     H133398   2.106   0.755   9.434
11052WAT     H233399   2.220   0.872   9.420
11053WAT      O33400   3.164   3.925   0.051
11053WAT     H133401   3.122   3.870  -0.021
11053WAT     H233402   3.153   3.881   0.139
11054WAT      O33403   6.125   0.722   2.727
11054WAT     H133404   6.196   0.674   2.676
11054WAT     H233405   6.164   0.802   2.772
11055WAT      O33406   3.018   5.571   6.921
11055WAT     H133407   3.053   5.662   6.896
11055WAT     H233408   3.093   5.505   6.919
11056WAT      O33409   8.034   8.970   2.843
11056WAT     H133410   7.975   9.006   2.915
11056WAT     H233411   8.096   9.043   2.812
11057WAT      O33412   7.600   8.563   8.246
11057WAT     H133413   7.575   8.469   8.267
11057WAT     H233414   7.674   8.593   8.307
11058WAT      O33415   8.333   6.805   4.112
11058WAT     H133416   8.294   6.782   4.202
11058WAT     H233417   8.298   6.894   4.083
11059WAT      O33418   7.751   0.545   4.933
11059WAT     H133419   7.758   0.603   5.014
11059WAT     H233420   7.784   0.595   4.853
11060WAT      O33421   6.008   6.348   8.763
11060WAT     H133422   5.927   6.332   8.708
11060WAT     H233423   6.020   6.446   8.778
11061WAT      O33424   1.071   7.999   4.921
11061WAT     H133425   0.974   7.990   4.944
11061WAT     H233426   1.080   8.020   4.824
11062WAT      O33427   8.842   3.181   5.791
11062WAT     H133428   8.774   3.231   5.736
11062WAT     H233429   8.929   3.229   5.788
11063WAT      O33430   7.635   6.431   9.717
11063WAT     H133431   7.594   6.384   9.795
11063WAT     H233432   7.724   6.390   9.697
11064WAT      O33433   2.536   1.338   5.586
11064WAT     H133434   2.496   1.307   5.499
11064WAT     H233435   2.622   1.291   5.602
11065WAT      O33436   2.058   4.092   5.959
11065WAT     H133437   2.125   4.094   5.885
11065WAT     H233438   1.990   4.021   5.939
11066WAT      O33439   6.697   4.054   1.463
11066WAT     H133440   6.788   4.050   1.506
11066WAT     H233441   6.703   4.018   1.370
11067WAT      O33442   2.176   2.247   8.206
11067WAT     H133443   2.132   2.159   8.225
11067WAT     H233444   2.247   2.264   8.275
11068WAT      O33445   7.337   9.484   8.421
11068WAT     H133446   7.360   9.563   8.477
11068WAT     H233447   7.360   9.503   8.326
11069WAT      O33448   1.355   2.072   2.970
11069WAT     H133449   1.395   2.163   2.966
11069WAT     H233450   1.256   2.079   2.984
11070WAT      O33451   5.961   7.387   7.628
11070WAT     H133452   5.968   7.478   7.670
11070WAT     H233453   6.044   7.335   7.645
11071WAT      O33454   4.692   8.179   9.141
11071WAT     H133455   4.641   8.200   9.058
11071WAT     H233456   4.788   8.207   9.130
11072WAT      O33457   5.127   4.599   3.033
11072WAT     H133458   5.185   4.593   2.952
11072WAT     H233459   5.130   4.513   3.083
11073WAT      O33460   9.601   7.900   4.876
11073WAT     H133461   9.660   7.960   4.930
11073WAT     H233462   9.598   7.932   4.781
11074WAT      O33463   3.253   5.438   6.610
11074WAT     H133464   3.231   5.477   6.700
11074WAT     H233465   3.352   5.426   6.603
11075WAT      O33466   8.915   5.058   4.023
11075WAT     H133467   8.866   4.987   3.972
11075WAT     H233468   9.002   5.022   4.055
11076WAT      O33469   9.342   8.439   5.411
11076WAT     H133470   9.397   8.523   5.417
11076WAT     H233471   9.401   8.359   5.418
11077WAT      O33472   5.638   1.125   3.904
11077WAT     H133473   5.714   1.129   3.838
11077WAT     H233474   5.664   1.174   3.987
11078WAT      O33475   0.566   1.945   6.880
11078WAT     H133476   0.631   1.881   6.839
11078WAT     H233477   0.607   2.036   6.886
11079WAT      O33478   8.597   3.084   6.744
11079WAT     H133479   8.691   3.110   6.724
11079WAT     H233480   8.535   3.156   6.713
11080WAT      O33481   7.570   9.792   0.559
11080WAT     H133482   7.669   9.799   0.571
11080WAT     H233483   7.526   9.793   0.649
11081WAT      O33484   6.261   1.819   8.369
11081WAT     H133485   6.332   1.748   8.370
11081WAT     H233486   6.246   1.853   8.462
11082WAT      O33487   6.224   3.817   7.585
11082WAT     H133488   6.183   3.888   7.529
11082WAT     H233489   6.251   3.740   7.528
11083WAT      O33490   4.661   6.259   0.265
11083WAT     H133491   4.687   6.355   0.263
11083WAT     H233492   4.740   6.204   0.292
11084WAT      O33493   6.892   6.501   5.628
11084WAT     H133494   6.967   6.501   5.562
11084WAT     H233495   6.880   6.593   5.665
11085WAT      O33496   5.870   1.800   7.714
11085WAT     H133497   5.853   1.784   7.617
11085WAT     H233498   5.967   1.820   7.728
11086WAT      O33499   8.117   2.624   5.295
11086WAT     H133500   8.074   2.540   5.327
11086WAT     H233501   8.217   2.612   5.294
11087WAT      O33502   6.702   0.057   6.983
11087WAT     H133503   6.752   0.143   6.982
11087WAT     H233504   6.606   0.075   6.961
11088WAT      O33505   3.444   1.196   4.555
11088WAT     H133506   3.476   1.235   4.641
11088WAT     H233507   3.429   1.270   4.489
11089WAT      O33508   6.078   1.182   6.946
11089WAT     H133509   6.132   1.106   6.909
11089WAT     H233510   6.137   1.261   6.961
11090WAT      O33511   1.298   1.141   7.118
11090WAT     H133512   1.340   1.157   7.028
11090WAT     H233513   1.357   1.176   7.190
11091WAT      O33514   0.850   6.888   8.821
11091WAT     H133515   0.925   6.827   8.844
11091WAT     H233516   0.772   6.834   8.790
11092WAT      O33517   4.390   6.395   6.714
11092WAT     H133518   4.321   6.324   6.701
11092WAT     H233519   4.348   6.485   6.702
11093WAT      O33520   7.706   2.677   8.447
11093WAT     H133521   7.751   2.720   8.526
11093WAT     H233522   7.695   2.579   8.464
11094WAT      O33523   1.058   1.585   9.004
11094WAT     H133524   1.150   1.621   8.986
11094WAT     H233525   1.044   1.502   8.950
11095WAT      O33526   7.476   8.263   5.042
11095WAT     H133527   7.534   8.264   5.123
11095WAT     H233528   7.468   8.355   5.004
11096WAT      O33529   6.133   4.190   6.431
11096WAT     H133530   6.085   4.192   6.519
11096WAT     H233531   6.216   4.136   6.440
11097WAT      O33532   8.827   8.836   0.385
11097WAT     H133533   8.894   8.791   0.444
11097WAT     H233534   8.766   8.892   0.441
11098WAT      O33535   0.967   1.321   3.038
11098WAT     H133536   1.062   1.344   3.056
11098WAT     H233537   0.937   1.366   2.954
11099WAT      O33538   3.981   5.366   5.585
11099WAT     H133539   4.032   5.353   5.670
11099WAT     H233540   3.889   5.401   5.606
11100WAT      O33541   9.843   0.336   8.772
11100WAT     H133542   9.856   0.257   8.832
11100WAT     H233543   9.833   0.306   8.678
11101WAT      O33544   0.806   9.395   4.050
11101WAT     H133545   0.797   9.493   4.032
11101WAT     H233546   0.791   9.345   3.965
11102WAT      O33547   3.477   8.390   9.045
11102WAT     H133548   3.462   8.368   8.948
11102WAT     H233549   3.561   8.345   9.076
11103WAT      O33550   1.419   4.390   2.129
11103WAT     H133551   1.337   4.412   2.182
11103WAT     H233552   1.464   4.311   2.170
11104WAT      O33553   1.964   4.161   1.406
11104WAT     H133554   1.864   4.161   1.405
11104WAT     H233555   1.998   4.096   1.337
11105WAT      O33556   6.121   7.852   4.786
11105WAT     H133557   6.196   7.917   4.794
11105WAT     H233558   6.034   7.900   4.782
11106WAT      O33559   5.270   2.939   4.997
11106WAT     H133560   5.234   2.886   5.074
11106WAT     H233561   5.193   2.976   4.944
11107WAT      O33562   3.731   1.433   2.627
11107WAT     H133563   3.812   1.480   2.592
11107WAT     H233564   3.737   1.428   2.727
11108WAT      O33565   3.689   6.915   5.525
11108WAT     H133566   3.594   6.891   5.509
11108WAT     H233567   3.696   6.975   5.605
11109WAT      O33568   5.969   8.832   8.215
11109WAT     H133569   6.019   8.817   8.130
11109WAT     H233570   6.015   8.903   8.269
11110WAT      O33571   9.564   2.793   5.025
11110WAT     H133572   9.487   2.732   5.045
11110WAT     H233573   9.640   2.740   4.987
11111WAT      O33574   0.197   1.724   2.142
11111WAT     H133575   0.267   1.664   2.105
11111WAT     H233576   0.134   1.751   2.069
11112WAT      O33577   5.391   2.378   9.006
11112WAT     H133578   5.343   2.310   8.950
11112WAT     H233579   5.484   2.346   9.023
11113WAT      O33580   1.014   2.369   5.609
11113WAT     H133581   0.950   2.444   5.628
11113WAT     H233582   1.058   2.384   5.521
11114WAT      O33583   0.270   3.263   6.374
11114WAT     H133584   0.339   3.302   6.313
11114WAT     H233585   0.266   3.164   6.361
11115WAT      O33586   7.471   8.574   1.916
11115WAT     H133587   7.494   8.553   2.011
11115WAT     H233588   7.381   8.617   1.912
11116WAT      O33589   9.361   8.302   8.265
11116WAT     H133590   9.328   8.285   8.357
11116WAT     H233591   9.389   8.397   8.256
11117WAT      O33592   1.796   6.333   6.814
11117WAT     H133593   1.851   6.256   6.783
11117WAT     H233594   1.780   6.396   6.738
11118WAT      O33595   7.170   1.958   6.004
11118WAT     H133596   7.197   1.862   5.999
11118WAT     H233597   7.212   2.000   6.085
11119WAT      O33598   0.401   7.929   5.768
11119WAT     H133599   0.489   7.951   5.727
11119WAT     H233600   0.327   7.955   5.705
11120WAT      O33601   8.184   6.353   8.479
11120WAT     H133602   8.271   6.355   8.430
11120WAT     H233603   8.109   6.367   8.414
11121WAT      O33604   3.035   5.038   9.306
11121WAT     H133605   3.032   5.138   9.306
11121WAT     H233606   3.013   5.005   9.398
11122WAT      O33607   6.701   3.290   3.580
11122WAT     H133608   6.796   3.319   3.569
11122WAT     H233609   6.663   3.333   3.662
11123WAT      O33610   5.886   8.943   5.762
11123WAT     H133611   5.947   9.020   5.744
11123WAT     H233612   5.885   8.882   5.682
11124WAT      O33613   9.597   9.127   6.983
11124WAT     H133614   9.696   9.135   6.992
11124WAT     H233615   9.553   9.212   7.013
11125WAT      O33616   4.691   7.796   7.086
11125WAT     H133617   4.753   7.721   7.060
11125WAT     H233618   4.642   7.771   7.169
11126WAT      O33619   0.827   6.397   2.713
11126WAT     H133620   0.823   6.485   2.759
11126WAT     H233621   0.864   6.408   2.621
11127WAT      O33622   2.830   8.821   6.352
11127WAT     H133623   2.793   8.805   6.444
11127WAT     H233624   2.869   8.913   6.348
11128WAT      O33625   9.663   5.920   1.079
11128WAT     H133626   9.605   5.934   0.999
11128WAT     H233627   9.749   5.876   1.051
11129WAT      O33628   0.020   2.687   0.731
11129WAT     H133629   0.034   2.653   0.638
11129WAT     H233630  -0.030   2.773   0.728
11130WAT      O33631   5.660   8.525   3.100
11130WAT     H133632   5.720   8.553   3.026
11130WAT     H233633   5.634   8.605   3.154
11131WAT      O33634   1.066   4.166   2.032
11131WAT     H133635   1.022   4.103   1.968
11131WAT     H233636   1.124   4.115   2.095
11132WAT      O33637   2.502   7.974   3.276
11132WAT     H133638   2.451   7.967   3.361
11132WAT     H233639   2.460   8.043   3.217
11133WAT      O33640   4.298   8.776   5.841
11133WAT     H133641   4.367   8.816   5.900
11133WAT     H233642   4.342   8.730   5.763
11134WAT      O33643   1.812   5.980   7.674
11134WAT     H133644   1.906   5.993   7.706
11134WAT     H233645   1.766   5.913   7.731
11135WAT      O33646   5.684   2.582   8.945
11135WAT     H133647   5.711   2.554   9.037
11135WAT     H233648   5.647   2.675   8.948
11136WAT      O33649   1.665   5.084   6.030
11136WAT     H133650   1.742   5.045   5.980
11136WAT     H233651   1.661   5.182   6.011
11137WAT      O33652   4.992   5.444   1.459
11137WAT     H133653   5.075   5.425   1.513
11137WAT     H233654   4.925   5.372   1.475
11138WAT      O33655   3.341   3.706   5.929
11138WAT     H133656   3.349   3.686   6.026
11138WAT     H233657   3.413   3.769   5.901
11139WAT      O33658   6.143   9.027   6.210
11139WAT     H133659   6.051   9.000   6.239
11139WAT     H233660   6.136   9.079   6.125
11140WAT      O33661   3.428   0.214   6.881
11140WAT     H133662   3.347   0.174   6.923
11140WAT     H233663   3.455   0.159   6.801
11141WAT      O33664   0.160   2.320   8.442
11141WAT     H133665   0.168   2.235   8.494
11141WAT     H233666   0.146   2.298   8.346
11142WAT      O33667   6.886   7.045   9.140
11142WAT     H133668   6.917   6.953   9.163
11142WAT     H233669   6.836   7.043   9.054
11143WAT      O33670   2.462   7.510   3.523
11143WAT     H133671   2.404   7.584   3.491
11143WAT     H233672   2.464   7.436   3.455
11144WAT      O33673   1.613   8.263   2.008
11144WAT     H133674   1.694   8.260   2.067
11144WAT     H233675   1.546   8.326   2.047
11145WAT      O33676   3.747   2.046   3.467
11145WAT     H133677   3.735   2.104   3.386
11145WAT     H233678   3.669   1.983   3.475
11146WAT      O33679   1.006   4.388   9.028
11146WAT     H133680   0.931   4.381   8.961
11146WAT     H233681   1.019   4.483   9.053
11147WAT      O33682   8.280   9.523   5.411
11147WAT     H133683   8.297   9.484   5.321
11147WAT     H233684   8.238   9.454   5.470
11148WAT      O33685   9.823   1.274   6.650
11148WAT     H133686   9.754   1.339   6.681
11148WAT     H233687   9.876   1.314   6.575
11149WAT      O33688   9.125   5.510   2.656
11149WAT     H133689   9.189   5.553   2.719
11149WAT     H233690   9.056   5.460   2.707
11150WAT      O33691   6.174   8.286   7.022
11150WAT     H133692   6.122   8.202   7.006
11150WAT     H233693   6.171   8.310   7.119
11151WAT      O33694   4.333   3.141   7.776
11151WAT     H133695   4.258   3.207   7.787
11151WAT     H233696   4.368   3.116   7.866
11152WAT      O33697   4.990   7.157   0.887
11152WAT     H133698   4.975   7.198   0.797
11152WAT     H233699   4.945   7.068   0.891
11153WAT      O33700   1.525   2.282   3.047
11153WAT     H133701   1.623   2.270   3.030
11153WAT     H233702   1.504   2.258   3.142
11154WAT      O33703   1.953   1.550   5.937
11154WAT     H133704   1.999   1.632   5.903
11154WAT     H233705   2.020   1.490   5.981
11155WAT      O33706   7.239   4.683   6.846
11155WAT     H133707   7.194   4.765   6.810
11155WAT     H233708   7.212   4.669   6.941
11156WAT      O33709   8.300   6.053   2.960
11156WAT     H133710   8.274   5.981   2.895
11156WAT     H233711   8.221   6.113   2.976
11157WAT      O33712   4.183   1.985   7.208
11157WAT     H133713   4.103   2.040   7.184
11157WAT     H233714   4.187   1.974   7.307
11158WAT      O33715   4.454   9.326   2.363
11158WAT     H133716   4.494   9.254   2.306
11158WAT     H233717   4.399   9.387   2.306
11159WAT      O33718   7.555   1.770   8.139
11159WAT     H133719   7.474   1.792   8.085
11159WAT     H233720   7.620   1.846   8.135
11160WAT      O33721   5.069   7.499   9.811
11160WAT     H133722   5.125   7.435   9.864
11160WAT     H233723   4.982   7.514   9.859
11161WAT      O33724   2.761   9.151   5.701
11161WAT     H133725   2.775   9.099   5.617
11161WAT     H233726   2.768   9.249   5.681
11162WAT      O33727   7.279   5.135   6.894
11162WAT     H133728   7.365   5.110   6.937
11162WAT     H233729   7.294   5.152   6.797
11163WAT      O33730   7.275   1.176   6.772
11163WAT     H133731   7.310   1.089   6.738
11163WAT     H233732   7.339   1.214   6.839
11164WAT      O33733   6.883   6.006   8.538
11164WAT     H133734   6.976   6.029   8.567
11164WAT     H233735   6.886   5.944   8.460
11165WAT      O33736   5.194   5.487   1.670
11165WAT     H133737   5.195   5.586   1.663
11165WAT     H233738   5.285   5.455   1.696
11166WAT      O33739   5.899   5.807   4.877
11166WAT     H133740   5.867   5.720   4.913
11166WAT     H233741   5.831   5.878   4.897
11167WAT      O33742   0.597   4.635   2.339
11167WAT     H133743   0.548   4.596   2.416
11167WAT     H233744   0.532   4.676   2.275
11168WAT      O33745   5.019   0.900   2.814
11168WAT     H133746   4.928   0.938   2.832
11168WAT     H233747   5.077   0.971   2.773
11169WAT      O33748   0.896   9.369   2.048
11169WAT     H133749   0.993   9.383   2.068
11169WAT     H233750   0.863   9.288   2.096
11170WAT      O33751   9.476   1.348   9.778
11170WAT     H133752   9.527   1.415   9.833
11170WAT     H233753   9.508   1.256   9.801
11171WAT      O33754   5.963   7.742   1.224
11171WAT     H133755   5.935   7.648   1.206
11171WAT     H233756   5.882   7.799   1.239
11172WAT      O33757   0.301   6.371   3.933
11172WAT     H133758   0.377   6.423   3.892
11172WAT     H233759   0.266   6.422   4.012
11173WAT      O33760   3.945   8.414   8.956
11173WAT     H133761   3.926   8.506   8.921
11173WAT     H233762   3.890   8.397   9.038
11174WAT      O33763   9.696   3.218   5.708
11174WAT     H133764   9.748   3.281   5.651
11174WAT     H233765   9.663   3.141   5.653
11175WAT      O33766   4.742   8.808   4.171
11175WAT     H133767   4.647   8.777   4.178
11175WAT     H233768   4.762   8.871   4.245
11176WAT      O33769   4.891   2.842   9.622
11176WAT     H133770   4.969   2.805   9.571
11176WAT     H233771   4.848   2.769   9.675
11177WAT      O33772   9.550   9.381   3.255
11177WAT     H133773   9.469   9.381   3.196
11177WAT     H233774   9.621   9.325   3.212
11178WAT      O33775   7.826   5.324   1.683
11178WAT     H133776   7.913   5.282   1.708
11178WAT     H233777   7.802   5.394   1.750
11179WAT      O33778   9.288   5.452   4.048
11179WAT     H133779   9.386   5.433   4.043
11179WAT     H233780   9.239   5.396   3.981
11180WAT      O33781   8.449   8.864   3.354
11180WAT     H133782   8.365   8.916   3.338
11180WAT     H233783   8.523   8.928   3.376
11181WAT      O33784   0.748   2.775   4.538
11181WAT     H133785   0.683   2.720   4.485
11181WAT     H233786   0.842   2.748   4.515
11182WAT      O33787   7.085   1.370   7.054
11182WAT     H133788   7.114   1.410   6.967
11182WAT     H233789   7.081   1.271   7.046
11183WAT      O33790   8.589   6.381   7.219
11183WAT     H133791   8.576   6.440   7.140
11183WAT     H233792   8.561   6.429   7.302
11184WAT      O33793   1.839   5.483   4.366
11184WAT     H133794   1.806   5.394   4.334
11184WAT     H233795   1.762   5.538   4.398
11185WAT      O33796   5.792   9.394   9.276
11185WAT     H133797   5.843   9.480   9.273
11185WAT     H233798   5.797   9.354   9.367
11186WAT      O33799   1.454   4.519   2.452
11186WAT     H133800   1.512   4.575   2.392
11186WAT     H233801   1.370   4.495   2.403
11187WAT      O33802   3.739   2.304   6.455
11187WAT     H133803   3.655   2.338   6.497
11187WAT     H233804   3.818   2.329   6.512
11188WAT      O33805   9.578   9.673   4.300
11188WAT     H133806   9.618   9.748   4.353
11188WAT     H233807   9.586   9.694   4.202
11189WAT      O33808   1.930   8.032   9.160
11189WAT     H133809   1.941   7.958   9.228
11189WAT     H233810   1.955   7.997   9.070
11190WAT      O33811   6.359   0.701   8.908
11190WAT     H133812   6.290   0.631   8.884
11190WAT     H233813   6.415   0.720   8.828
11191WAT      O33814   9.196   1.091   5.479
11191WAT     H133815   9.191   1.169   5.416
11191WAT     H233816   9.133   1.020   5.449
11192WAT      O33817   8.583   8.876   5.045
11192WAT     H133818   8.589   8.782   5.013
11192WAT     H233819   8.526   8.880   5.127
11193WAT      O33820   6.930   7.511   2.210
11193WAT     H133821   6.899   7.540   2.120
11193WAT     H233822   6.880   7.429   2.238
11194WAT      O33823   7.225   2.494   2.845
11194WAT     H133824   7.181   2.439   2.916
11194WAT     H233825   7.161   2.512   2.771
11195WAT      O33826   8.778   3.846   7.675
11195WAT     H133827   8.799   3.943   7.659
11195WAT     H233828   8.685   3.838   7.712
11196WAT      O33829   8.989   0.139   6.076
11196WAT     H133830   8.910   0.183   6.033
11196WAT     H233831   9.058   0.208   6.097
11197WAT      O33832   8.073   5.768   1.362
11197WAT     H133833   8.161   5.759   1.410
11197WAT     H233834   8.090   5.789   1.266
11198WAT      O33835   9.466   8.847   8.180
11198WAT     H133836   9.395   8.911   8.210
11198WAT     H233837   9.484   8.861   8.083
11199WAT      O33838   9.181   9.641   5.356
11199WAT     H133839   9.138   9.713   5.302
11199WAT     H233840   9.241   9.586   5.297
11200WAT      O33841   1.128   9.667   3.923
11200WAT     H133842   1.078   9.627   3.847
11200WAT     H233843   1.093   9.631   4.009
11201WAT      O33844   5.428   7.825   2.913
11201WAT     H133845   5.428   7.832   2.813
11201WAT     H233846   5.334   7.826   2.947
11202WAT      O33847   2.297   9.021   2.919
11202WAT     H133848   2.262   9.112   2.942
11202WAT     H233849   2.371   9.030   2.852
11203WAT      O33850   9.507   8.164   3.248
11203WAT     H133851   9.477   8.071   3.228
11203WAT     H233852   9.459   8.198   3.329
11204WAT      O33853   7.544   2.245   6.405
11204WAT     H133854   7.521   2.292   6.320
11204WAT     H233855   7.620   2.292   6.450
11205WAT      O33856   5.907   1.726   7.000
11205WAT     H133857   5.962   1.662   6.947
11205WAT     H233858   5.812   1.695   7.003
11206WAT      O33859   6.208   0.148   3.253
11206WAT     H133860   6.251   0.213   3.316
11206WAT     H233861   6.112   0.175   3.238
11207WAT      O33862   1.117   7.285   7.065
11207WAT     H133863   1.216   7.278   7.074
11207WAT     H233864   1.078   7.320   7.150
11208WAT      O33865   8.352   5.713   4.520
11208WAT     H133866   8.314   5.803   4.500
11208WAT     H233867   8.450   5.713   4.501
11209WAT      O33868   8.396   3.556   5.764
11209WAT     H133869   8.494   3.571   5.776
11209WAT     H233870   8.377   3.540   5.668
11210WAT      O33871   5.793   9.766   6.262
11210WAT     H133872   5.800   9.716   6.176
11210WAT     H233873   5.847   9.850   6.257
11211WAT      O33874   7.456   1.248   2.284
11211WAT     H133875   7.464   1.277   2.189
11211WAT     H233876   7.359   1.236   2.306
11212WAT      O33877   9.462   1.099   5.472
11212WAT     H133878   9.513   1.027   5.519
11212WAT     H233879   9.364   1.077   5.476
11213WAT      O33880   8.311   2.358   4.635
11213WAT     H133881   8.275   2.264   4.633
11213WAT     H233882   8.376   2.370   4.560
11214WAT      O33883   1.148   2.914   6.435
11214WAT     H133884   1.056   2.875   6.434
11214WAT     H233885   1.212   2.846   6.469
11215WAT      O33886   4.266   2.099   1.941
11215WAT     H133887   4.245   2.076   1.846
11215WAT     H233888   4.360   2.131   1.947
11216WAT      O33889   1.323   7.157   2.484
11216WAT     H133890   1.292   7.081   2.427
11216WAT     H233891   1.248   7.190   2.540
11217WAT      O33892   0.140   4.341   8.600
11217WAT     H133893   0.184   4.304   8.682
11217WAT     H233894   0.042   4.349   8.616
11218WAT      O33895   1.805   4.488   9.750
11218WAT     H133896   1.772   4.415   9.690
11218WAT     H233897   1.870   4.449   9.816
11219WAT      O33898   4.014   4.926   9.773
11219WAT     H133899   4.069   4.960   9.697
11219WAT     H233900   4.026   4.985   9.853
11220WAT      O33901   5.851   8.239   6.537
11220WAT     H133902   5.841   8.154   6.484
11220WAT     H233903   5.948   8.258   6.551
11221WAT      O33904   6.960   4.926   5.869
11221WAT     H133905   6.925   4.898   5.958
11221WAT     H233906   6.946   5.024   5.857
11222WAT      O33907   1.986   2.440   0.278
11222WAT     H133908   1.909   2.439   0.213
11222WAT     H233909   2.035   2.526   0.268
11223WAT      O33910   3.078   3.585   5.808
11223WAT     H133911   3.157   3.624   5.855
11223WAT     H233912   3.010   3.556   5.876
11224WAT      O33913   3.611   8.822   4.823
11224WAT     H133914   3.687   8.802   4.761
11224WAT     H233915   3.634   8.795   4.916
11225WAT      O33916   9.133   5.380   1.307
11225WAT     H133917   9.126   5.309   1.237
11225WAT     H233918   9.045   5.390   1.353
11226WAT      O33919   1.909   1.314   7.983
11226WAT     H133920   1.917   1.246   7.909
11226WAT     H233921   1.845   1.280   8.052
11227WAT      O33922   5.354   1.387   7.630
11227WAT     H133923   5.355   1.297   7.674
11227WAT     H233924   5.277   1.441   7.665
11228WAT      O33925   6.205   2.491   7.571
11228WAT     H133926   6.147   2.481   7.490
11228WAT     H233927   6.246   2.402   7.593
11229WAT      O33928   3.293   2.727   6.596
11229WAT     H133929   3.251   2.636   6.586
11229WAT     H233930   3.258   2.771   6.679
11230WAT      O33931   6.650   1.292   0.860
11230WAT     H133932   6.564   1.344   0.857
11230WAT     H233933   6.722   1.349   0.898
11231WAT      O33934   1.391   6.708   4.652
11231WAT     H133935   1.310   6.763   4.632
11231WAT     H233936   1.362   6.618   4.685
11232WAT      O33937   9.038   8.572   9.209
11232WAT     H133938   9.068   8.591   9.116
11232WAT     H233939   8.985   8.487   9.210
11233WAT      O33940   4.157   0.141   3.063
11233WAT     H133941   4.206   0.218   3.023
11233WAT     H233942   4.108   0.092   2.990
11234WAT      O33943   3.245   3.914   3.457
11234WAT     H133944   3.161   3.897   3.509
11234WAT     H233945   3.251   3.847   3.383
11235WAT      O33946   7.893   6.252   1.505
11235WAT     H133947   7.900   6.153   1.488
11235WAT     H233948   7.976   6.284   1.550
11236WAT      O33949   0.845   9.558   6.731
11236WAT     H133950   0.934   9.588   6.766
11236WAT     H233951   0.818   9.475   6.778
11237WAT      O33952   5.321   3.664   7.263
11237WAT     H133953   5.374   3.749   7.258
11237WAT     H233954   5.245   3.668   7.198
11238WAT      O33955   8.573   5.658   5.812
11238WAT     H133956   8.494   5.712   5.781
11238WAT     H233957   8.635   5.717   5.863
11239WAT      O33958   2.220   7.249   9.491
11239WAT     H133959   2.224   7.217   9.396
11239WAT     H233960   2.163   7.332   9.495
11240WAT      O33961   2.919   2.161   2.660
11240WAT     H133962   2.961   2.188   2.747
11240WAT     H233963   2.853   2.231   2.632
11241WAT      O33964   3.363   9.615   8.129
11241WAT     H133965   3.292   9.586   8.064
11241WAT     H233966   3.431   9.542   8.138
11242WAT      O33967   0.461   2.501   0.654
11242WAT     H133968   0.519   2.423   0.633
11242WAT     H233969   0.394   2.476   0.723
11243WAT      O33970   2.275   9.570   2.234
11243WAT     H133971   2.176   9.580   2.224
11243WAT     H233972   2.300   9.473   2.228
11244WAT      O33973   1.414   3.805   7.690
11244WAT     H133974   1.349   3.754   7.635
11244WAT     H233975   1.507   3.790   7.655
11245WAT      O33976   6.723   7.126   0.005
11245WAT     H133977   6.745   7.187  -0.071
11245WAT     H233978   6.718   7.178   0.090
11246WAT      O33979   4.164   6.288   1.525
11246WAT     H133980   4.069   6.286   1.556
11246WAT     H233981   4.207   6.373   1.554
11247WAT      O33982   3.419   7.969   5.132
11247WAT     H133983   3.453   8.037   5.066
11247WAT     H233984   3.377   8.016   5.209
11248WAT      O33985   8.525   0.165   3.774
11248WAT     H133986   8.513   0.184   3.676
11248WAT     H233987   8.558   0.072   3.786
11249WAT      O33988   5.772   2.868   6.975
11249WAT     H133989   5.709   2.922   7.031
11249WAT     H233990   5.813   2.927   6.905
11250WAT      O33991   9.697   5.451   7.637
11250WAT     H133992   9.618   5.499   7.676
11250WAT     H233993   9.738   5.392   7.706
11251WAT      O33994   9.685   4.721   5.865
11251WAT     H133995   9.622   4.769   5.804
11251WAT     H233996   9.720   4.639   5.819
11252WAT      O33997   7.943   8.727   3.244
11252WAT     H133998   7.952   8.819   3.281
11252WAT     H233999   7.931   8.661   3.318
11253WAT      O34000   4.191   7.499   6.210
11253WAT     H134001   4.252   7.467   6.282
11253WAT     H234002   4.165   7.594   6.228
11254WAT      O34003   1.372   9.171   9.842
11254WAT     H134004   1.442   9.117   9.889
11254WAT     H234005   1.363   9.260   9.887
11255WAT      O34006   3.940   9.793   8.888
11255WAT     H134007   3.865   9.839   8.935
11255WAT     H234008   4.005   9.759   8.955
11256WAT      O34009   4.590   2.423   8.575
11256WAT     H134010   4.689   2.423   8.556
11256WAT     H234011   4.575   2.452   8.670
11257WAT      O34012   2.372   4.090   0.147
11257WAT     H134013   2.439   4.112   0.076
11257WAT     H234014   2.381   4.154   0.223
11258WAT      O34015   2.060   3.666   5.106
11258WAT     H134016   2.027   3.669   5.012
11258WAT     H234017   2.105   3.753   5.128
11259WAT      O34018   4.333   2.632   7.612
11259WAT     H134019   4.267   2.676   7.551
11259WAT     H234020   4.284   2.583   7.684
11260WAT      O34021   3.712   3.551   9.068
11260WAT     H134022   3.809   3.572   9.062
11260WAT     H234023   3.678   3.572   9.160
11261WAT      O34024   9.372   1.356   7.791
11261WAT     H134025   9.407   1.278   7.844
11261WAT     H234026   9.306   1.323   7.724
11262WAT      O34027   5.737   7.755   6.288
11262WAT     H134028   5.761   7.668   6.330
11262WAT     H234029   5.681   7.739   6.206
11263WAT      O34030   8.670   6.794   9.725
11263WAT     H134031   8.632   6.724   9.786
11263WAT     H234032   8.733   6.852   9.775
11264WAT      O34033   6.470   7.906   7.434
11264WAT     H134034   6.437   7.988   7.481
11264WAT     H234035   6.528   7.931   7.357
11265WAT      O34036   5.741   2.384   9.734
11265WAT     H134037   5.662   2.362   9.790
11265WAT     H234038   5.811   2.313   9.746
11266WAT      O34039   8.194   3.193   0.565
11266WAT     H134040   8.128   3.229   0.630
11266WAT     H234041   8.267   3.145   0.615
11267WAT      O34042   2.282   3.039   2.890
11267WAT     H134043   2.267   3.137   2.877
11267WAT     H234044   2.295   2.995   2.801
11268WAT      O34045   9.803   6.832   5.663
11268WAT     H134046   9.727   6.834   5.599
11268WAT     H234047   9.812   6.922   5.706
11269WAT      O34048   9.345   4.154   2.695
11269WAT     H134049   9.295   4.231   2.735
11269WAT     H234050   9.419   4.189   2.636
11270WAT      O34051   1.444   8.082   2.175
11270WAT     H134052   1.422   8.178   2.189
11270WAT     H234053   1.509   8.074   2.099
11271WAT      O34054   7.608   6.196   7.770
11271WAT     H134055   7.672   6.201   7.693
11271WAT     H234056   7.516   6.175   7.736
11272WAT      O34057   0.619   8.014   5.186
11272WAT     H134058   0.588   8.064   5.267
11272WAT     H234059   0.633   7.918   5.210
11273WAT      O34060   0.750   7.587   2.402
11273WAT     H134061   0.809   7.562   2.325
11273WAT     H234062   0.745   7.687   2.409
11274WAT      O34063   9.438   3.203   3.317
11274WAT     H134064   9.391   3.117   3.337
11274WAT     H234065   9.521   3.185   3.264
11275WAT      O34066   7.977   0.432   7.203
11275WAT     H134067   8.040   0.477   7.141
11275WAT     H234068   8.005   0.448   7.297
11276WAT      O34069   7.546   3.743   7.275
11276WAT     H134070   7.586   3.672   7.218
11276WAT     H234071   7.446   3.735   7.274
11277WAT      O34072   7.755   5.860   6.900
11277WAT     H134073   7.687   5.932   6.882
11277WAT     H234074   7.843   5.903   6.924
11278WAT      O34075   9.005   6.462   6.206
11278WAT     H134076   8.976   6.441   6.300
11278WAT     H234077   8.926   6.462   6.146
11279WAT      O34078   8.128   7.770   0.415
11279WAT     H134079   8.087   7.727   0.495
11279WAT     H234080   8.085   7.734   0.332
11280WAT      O34081   2.001   6.421   2.898
11280WAT     H134082   2.072   6.404   2.966
11280WAT     H234083   1.945   6.339   2.887
11281WAT      O34084   1.975   7.406   0.561
11281WAT     H134085   1.937   7.323   0.600
11281WAT     H234086   2.074   7.408   0.575
11282WAT      O34087   2.372   0.665   9.787
11282WAT     H134088   2.314   0.613   9.850
11282WAT     H234089   2.464   0.671   9.825
11283WAT      O34090   1.585   2.710   5.680
11283WAT     H134091   1.645   2.696   5.601
11283WAT     H234092   1.495   2.670   5.662
11284WAT      O34093   9.858   8.222   4.298
11284WAT     H134094   9.928   8.160   4.333
11284WAT     H234095   9.900   8.290   4.238
11285WAT      O34096   4.864   1.597   6.466
11285WAT     H134097   4.771   1.631   6.451
11285WAT     H234098   4.861   1.520   6.530
11286WAT      O34099   4.300   0.874   9.469
11286WAT     H134100   4.244   0.807   9.421
11286WAT     H234101   4.359   0.921   9.402
11287WAT      O34102   1.837   8.390   6.033
11287WAT     H134103   1.783   8.352   6.108
11287WAT     H234104   1.934   8.378   6.052
11288WAT      O34105   9.622   4.265   6.568
11288WAT     H134106   9.534   4.243   6.526
11288WAT     H234107   9.625   4.227   6.661
11289WAT      O34108   5.639   1.823   1.767
11289WAT     H134109   5.618   1.919   1.755
11289WAT     H234110   5.728   1.803   1.724
11290WAT      O34111   5.778   4.196   1.523
11290WAT     H134112   5.851   4.263   1.537
11290WAT     H234113   5.775   4.134   1.600
11291WAT      O34114   8.750   9.828   7.590
11291WAT     H134115   8.808   9.749   7.614
11291WAT     H234116   8.749   9.839   7.491
11292WAT      O34117   9.517   8.361   5.112
11292WAT     H134118   9.428   8.396   5.084
11292WAT     H234119   9.522   8.358   5.212
11293WAT      O34120   2.200   0.421   7.742
11293WAT     H134121   2.164   0.441   7.651
11293WAT     H234122   2.136   0.362   7.791
11294WAT      O34123   0.107   1.781   7.656
11294WAT     H134124   0.089   1.719   7.579
11294WAT     H234125   0.168   1.854   7.626
11295WAT      O34126   5.050   6.347   3.591
11295WAT     H134127   5.122   6.415   3.607
11295WAT     H234128   4.983   6.351   3.665
11296WAT      O34129   6.989   5.008   1.552
11296WAT     H134130   6.955   4.992   1.459
11296WAT     H234131   6.938   5.082   1.595
11297WAT      O34132   9.225   1.408   3.378
11297WAT     H134133   9.142   1.447   3.339
11297WAT     H234134   9.223   1.416   3.477
11298WAT      O34135   4.459   7.318   0.048
11298WAT     H134136   4.390   7.252   0.078
11298WAT     H234137   4.509   7.281  -0.030
11299WAT      O34138   1.002   8.751   7.552
11299WAT     H134139   1.061   8.768   7.473
11299WAT     H234140   1.049   8.690   7.616
11300WAT      O34141   9.046   5.635   1.945
11300WAT     H134142   9.123   5.697   1.928
11300WAT     H234143   8.998   5.663   2.028
11301WAT      O34144   8.813   7.557   6.506
11301WAT     H134145   8.728   7.544   6.557
11301WAT     H234146   8.889   7.520   6.560
11302WAT      O34147   9.762   0.074   2.938
11302WAT     H134148   9.805   0.025   2.862
11302WAT     H234149   9.801   0.044   3.024
11303WAT      O34150   7.599   1.835   7.312
11303WAT     H134151   7.560   1.770   7.377
11303WAT     H234152   7.664   1.788   7.253
11304WAT      O34153   9.780   8.164   3.190
11304WAT     H134154   9.685   8.152   3.217
11304WAT     H234155   9.798   8.261   3.173
11305WAT      O34156   2.291   8.829   6.622
11305WAT     H134157   2.253   8.857   6.534
11305WAT     H234158   2.256   8.737   6.645
11306WAT      O34159   9.512   8.238   5.380
11306WAT     H134160   9.609   8.261   5.369
11306WAT     H234161   9.499   8.141   5.362
11307WAT      O34162   2.225   5.520   6.914
11307WAT     H134163   2.291   5.577   6.866
11307WAT     H234164   2.246   5.519   7.012
11308WAT      O34165   9.610   2.174   7.458
11308WAT     H134166   9.654   2.247   7.406
11308WAT     H234167   9.675   2.137   7.525
11309WAT      O34168   2.068   8.388   1.685
11309WAT     H134169   2.020   8.364   1.600
11309WAT     H234170   2.009   8.445   1.742
11310WAT      O34171   8.238   1.711   7.142
11310WAT     H134172   8.308   1.724   7.073
11310WAT     H234173   8.155   1.674   7.100
11311WAT      O34174   5.684   6.812   6.547
11311WAT     H134175   5.773   6.847   6.518
11311WAT     H234176   5.684   6.713   6.542
11312WAT      O34177   5.682   5.965   5.107
11312WAT     H134178   5.707   5.988   5.013
11312WAT     H234179   5.591   6.000   5.127
11313WAT      O34180   3.811   9.012   5.100
11313WAT     H134181   3.749   9.088   5.080
11313WAT     H234182   3.905   9.044   5.096
11314WAT      O34183   7.765   5.850   5.329
11314WAT     H134184   7.751   5.752   5.312
11314WAT     H234185   7.726   5.903   5.254
11315WAT      O34186   1.911   9.804   7.665
11315WAT     H134187   1.848   9.835   7.594
11315WAT     H234188   1.920   9.704   7.659
11316WAT      O34189   2.394   3.186   9.185
11316WAT     H134190   2.365   3.226   9.272
11316WAT     H234191   2.396   3.086   9.194
11317WAT      O34192   7.208   2.982   7.474
11317WAT     H134193   7.164   3.049   7.533
11317WAT     H234194   7.305   3.003   7.467
11318WAT      O34195   6.307   2.355   3.513
11318WAT     H134196   6.357   2.435   3.547
11318WAT     H234197   6.281   2.297   3.590
11319WAT      O34198   4.459   0.207   9.151
11319WAT     H134199   4.395   0.252   9.213
11319WAT     H234200   4.513   0.140   9.202
11320WAT      O34201   2.265   5.177   6.039
11320WAT     H134202   2.307   5.236   6.108
11320WAT     H234203   2.225   5.233   5.967
11321WAT      O34204   6.640   3.108   3.934
11321WAT     H134205   6.612   3.202   3.917
11321WAT     H234206   6.610   3.050   3.858
11322WAT      O34207   1.929   3.941   2.683
11322WAT     H134208   1.953   3.884   2.604
11322WAT     H234209   1.954   3.893   2.767
11323WAT      O34210   9.832   1.743   7.054
11323WAT     H134211   9.913   1.766   7.109
11323WAT     H234212   9.851   1.761   6.957
11324WAT      O34213   0.244   1.687   1.126
11324WAT     H134214   0.325   1.739   1.098
11324WAT     H234215   0.182   1.677   1.048
11325WAT      O34216   4.350   2.911   3.117
11325WAT     H134217   4.369   2.903   3.215
11325WAT     H234218   4.417   2.858   3.065
11326WAT      O34219   0.590   7.373   2.774
11326WAT     H134220   0.687   7.351   2.764
11326WAT     H234221   0.560   7.425   2.694
11327WAT      O34222   6.279   9.523   2.792
11327WAT     H134223   6.364   9.539   2.741
11327WAT     H234224   6.233   9.442   2.756
11328WAT      O34225   6.396   0.043   6.925
11328WAT     H134226   6.371  -0.046   6.962
11328WAT     H234227   6.465   0.032   6.853
11329WAT      O34228   9.020   1.997   8.342
11329WAT     H134229   9.060   2.008   8.251
11329WAT     H234230   8.957   2.072   8.360
11330WAT      O34231   5.811   3.249   9.813
11330WAT     H134232   5.831   3.254   9.715
11330WAT     H234233   5.896   3.253   9.865
11331WAT      O34234   0.096   9.745   7.705
11331WAT     H134235   0.126   9.788   7.620
11331WAT     H234236   0.097   9.646   7.694
11332WAT      O34237   4.505   9.664   2.329
11332WAT     H134238   4.554   9.739   2.285
11332WAT     H234239   4.569   9.591   2.351
11333WAT      O34240   8.568   6.520   2.523
11333WAT     H134241   8.551   6.512   2.424
11333WAT     H234242   8.519   6.599   2.559
11334WAT      O34243   6.333   8.341   9.639
11334WAT     H134244   6.271   8.268   9.609
11334WAT     H234245   6.291   8.429   9.621
11335WAT      O34246   7.845   4.969   9.644
11335WAT     H134247   7.753   4.932   9.651
11335WAT     H234248   7.843   5.067   9.661
11336WAT      O34249   9.023   2.952   2.258
11336WAT     H134250   8.936   2.980   2.297
11336WAT     H234251   9.048   2.861   2.293
11337WAT      O34252   0.080   0.556   1.520
11337WAT     H134253  -0.001   0.614   1.518
11337WAT     H234254   0.159   0.607   1.487
11338WAT      O34255   3.665   5.351   2.334
11338WAT     H134256   3.583   5.333   2.281
11338WAT     H234257   3.707   5.437   2.303
11339WAT      O34258   1.693   1.558   3.172
11339WAT     H134259   1.774   1.500   3.178
11339WAT     H234260   1.701   1.633   3.238
11340WAT      O34261   5.566   3.786   8.890
11340WAT     H134262   5.562   3.809   8.987
11340WAT     H234263   5.474   3.772   8.855
11341WAT      O34264   8.143   7.034   9.442
11341WAT     H134265   8.204   7.036   9.363
11341WAT     H234266   8.086   6.951   9.438
11342WAT      O34267   7.702   1.741   1.559
11342WAT     H134268   7.753   1.721   1.476
11342WAT     H234269   7.761   1.790   1.624
11343WAT      O34270   3.312   0.335   4.985
11343WAT     H134271   3.376   0.410   4.967
11343WAT     H234272   3.223   0.373   5.010
11344WAT      O34273   0.269   2.734   8.892
11344WAT     H134274   0.183   2.703   8.851
11344WAT     H234275   0.329   2.656   8.905
11345WAT      O34276   8.856   2.705   2.123
11345WAT     H134277   8.827   2.800   2.109
11345WAT     H234278   8.929   2.683   2.059
11346WAT      O34279   2.705   5.697   6.168
11346WAT     H134280   2.713   5.737   6.259
11346WAT     H234281   2.673   5.766   6.103
11347WAT      O34282   4.435   9.626   8.155
11347WAT     H134283   4.408   9.562   8.083
11347WAT     H234284   4.357   9.680   8.183
11348WAT      O34285   6.968   8.899   3.588
11348WAT     H134286   6.928   8.824   3.535
11348WAT     H234287   6.990   8.866   3.680
11349WAT      O34288   1.289   7.394   7.813
11349WAT     H134289   1.324   7.313   7.860
11349WAT     H234290   1.276   7.374   7.716
11350WAT      O34291   1.774   0.487   2.392
11350WAT     H134292   1.746   0.577   2.425
11350WAT     H234293   1.723   0.416   2.442
11351WAT      O34294   6.939   6.773   9.808
11351WAT     H134295   6.949   6.871   9.821
11351WAT     H234296   6.890   6.734   9.887
11352WAT      O34297   2.576   2.903   1.708
11352WAT     H134298   2.563   2.981   1.770
11352WAT     H234299   2.638   2.837   1.751
11353WAT      O34300   4.544   1.230   1.980
11353WAT     H134301   4.454   1.196   1.952
11353WAT     H234302   4.540   1.329   1.994
11354WAT      O34303   5.112   0.097   2.105
11354WAT     H134304   5.183   0.095   2.034
11354WAT     H234305   5.053   0.017   2.094
11355WAT      O34306   1.448   4.151   3.137
11355WAT     H134307   1.505   4.202   3.201
11355WAT     H234308   1.407   4.214   3.071
11356WAT      O34309   5.180   7.604   8.862
11356WAT     H134310   5.084   7.614   8.837
11356WAT     H234311   5.237   7.654   8.797
11357WAT      O34312   2.159   4.408   5.394
11357WAT     H134313   2.180   4.485   5.335
11357WAT     H234314   2.241   4.353   5.408
11358WAT      O34315   1.155   3.103   7.506
11358WAT     H134316   1.097   3.163   7.452
11358WAT     H234317   1.251   3.115   7.478
11359WAT      O34318   2.243   2.593   9.056
11359WAT     H134319   2.339   2.567   9.049
11359WAT     H234320   2.211   2.578   9.149
11360WAT      O34321   6.242   5.810   6.090
11360WAT     H134322   6.287   5.727   6.124
11360WAT     H234323   6.155   5.785   6.046
11361WAT      O34324   9.305   1.903   0.458
11361WAT     H134325   9.223   1.957   0.441
11361WAT     H234326   9.386   1.955   0.429
11362WAT      O34327   6.243   0.888   0.388
11362WAT     H134328   6.322   0.836   0.356
11362WAT     H234329   6.178   0.900   0.313
11363WAT      O34330   9.088   2.651   3.363
11363WAT     H134331   9.172   2.601   3.383
11363WAT     H234332   9.067   2.713   3.439
11364WAT      O34333   4.175   2.935   0.046
11364WAT     H134334   4.176   2.949   0.145
11364WAT     H234335   4.086   2.900   0.018
11365WAT      O34336   0.767   6.921   6.010
11365WAT     H134337   0.679   6.908   5.965
11365WAT     H234338   0.777   6.855   6.084
11366WAT      O34339   8.575   3.376   9.344
11366WAT     H134340   8.576   3.461   9.396
11366WAT     H234341   8.666   3.335   9.345
11367WAT      O34342   2.980   3.947   1.658
11367WAT     H134343   2.896   3.983   1.699
11367WAT     H234344   3.059   3.991   1.701
11368WAT      O34345   1.202   4.781   3.364
11368WAT     H134346   1.168   4.847   3.430
11368WAT     H234347   1.193   4.818   3.271
11369WAT      O34348   8.266   2.209   2.869
11369WAT     H134349   8.285   2.187   2.774
11369WAT     H234350   8.187   2.270   2.875
11370WAT      O34351   6.518   4.107   3.650
11370WAT     H134352   6.532   4.022   3.599
11370WAT     H234353   6.601   4.130   3.701
11371WAT      O34354   2.836   6.051   3.186
11371WAT     H134355   2.923   6.071   3.232
11371WAT     H234356   2.775   6.003   3.249
11372WAT      O34357   6.179   7.237   7.650
11372WAT     H134358   6.271   7.269   7.629
11372WAT     H234359   6.182   7.140   7.675
11373WAT      O34360   6.101   6.477   8.449
11373WAT     H134361   6.080   6.480   8.546
11373WAT     H234362   6.033   6.529   8.398
11374WAT      O34363   0.972   7.214   3.727
11374WAT     H134364   0.895   7.259   3.681
11374WAT     H234365   1.011   7.277   3.795
11375WAT      O34366   8.099   5.207   3.737
11375WAT     H134367   8.138   5.115   3.739
11375WAT     H234368   8.171   5.274   3.720
11376WAT      O34369   2.492   2.893   2.098
11376WAT     H134370   2.434   2.897   2.016
11376WAT     H234371   2.584   2.865   2.071
11377WAT      O34372   1.330   4.830   2.372
11377WAT     H134373   1.302   4.831   2.276
11377WAT     H234374   1.421   4.871   2.382
11378WAT      O34375   9.382   7.991   7.205
11378WAT     H134376   9.410   8.034   7.118
11378WAT     H234377   9.460   7.992   7.268
11379WAT      O34378   4.361   0.723   6.734
11379WAT     H134379   4.292   0.651   6.726
11379WAT     H234380   4.318   0.808   6.762
11380WAT      O34381   9.692   4.543   2.126
11380WAT     H134382   9.777   4.512   2.170
11380WAT     H234383   9.637   4.594   2.193
11381WAT      O34384   4.004   7.065   4.907
11381WAT     H134385   3.906   7.075   4.926
11381WAT     H234386   4.017   7.040   4.812
11382WAT      O34387   6.866   8.127   2.847
11382WAT     H134388   6.886   8.221   2.818
11382WAT     H234389   6.930   8.064   2.803
11383WAT      O34390   6.820   1.598   3.641
11383WAT     H134391   6.800   1.533   3.568
11383WAT     H234392   6.735   1.642   3.671
11384WAT      O34393   1.825   2.616   4.050
11384WAT     H134394   1.792   2.634   3.957
11384WAT     H234395   1.747   2.615   4.113
11385WAT      O34396   0.087   0.789   5.023
11385WAT     H134397   0.146   0.869   5.034
11385WAT     H234398   0.122   0.714   5.079
11386WAT      O34399   3.370   3.347   9.183
11386WAT     H134400   3.393   3.263   9.233
11386WAT     H234401   3.429   3.354   9.102
11387WAT      O34402   1.451   3.673   0.118
11387WAT     H134403   1.531   3.714   0.074
11387WAT     H234404   1.388   3.640   0.048
11388WAT      O34405   1.310   2.252   8.228
11388WAT     H134406   1.222   2.297   8.213
11388WAT     H234407   1.372   2.315   8.276
11389WAT      O34408   4.932   1.577   6.770
11389WAT     H134409   4.981   1.575   6.857
11389WAT     H234410   4.881   1.492   6.758
11390WAT      O34411   4.125   2.318   0.077
11390WAT     H134412   4.205   2.268   0.110
11390WAT     H234413   4.057   2.252   0.043
11391WAT      O34414   2.274   9.319   7.548
11391WAT     H134415   2.319   9.285   7.465
11391WAT     H234416   2.179   9.288   7.550
11392WAT      O34417   6.069   2.934   7.635
11392WAT     H134418   6.078   2.994   7.715
11392WAT     H234419   6.064   2.839   7.665
11393WAT      O34420   2.088   6.315   7.734
11393WAT     H134421   2.052   6.234   7.781
11393WAT     H234422   2.039   6.327   7.647
11394WAT      O34423   4.652   8.651   7.912
11394WAT     H134424   4.725   8.687   7.970
11394WAT     H234425   4.681   8.564   7.873
11395WAT      O34426   2.764   0.673   3.235
11395WAT     H134427   2.851   0.660   3.186
11395WAT     H234428   2.762   0.612   3.314
11396WAT      O34429   7.611   8.061   5.465
11396WAT     H134430   7.580   7.967   5.452
11396WAT     H234431   7.583   8.093   5.556
11397WAT      O34432   3.936   1.959   2.137
11397WAT     H134433   3.951   2.054   2.162
11397WAT     H234434   3.878   1.915   2.205
11398WAT      O34435   7.371   3.808   8.413
11398WAT     H134436   7.336   3.853   8.495
11398WAT     H234437   7.320   3.841   8.333
11399WAT      O34438   3.991   1.827   6.450
11399WAT     H134439   4.033   1.917   6.447
11399WAT     H234440   4.022   1.777   6.531
11400WAT      O34441   3.259   2.523   9.725
11400WAT     H134442   3.313   2.445   9.754
11400WAT     H234443   3.162   2.504   9.742
11401WAT      O34444   3.451   7.408   3.164
11401WAT     H134445   3.498   7.468   3.101
11401WAT     H234446   3.359   7.443   3.182
11402WAT      O34447   6.739   9.447   7.466
11402WAT     H134448   6.717   9.358   7.426
11402WAT     H234449   6.834   9.447   7.498
11403WAT      O34450   1.221   8.720   7.386
11403WAT     H134451   1.309   8.673   7.399
11403WAT     H234452   1.218   8.758   7.294
11404WAT      O34453   5.807   8.242   8.678
11404WAT     H134454   5.844   8.149   8.673
11404WAT     H234455   5.807   8.284   8.587
11405WAT      O34456   7.046   2.819   0.894
11405WAT     H134457   7.119   2.879   0.861
11405WAT     H234458   6.957   2.859   0.871
11406WAT      O34459   9.325   7.370   5.645
11406WAT     H134460   9.369   7.311   5.712
11406WAT     H234461   9.256   7.428   5.690
11407WAT      O34462   2.868   5.166   8.345
11407WAT     H134463   2.954   5.172   8.294
11407WAT     H234464   2.792   5.168   8.281
11408WAT      O34465   9.310   7.843   4.098
11408WAT     H134466   9.398   7.867   4.139
11408WAT     H234467   9.258   7.787   4.163
11409WAT      O34468   5.989   3.716   3.676
11409WAT     H134469   6.000   3.810   3.710
11409WAT     H234470   5.996   3.716   3.576
11410WAT      O34471   7.912   2.255   2.184
11410WAT     H134472   7.859   2.214   2.110
11410WAT     H234473   7.998   2.290   2.148
11411WAT      O34474   4.166   6.837   1.138
11411WAT     H134475   4.112   6.912   1.099
11411WAT     H234476   4.172   6.763   1.072
11412WAT      O34477   8.399   3.705   2.425
11412WAT     H134478   8.424   3.719   2.329
11412WAT     H234479   8.302   3.726   2.438
11413WAT      O34480   8.187   0.223   2.090
11413WAT     H134481   8.102   0.196   2.135
11413WAT     H234482   8.210   0.316   2.118
11414WAT      O34483   4.266   7.570   5.250
11414WAT     H134484   4.279   7.612   5.340
11414WAT     H234485   4.331   7.495   5.239
11415WAT      O34486   2.283   7.016   7.705
11415WAT     H134487   2.279   6.939   7.769
11415WAT     H234488   2.213   7.083   7.729
11416WAT      O34489   1.851   8.209   0.495
11416WAT     H134490   1.926   8.276   0.488
11416WAT     H234491   1.867   8.134   0.431
11417WAT      O34492   8.582   2.928   2.348
11417WAT     H134493   8.485   2.905   2.344
11417WAT     H234494   8.634   2.846   2.373
11418WAT      O34495   5.606   6.300   4.508
11418WAT     H134496   5.637   6.298   4.603
11418WAT     H234497   5.523   6.357   4.501
11419WAT      O34498   4.547   5.848   0.081
11419WAT     H134499   4.625   5.821   0.137
11419WAT     H234500   4.510   5.768   0.033
11420WAT      O34501   7.164   5.640   9.144
11420WAT     H134502   7.264   5.649   9.148
11420WAT     H234503   7.123   5.694   9.218
11421WAT      O34504   3.248   7.448   7.228
11421WAT     H134505   3.329   7.505   7.243
11421WAT     H234506   3.277   7.359   7.191
11422WAT      O34507   7.919   0.678   9.415
11422WAT     H134508   8.014   0.691   9.387
11422WAT     H234509   7.891   0.584   9.396
11423WAT      O34510   6.593   4.826   1.658
11423WAT     H134511   6.556   4.736   1.637
11423WAT     H234512   6.692   4.819   1.673
11424WAT      O34513   5.669   3.864   1.139
11424WAT     H134514   5.760   3.905   1.136
11424WAT     H234515   5.669   3.778   1.089
11425WAT      O34516   5.577   5.231   5.983
11425WAT     H134517   5.500   5.168   5.996
11425WAT     H234518   5.550   5.302   5.917
11426WAT      O34519   7.760   9.626   3.702
11426WAT     H134520   7.705   9.649   3.622
11426WAT     H234521   7.735   9.535   3.735
11427WAT      O34522   2.035   9.098   4.570
11427WAT     H134523   2.003   9.187   4.538
11427WAT     H234524   1.970   9.027   4.543
11428WAT      O34525   2.966   0.087   6.322
11428WAT     H134526   2.872   0.113   6.299
11428WAT     H234527   3.023   0.169   6.328
11429WAT      O34528   9.192   1.774   7.133
11429WAT     H134529   9.106   1.775   7.184
11429WAT     H234530   9.246   1.855   7.157
11430WAT      O34531   3.617   1.993   4.008
11430WAT     H134532   3.575   1.921   3.953
11430WAT     H234533   3.682   2.044   3.952
11431WAT      O34534   6.122   4.810   4.314
11431WAT     H134535   6.186   4.884   4.336
11431WAT     H234536   6.167   4.722   4.327
11432WAT      O34537   8.397   4.031   7.527
11432WAT     H134538   8.462   3.988   7.589
11432WAT     H234539   8.339   4.096   7.579
11433WAT      O34540   2.749   2.746   2.972
11433WAT     H134541   2.770   2.838   3.007
11433WAT     H234542   2.759   2.745   2.872
11434WAT      O34543   4.846   0.559   9.058
11434WAT     H134544   4.770   0.500   9.031
11434WAT     H234545   4.835   0.585   9.154
11435WAT      O34546   4.231   0.943   0.719
11435WAT     H134547   4.258   0.899   0.805
11435WAT     H234548   4.297   1.015   0.696
11436WAT      O34549   2.975   5.707   1.275
11436WAT     H134550   2.969   5.789   1.331
11436WAT     H234551   3.070   5.689   1.251
11437WAT      O34552   6.433   8.919   9.787
11437WAT     H134553   6.522   8.946   9.823
11437WAT     H234554   6.381   8.871   9.858
11438WAT      O34555   3.865   9.781   0.173
11438WAT     H134556   3.873   9.874   0.208
11438WAT     H234557   3.774   9.767   0.135
11439WAT      O34558   2.202   9.425   8.008
11439WAT     H134559   2.118   9.451   7.961
11439WAT     H234560   2.272   9.494   7.992
11440WAT      O34561   7.981   6.676   7.861
11440WAT     H134562   7.960   6.660   7.957
11440WAT     H234563   7.897   6.673   7.807
11441WAT      O34564   7.167   9.482   9.574
11441WAT     H134565   7.169   9.482   9.474
11441WAT     H234566   7.188   9.390   9.607
11442WAT      O34567   9.547   4.786   5.132
11442WAT     H134568   9.555   4.701   5.183
11442WAT     H234569   9.525   4.766   5.037
11443WAT      O34570   5.645   7.131   5.763
11443WAT     H134571   5.601   7.065   5.823
11443WAT     H234572   5.632   7.102   5.668
11444WAT      O34573   3.959   3.787   0.966
11444WAT     H134574   4.029   3.752   1.030
11444WAT     H234575   3.942   3.718   0.896
11445WAT      O34576   8.541   6.444   2.250
11445WAT     H134577   8.596   6.526   2.234
11445WAT     H234578   8.445   6.464   2.232
11446WAT      O34579   6.432   2.985   0.898
11446WAT     H134580   6.443   2.930   0.815
11446WAT     H234581   6.516   2.980   0.952
11447WAT      O34582   1.807   1.196   7.388
11447WAT     H134583   1.769   1.219   7.478
11447WAT     H234584   1.892   1.247   7.373
11448WAT      O34585   7.059   7.561   1.132
11448WAT     H134586   6.996   7.486   1.148
11448WAT     H234587   7.093   7.595   1.219
11449WAT      O34588   4.659   4.091   0.680
11449WAT     H134589   4.686   4.184   0.703
11449WAT     H234590   4.631   4.088   0.584
11450WAT      O34591   9.764   1.580   1.346
11450WAT     H134592   9.698   1.557   1.274
11450WAT     H234593   9.803   1.496   1.383
11451WAT      O34594   6.275   9.182   9.014
11451WAT     H134595   6.288   9.086   8.989
11451WAT     H234596   6.308   9.240   8.941
11452WAT      O34597   8.235   6.516   9.719
11452WAT     H134598   8.253   6.608   9.685
11452WAT     H234599   8.138   6.494   9.707
11453WAT      O34600   4.952   4.080   1.804
11453WAT     H134601   4.889   4.113   1.875
11453WAT     H234602   4.914   4.102   1.714
11454WAT      O34603   8.015   6.169   3.256
11454WAT     H134604   8.001   6.143   3.160
11454WAT     H234605   7.952   6.117   3.313
11455WAT      O34606   3.956   1.081   7.422
11455WAT     H134607   4.030   1.111   7.482
11455WAT     H234608   3.880   1.147   7.427
11456WAT      O34609   8.353   3.300   9.495
11456WAT     H134610   8.299   3.258   9.423
11456WAT     H234611   8.436   3.339   9.455
11457WAT      O34612   4.995   8.937   4.506
11457WAT     H134613   5.055   8.897   4.436
11457WAT     H234614   4.912   8.972   4.463
11458WAT      O34615   5.142   6.371   9.036
11458WAT     H134616   5.099   6.326   8.958
11458WAT     H234617   5.112   6.466   9.040
11459WAT      O34618   3.929   9.366   4.638
11459WAT     H134619   3.863   9.310   4.588
11459WAT     H234620   3.903   9.370   4.734
11460WAT      O34621   5.133   9.578   4.876
11460WAT     H134622   5.129   9.481   4.900
11460WAT     H234623   5.217   9.597   4.826
11461WAT      O34624   6.324   4.383   5.083
11461WAT     H134625   6.374   4.347   5.162
11461WAT     H234626   6.230   4.349   5.084
11462WAT      O34627   3.364   4.600   4.055
11462WAT     H134628   3.380   4.503   4.070
11462WAT     H234629   3.314   4.613   3.969
11463WAT      O34630   5.999   5.115   2.331
11463WAT     H134631   6.038   5.154   2.414
11463WAT     H234632   6.027   5.168   2.251
11464WAT      O34633   0.080   5.681   9.861
11464WAT     H134634  -0.009   5.710   9.897
11464WAT     H234635   0.082   5.581   9.855
11465WAT      O34636   0.262   2.993   5.965
11465WAT     H134637   0.193   3.055   6.002
11465WAT     H234638   0.327   3.044   5.910
11466WAT      O34639   1.228   0.264   9.882
11466WAT     H134640   1.184   0.336   9.830
11466WAT     H234641   1.324   0.257   9.855
11467WAT      O34642   1.487   7.471   3.168
11467WAT     H134643   1.534   7.560   3.165
11467WAT     H234644   1.527   7.415   3.240
11468WAT      O34645   4.316   1.164   8.824
11468WAT     H134646   4.328   1.104   8.745
11468WAT     H234647   4.394   1.226   8.831
11469WAT      O34648   8.784   8.625   8.985
11469WAT     H134649   8.834   8.711   8.987
11469WAT     H234650   8.771   8.592   9.079
11470WAT      O34651   0.982   5.668   4.486
11470WAT     H134652   1.030   5.643   4.571
11470WAT     H234653   0.898   5.716   4.509
11471WAT      O34654   9.419   8.663   3.675
11471WAT     H134655   9.404   8.599   3.600
11471WAT     H234656   9.515   8.693   3.675
11472WAT      O34657   9.494   1.461   3.406
11472WAT     H134658   9.506   1.450   3.504
11472WAT     H234659   9.404   1.425   3.379
11473WAT      O34660   5.692   6.244   4.116
11473WAT     H134661   5.757   6.296   4.172
11473WAT     H234662   5.689   6.150   4.148
11474WAT      O34663   9.310   8.238   9.048
11474WAT     H134664   9.392   8.196   9.009
11474WAT     H234665   9.327   8.334   9.067
11475WAT      O34666   5.674   3.703   3.549
11475WAT     H134667   5.698   3.733   3.641
11475WAT     H234668   5.711   3.612   3.532
11476WAT      O34669   6.021   6.348   5.493
11476WAT     H134670   6.065   6.289   5.561
11476WAT     H234671   5.947   6.399   5.535
11477WAT      O34672   8.220   0.439   0.989
11477WAT     H134673   8.211   0.537   1.007
11477WAT     H234674   8.316   0.413   0.991
11478WAT      O34675   7.157   7.030   6.162
11478WAT     H134676   7.144   7.035   6.261
11478WAT     H234677   7.238   6.976   6.141
11479WAT      O34678   4.714   6.082   5.442
11479WAT     H134679   4.674   6.033   5.364
11479WAT     H234680   4.641   6.106   5.506
11480WAT      O34681   2.817   1.782   9.333
11480WAT     H134682   2.792   1.866   9.381
11480WAT     H234683   2.899   1.797   9.278
11481WAT      O34684   7.037   3.162   2.437
11481WAT     H134685   6.967   3.174   2.368
11481WAT     H234686   7.093   3.082   2.416
11482WAT      O34687   8.220   6.350   6.828
11482WAT     H134688   8.306   6.300   6.832
11482WAT     H234689   8.213   6.412   6.907
11483WAT      O34690   7.172   0.549   5.468
11483WAT     H134691   7.081   0.566   5.430
11483WAT     H234692   7.240   0.554   5.395
11484WAT      O34693   9.170   2.818   3.593
11484WAT     H134694   9.187   2.892   3.658
11484WAT     H234695   9.246   2.813   3.528
11485WAT      O34696   3.159   2.426   6.340
11485WAT     H134697   3.159   2.432   6.440
11485WAT     H234698   3.097   2.353   6.311
11486WAT      O34699   0.344   3.211   1.781
11486WAT     H134700   0.312   3.297   1.822
11486WAT     H234701   0.429   3.183   1.825
11487WAT      O34702   2.642   7.745   8.735
11487WAT     H134703   2.719   7.709   8.684
11487WAT     H234704   2.670   7.825   8.787
11488WAT      O34705   1.109   8.261   8.380
11488WAT     H134706   1.060   8.345   8.358
11488WAT     H234707   1.059   8.183   8.343
11489WAT      O34708   1.524   8.911   4.678
11489WAT     H134709   1.496   8.893   4.772
11489WAT     H234710   1.449   8.888   4.616
11490WAT      O34711   0.435   0.288   4.833
11490WAT     H134712   0.406   0.288   4.737
11490WAT     H234713   0.414   0.199   4.874
11491WAT      O34714   7.660   7.584   1.411
11491WAT     H134715   7.584   7.560   1.350
11491WAT     H234716   7.742   7.535   1.382
11492WAT      O34717   3.381   6.811   6.452
11492WAT     H134718   3.388   6.856   6.541
11492WAT     H234719   3.352   6.716   6.464
11493WAT      O34720   2.860   4.403   5.374
11493WAT     H134721   2.856   4.503   5.375
11493WAT     H234722   2.833   4.368   5.464
11494WAT      O34723   6.441   8.156   5.354
11494WAT     H134724   6.538   8.178   5.345
11494WAT     H234725   6.399   8.148   5.264
11495WAT      O34726   7.499   0.336   8.967
11495WAT     H134727   7.522   0.433   8.957
11495WAT     H234728   7.408   0.328   9.008
11496WAT      O34729   7.487   1.706   8.407
11496WAT     H134730   7.452   1.793   8.443
11496WAT     H234731   7.551   1.724   8.333
11497WAT      O34732   4.197   3.222   3.795
11497WAT     H134733   4.259   3.145   3.812
11497WAT     H234734   4.145   3.204   3.711
11498WAT      O34735   7.610   6.141   5.068
11498WAT     H134736   7.661   6.197   5.004
11498WAT     H234737   7.645   6.047   5.065
11499WAT      O34738   1.129   5.700   1.402
11499WAT     H134739   1.168   5.791   1.389
11499WAT     H234740   1.059   5.705   1.474
11500WAT      O34741   3.840   5.540   4.562
11500WAT     H134742   3.914   5.588   4.516
11500WAT     H234743   3.802   5.598   4.634
11501WAT      O34744   7.695   3.971   7.223
11501WAT     H134745   7.657   3.882   7.248
11501WAT     H234746   7.715   4.023   7.306
11502WAT      O34747   3.644   0.142   2.769
11502WAT     H134748   3.587   0.221   2.751
11502WAT     H234749   3.588   0.068   2.807
11503WAT      O34750   7.487   4.494   1.794
11503WAT     H134751   7.497   4.580   1.744
11503WAT     H234752   7.538   4.499   1.880
11504WAT      O34753   3.123   6.102   4.360
11504WAT     H134754   3.100   6.057   4.446
11504WAT     H234755   3.213   6.070   4.329
11505WAT      O34756   6.730   9.754   6.320
11505WAT     H134757   6.720   9.655   6.311
11505WAT     H234758   6.795   9.773   6.394
11506WAT      O34759   7.716   6.492   4.663
11506WAT     H134760   7.797   6.436   4.647
11506WAT     H234761   7.743   6.588   4.670
11507WAT      O34762   5.784   8.637   7.694
11507WAT     H134763   5.879   8.616   7.671
11507WAT     H234764   5.726   8.618   7.615
11508WAT      O34765   0.914   6.845   4.813
11508WAT     H134766   0.911   6.800   4.902
11508WAT     H234767   0.841   6.914   4.808
11509WAT      O34768   2.166   8.627   6.092
11509WAT     H134769   2.115   8.599   6.173
11509WAT     H234770   2.227   8.702   6.116
11510WAT      O34771   3.667   8.012   0.237
11510WAT     H134772   3.607   8.089   0.256
11510WAT     H234773   3.693   7.968   0.323
11511WAT      O34774   1.406   0.126   5.579
11511WAT     H134775   1.408   0.192   5.654
11511WAT     H234776   1.428   0.035   5.615
11512WAT      O34777   7.422   6.085   4.543
11512WAT     H134778   7.323   6.091   4.533
11512WAT     H234779   7.463   6.054   4.457
11513WAT      O34780   4.215   4.619   7.208
11513WAT     H134781   4.157   4.549   7.167
11513WAT     H234782   4.258   4.583   7.291
11514WAT      O34783   5.609   9.083   7.512
11514WAT     H134784   5.626   9.052   7.605
11514WAT     H234785   5.530   9.144   7.511
11515WAT      O34786   7.670   2.017   4.843
11515WAT     H134787   7.666   1.928   4.889
11515WAT     H234788   7.764   2.035   4.813
11516WAT      O34789   6.416   8.377   2.302
11516WAT     H134790   6.475   8.316   2.354
11516WAT     H234791   6.382   8.330   2.220
11517WAT      O34792   4.141   0.721   5.180
11517WAT     H134793   4.238   0.746   5.172
11517WAT     H234794   4.113   0.671   5.098
11518WAT      O34795   1.652   5.422   7.403
11518WAT     H134796   1.703   5.336   7.414
11518WAT     H234797   1.598   5.419   7.319
11519WAT      O34798   5.000   5.731   7.622
11519WAT     H134799   5.059   5.672   7.678
11519WAT     H234800   4.908   5.732   7.660
11520WAT      O34801   4.706   5.744   0.660
11520WAT     H134802   4.629   5.808   0.663
11520WAT     H234803   4.724   5.710   0.753
11521WAT      O34804   5.643   7.511   9.418
11521WAT     H134805   5.663   7.434   9.478
11521WAT     H234806   5.551   7.545   9.437
11522WAT      O34807   9.715   4.787   7.892
11522WAT     H134808   9.682   4.788   7.798
11522WAT     H234809   9.815   4.793   7.893
11523WAT      O34810   4.115   9.336   1.976
11523WAT     H134811   4.151   9.412   2.030
11523WAT     H234812   4.017   9.349   1.961
11524WAT      O34813   9.742   3.599   5.930
11524WAT     H134814   9.673   3.649   5.877
11524WAT     H234815   9.797   3.544   5.868
11525WAT      O34816   4.789   6.386   6.312
11525WAT     H134817   4.737   6.303   6.290
11525WAT     H234818   4.815   6.385   6.408
11526WAT      O34819   0.941   5.660   1.596
11526WAT     H134820   0.883   5.624   1.669
11526WAT     H234821   0.950   5.759   1.607
11527WAT      O34822   4.841   9.268   6.986
11527WAT     H134823   4.847   9.342   7.053
11527WAT     H234824   4.801   9.187   7.029
11528WAT      O34825   5.028   5.652   1.164
11528WAT     H134826   4.993   5.640   1.257
11528WAT     H234827   5.121   5.689   1.167
11529WAT      O34828   5.383   1.692   1.823
11529WAT     H134829   5.396   1.751   1.743
11529WAT     H234830   5.427   1.735   1.903
11530WAT      O34831   3.655   6.977   4.681
11530WAT     H134832   3.674   6.940   4.772
11530WAT     H234833   3.631   6.902   4.619
11531WAT      O34834   2.313   1.757   0.153
11531WAT     H134835   2.318   1.681   0.217
11531WAT     H234836   2.246   1.824   0.185
11532WAT      O34837   6.687   1.206   3.925
11532WAT     H134838   6.710   1.110   3.910
11532WAT     H234839   6.606   1.213   3.983
11533WAT      O34840   3.809   7.832   5.024
11533WAT     H134841   3.865   7.791   5.096
11533WAT     H234842   3.858   7.909   4.983
11534WAT      O34843   2.938   6.066   4.769
11534WAT     H134844   2.986   6.147   4.736
11534WAT     H234845   2.857   6.094   4.820
11535WAT      O34846   4.126   4.604   0.314
11535WAT     H134847   4.087   4.643   0.231
11535WAT     H234848   4.139   4.675   0.382
11536WAT      O34849   0.097   1.512   2.670
11536WAT     H134850   0.046   1.511   2.584
11536WAT     H234851   0.035   1.493   2.746
11537WAT      O34852   3.334   6.131   1.075
11537WAT     H134853   3.240   6.112   1.048
11537WAT     H234854   3.392   6.053   1.053
11538WAT      O34855   1.774   3.027   3.623
11538WAT     H134856   1.699   3.078   3.665
11538WAT     H234857   1.856   3.084   3.621
11539WAT      O34858   0.302   2.336   9.387
11539WAT     H134859   0.383   2.335   9.328
11539WAT     H234860   0.277   2.430   9.406
11540WAT      O34861   4.374   6.671   6.115
11540WAT     H134862   4.359   6.597   6.049
11540WAT     H234863   4.289   6.688   6.165
11541WAT      O34864   4.917   8.456   8.988
11541WAT     H134865   4.970   8.467   8.904
11541WAT     H234866   4.945   8.526   9.054
11542WAT      O34867   3.938   6.899   2.684
11542WAT     H134868   4.033   6.917   2.661
11542WAT     H234869   3.934   6.827   2.754
11543WAT      O34870   7.596   5.816   1.356
11543WAT     H134871   7.539   5.769   1.288
11543WAT     H234872   7.576   5.914   1.354
11544WAT      O34873   4.897   9.081   5.084
11544WAT     H134874   4.803   9.058   5.060
11544WAT     H234875   4.900   9.114   5.178
11545WAT      O34876   2.172   3.571   7.922
11545WAT     H134877   2.216   3.565   7.832
11545WAT     H234878   2.222   3.516   7.988
11546WAT      O34879   7.435   4.694   4.769
11546WAT     H134880   7.459   4.712   4.674
11546WAT     H234881   7.336   4.682   4.778
11547WAT      O34882   6.578   9.078   9.161
11547WAT     H134883   6.554   9.174   9.171
11547WAT     H234884   6.558   9.029   9.246
11548WAT      O34885   4.674   1.162   1.705
11548WAT     H134886   4.623   1.196   1.784
11548WAT     H234887   4.629   1.081   1.668
11549WAT      O34888   2.320   6.501   2.788
11549WAT     H134889   2.242   6.563   2.779
11549WAT     H234890   2.307   6.422   2.728
11550WAT      O34891   6.956   7.790   6.995
11550WAT     H134892   7.026   7.855   7.027
11550WAT     H234893   6.988   7.745   6.912
11551WAT      O34894   8.768   7.341   7.846
11551WAT     H134895   8.834   7.295   7.787
11551WAT     H234896   8.728   7.274   7.909
11552WAT      O34897   3.463   8.221   1.375
11552WAT     H134898   3.393   8.215   1.304
11552WAT     H234899   3.532   8.151   1.359
11553WAT      O34900   3.953   3.454   1.060
11553WAT     H134901   3.941   3.473   1.158
11553WAT     H234902   3.909   3.368   1.037
11554WAT      O34903   1.629   8.398   0.924
11554WAT     H134904   1.665   8.364   0.837
11554WAT     H234905   1.644   8.497   0.929
11555WAT      O34906   3.792   9.305   1.314
11555WAT     H134907   3.814   9.401   1.335
11555WAT     H234908   3.875   9.257   1.287
11556WAT      O34909   7.924   0.403   1.809
11556WAT     H134910   8.021   0.400   1.784
11556WAT     H234911   7.902   0.493   1.845
11557WAT      O34912   2.883   0.784   5.157
11557WAT     H134913   2.915   0.858   5.216
11557WAT     H234914   2.784   0.792   5.146
11558WAT      O34915   0.643   0.718   3.714
11558WAT     H134916   0.556   0.735   3.759
11558WAT     H234917   0.652   0.779   3.635
11559WAT      O34918   6.689   9.239   9.842
11559WAT     H134919   6.632   9.270   9.766
11559WAT     H234920   6.708   9.317   9.902
11560WAT      O34921   6.132   7.233   0.900
11560WAT     H134922   6.178   7.225   0.812
11560WAT     H234923   6.173   7.169   0.965
11561WAT      O34924   0.288   4.756   4.469
11561WAT     H134925   0.212   4.748   4.405
11561WAT     H234926   0.288   4.676   4.530
11562WAT      O34927   7.394   6.899   2.969
11562WAT     H134928   7.302   6.899   3.008
11562WAT     H234929   7.388   6.924   2.872
11563WAT      O34930   6.427   0.549   6.809
11563WAT     H134931   6.458   0.482   6.741
11563WAT     H234932   6.414   0.503   6.897
11564WAT      O34933   2.951   5.971   8.932
11564WAT     H134934   2.953   6.069   8.914
11564WAT     H234935   2.935   5.922   8.847
11565WAT      O34936   0.933   2.932   0.549
11565WAT     H134937   0.961   2.924   0.453
11565WAT     H234938   0.998   2.990   0.598
11566WAT      O34939   0.840   7.619   1.291
11566WAT     H134940   0.844   7.519   1.285
11566WAT     H234941   0.920   7.658   1.245
11567WAT      O34942   5.780   8.256   8.397
11567WAT     H134943   5.756   8.162   8.421
11567WAT     H234944   5.736   8.281   8.311
11568WAT      O34945   0.652   1.573   1.933
11568WAT     H134946   0.736   1.521   1.945
11568WAT     H234947   0.636   1.630   2.014
11569WAT      O34948   2.383   2.134   6.645
11569WAT     H134949   2.461   2.074   6.665
11569WAT     H234950   2.408   2.201   6.576
11570WAT      O34951   4.980   3.808   1.867
11570WAT     H134952   4.943   3.897   1.842
11570WAT     H234953   5.033   3.816   1.952
11571WAT      O34954   7.484   6.025   7.422
11571WAT     H134955   7.544   5.992   7.495
11571WAT     H234956   7.534   6.025   7.335
11572WAT      O34957   9.517   6.775   2.154
11572WAT     H134958   9.531   6.751   2.250
11572WAT     H234959   9.605   6.776   2.107
11573WAT      O34960   6.539   1.786   6.175
11573WAT     H134961   6.572   1.864   6.122
11573WAT     H234962   6.617   1.742   6.220
11574WAT      O34963   8.297   7.459   4.902
11574WAT     H134964   8.359   7.450   4.980
11574WAT     H234965   8.217   7.401   4.916
11575WAT      O34966   8.961   0.877   3.980
11575WAT     H134967   8.997   0.910   3.892
11575WAT     H234968   9.011   0.795   4.007
11576WAT      O34969   1.904   2.527   3.164
11576WAT     H134970   1.977   2.497   3.103
11576WAT     H234971   1.864   2.448   3.210
11577WAT      O34972   2.095   4.826   5.065
11577WAT     H134973   2.067   4.791   4.976
11577WAT     H234974   2.028   4.892   5.098
11578WAT      O34975   7.132   3.402   2.715
11578WAT     H134976   7.214   3.403   2.659
11578WAT     H234977   7.052   3.423   2.659
11579WAT      O34978   5.596   3.450   2.906
11579WAT     H134979   5.673   3.488   2.856
11579WAT     H234980   5.533   3.407   2.841
11580WAT      O34981   3.898   7.240   7.481
11580WAT     H134982   3.860   7.264   7.570
11580WAT     H234983   3.917   7.142   7.478
11581WAT      O34984   0.297   0.372   5.846
11581WAT     H134985   0.313   0.392   5.750
11581WAT     H234986   0.370   0.312   5.880
11582WAT      O34987   0.311   4.082   5.431
11582WAT     H134988   0.350   4.159   5.481
11582WAT     H234989   0.384   4.027   5.392
11583WAT      O34990   7.456   6.181   8.272
11583WAT     H134991   7.361   6.164   8.298
11583WAT     H234992   7.471   6.147   8.179
11584WAT      O34993   6.135   1.684   9.284
11584WAT     H134994   6.143   1.597   9.333
11584WAT     H234995   6.191   1.680   9.201
11585WAT      O34996   7.182   0.428   8.146
11585WAT     H134997   7.227   0.345   8.179
11585WAT     H234998   7.220   0.454   8.058
11586WAT      O34999   9.745   2.551   1.835
11586WAT     H135000   9.725   2.638   1.789
11586WAT     H235001   9.679   2.536   1.908
11587WAT      O35002   6.426   3.714   3.187
11587WAT     H135003   6.387   3.789   3.239
11587WAT     H235004   6.472   3.650   3.249
11588WAT      O35005   9.836   3.449   1.298
11588WAT     H135006   9.866   3.358   1.327
11588WAT     H235007   9.894   3.481   1.223
11589WAT      O35008   6.621   7.721   5.605
11589WAT     H135009   6.634   7.773   5.690
11589WAT     H235010   6.571   7.777   5.539
11590WAT      O35011   8.946   3.099   3.323
11590WAT     H135012   8.982   3.027   3.264
11590WAT     H235013   8.878   3.060   3.385
11591WAT      O35014   9.129   7.256   6.806
11591WAT     H135015   9.078   7.334   6.842
11591WAT     H235016   9.212   7.242   6.861
11592WAT      O35017   1.578   4.299   4.739
11592WAT     H135018   1.483   4.331   4.735
11592WAT     H235019   1.632   4.359   4.797
11593WAT      O35020   4.144   9.189   8.499
11593WAT     H135021   4.106   9.102   8.468
11593WAT     H235022   4.119   9.261   8.435
11594WAT      O35023   8.037   5.159   5.908
11594WAT     H135024   8.049   5.217   5.827
11594WAT     H235025   8.050   5.215   5.991
11595WAT      O35026   6.127   2.004   7.439
11595WAT     H135027   6.169   1.930   7.386
11595WAT     H235028   6.197   2.068   7.469
11596WAT      O35029   6.752   9.232   0.887
11596WAT     H135030   6.701   9.178   0.954
11596WAT     H235031   6.743   9.191   0.797
11597WAT      O35032   0.692   0.564   4.505
11597WAT     H135033   0.712   0.483   4.561
11597WAT     H235034   0.642   0.631   4.559
11598WAT      O35035   8.177   1.071   9.640
11598WAT     H135036   8.198   1.125   9.721
11598WAT     H235037   8.180   0.974   9.662
11599WAT      O35038   1.034   5.331   9.107
11599WAT     H135039   1.031   5.431   9.105
11599WAT     H235040   0.941   5.295   9.106
11600WAT      O35041   8.979   8.409   3.092
11600WAT     H135042   9.022   8.329   3.050
11600WAT     H235043   8.938   8.466   3.021
11601WAT      O35044   9.408   4.555   2.642
11601WAT     H135045   9.384   4.647   2.671
11601WAT     H235046   9.499   4.555   2.601
11602WAT      O35047   0.558   7.812   3.293
11602WAT     H135048   0.476   7.869   3.291
11602WAT     H235049   0.532   7.716   3.301
11603WAT      O35050   0.411   0.270   7.648
11603WAT     H135051   0.338   0.328   7.685
11603WAT     H235052   0.371   0.198   7.592
11604WAT      O35053   5.053   0.600   7.023
11604WAT     H135054   5.118   0.558   7.087
11604WAT     H235055   5.102   0.662   6.961
11605WAT      O35056   8.026   0.380   0.659
11605WAT     H135057   8.069   0.432   0.586
11605WAT     H235058   8.026   0.433   0.744
11606WAT      O35059   4.789   7.012   6.967
11606WAT     H135060   4.720   6.975   7.030
11606WAT     H235061   4.822   6.939   6.907
11607WAT      O35062   5.514   1.414   8.732
11607WAT     H135063   5.589   1.371   8.681
11607WAT     H235064   5.480   1.493   8.680
11608WAT      O35065   7.323   9.592   2.853
11608WAT     H135066   7.262   9.565   2.779
11608WAT     H235067   7.394   9.523   2.865
11609WAT      O35068   7.588   4.703   4.522
11609WAT     H135069   7.613   4.799   4.539
11609WAT     H235070   7.665   4.644   4.544
11610WAT      O35071   5.469   8.202   7.836
11610WAT     H135072   5.556   8.247   7.856
11610WAT     H235073   5.425   8.174   7.921
11611WAT      O35074   2.382   1.263   9.643
11611WAT     H135075   2.336   1.188   9.692
11611WAT     H235076   2.379   1.346   9.698
11612WAT      O35077   2.541   4.860   2.456
11612WAT     H135078   2.526   4.921   2.378
11612WAT     H235079   2.606   4.902   2.519
11613WAT      O35080   0.735   2.724   2.318
11613WAT     H135081   0.750   2.684   2.228
11613WAT     H235082   0.672   2.802   2.310
11614WAT      O35083   7.286   8.742   3.260
11614WAT     H135084   7.212   8.776   3.201
11614WAT     H235085   7.257   8.657   3.303
11615WAT      O35086   4.503   8.473   9.556
11615WAT     H135087   4.564   8.552   9.563
11615WAT     H235088   4.522   8.424   9.471
11616WAT      O35089   5.621   0.467   1.063
11616WAT     H135090   5.677   0.460   1.145
11616WAT     H235091   5.595   0.562   1.048
11617WAT      O35092   8.565   2.325   0.214
11617WAT     H135093   8.524   2.411   0.185
11617WAT     H235094   8.602   2.335   0.306
11618WAT      O35095   4.233   6.660   4.006
11618WAT     H135096   4.266   6.703   3.921
11618WAT     H235097   4.306   6.657   4.073
11619WAT      O35098   7.002   4.190   2.591
11619WAT     H135099   7.006   4.130   2.670
11619WAT     H235100   7.088   4.184   2.540
11620WAT      O35101   9.071   9.490   9.327
11620WAT     H135102   9.156   9.536   9.300
11620WAT     H235103   9.082   9.451   9.419
11621WAT      O35104   3.960   4.819   6.607
11621WAT     H135105   3.909   4.832   6.523
11621WAT     H235106   3.961   4.905   6.659
11622WAT      O35107   8.245   1.872   5.405
11622WAT     H135108   8.337   1.838   5.387
11622WAT     H235109   8.177   1.810   5.366
11623WAT      O35110   6.180   0.931   9.075
11623WAT     H135111   6.245   0.941   9.000
11623WAT     H235112   6.181   1.014   9.131
11624WAT      O35113   1.268   9.647   2.112
11624WAT     H135114   1.291   9.735   2.068
11624WAT     H235115   1.341   9.581   2.094
11625WAT      O35116   8.732   3.184   7.219
11625WAT     H135117   8.731   3.126   7.137
11625WAT     H235118   8.638   3.209   7.243
11626WAT      O35119   6.897   4.940   8.809
11626WAT     H135120   6.950   4.968   8.729
11626WAT     H235121   6.804   4.916   8.780
11627WAT      O35122   0.961   6.295   7.892
11627WAT     H135123   0.880   6.236   7.895
11627WAT     H235124   0.953   6.358   7.816
11628WAT      O35125   7.978   6.011   1.985
11628WAT     H135126   8.056   6.073   1.993
11628WAT     H235127   8.010   5.921   1.953
11629WAT      O35128   7.035   7.062   7.206
11629WAT     H135129   7.126   7.021   7.197
11629WAT     H235130   6.965   6.993   7.189
11630WAT      O35131   3.098   3.270   4.460
11630WAT     H135132   3.057   3.180   4.479
11630WAT     H235133   3.198   3.263   4.469
11631WAT      O35134   7.541   8.977   7.310
11631WAT     H135135   7.634   8.948   7.329
11631WAT     H235136   7.476   8.919   7.359
11632WAT      O35137   6.702   4.159   2.238
11632WAT     H135138   6.718   4.195   2.146
11632WAT     H235139   6.761   4.206   2.303
11633WAT      O35140   5.068   2.922   0.117
11633WAT     H135141   5.130   2.904   0.193
11633WAT     H235142   5.101   2.875   0.035
11634WAT      O35143   2.734   6.143   9.657
11634WAT     H135144   2.769   6.105   9.571
11634WAT     H235145   2.662   6.083   9.692
11635WAT      O35146   9.806   7.244   0.062
11635WAT     H135147   9.866   7.320   0.040
11635WAT     H235148   9.794   7.237   0.161
11636WAT      O35149   2.140   6.471   9.440
11636WAT     H135150   2.054   6.444   9.484
11636WAT     H235151   2.213   6.412   9.474
11637WAT      O35152   9.721   4.772   8.825
11637WAT     H135153   9.647   4.767   8.758
11637WAT     H235154   9.778   4.690   8.818
11638WAT      O35155   3.178   6.721   9.568
11638WAT     H135156   3.172   6.702   9.666
11638WAT     H235157   3.149   6.640   9.516
11639WAT      O35158   5.985   6.637   3.086
11639WAT     H135159   6.076   6.669   3.110
11639WAT     H235160   5.935   6.613   3.169
11640WAT      O35161   0.510   5.895   3.343
11640WAT     H135162   0.518   5.844   3.257
11640WAT     H235163   0.502   5.993   3.323
11641WAT      O35164   2.708   5.938   0.425
11641WAT     H135165   2.797   5.975   0.454
11641WAT     H235166   2.636   5.977   0.482
11642WAT      O35167   7.871   3.767   8.272
11642WAT     H135168   7.854   3.831   8.197
11642WAT     H235169   7.817   3.793   8.351
11643WAT      O35170   8.611   2.674   0.561
11643WAT     H135171   8.659   2.612   0.624
11643WAT     H235172   8.677   2.712   0.496
11644WAT      O35173   7.712   7.776   9.486
11644WAT     H135174   7.766   7.714   9.542
11644WAT     H235175   7.632   7.807   9.539
11645WAT      O35176   7.222   1.514   4.830
11645WAT     H135177   7.168   1.592   4.864
11645WAT     H235178   7.215   1.511   4.731
11646WAT      O35179   0.457   9.051   1.512
11646WAT     H135180   0.407   8.970   1.482
11646WAT     H235181   0.394   9.129   1.513
11647WAT      O35182   4.453   5.353   1.697
11647WAT     H135183   4.538   5.381   1.743
11647WAT     H235184   4.402   5.292   1.757
11648WAT      O35185   3.250   6.517   5.995
11648WAT     H135186   3.230   6.612   5.969
11648WAT     H235187   3.175   6.458   5.964
11649WAT      O35188   1.037   4.732   6.653
11649WAT     H135189   0.992   4.769   6.735
11649WAT     H235190   0.981   4.752   6.573
11650WAT      O35191   6.434   1.635   4.393
11650WAT     H135192   6.355   1.659   4.450
11650WAT     H235193   6.427   1.682   4.305
11651WAT      O35194   9.700   1.593   9.525
11651WAT     H135195   9.649   1.520   9.480
11651WAT     H235196   9.638   1.669   9.546
11652WAT      O35197   9.111   5.790   2.940
11652WAT     H135198   9.031   5.734   2.917
11652WAT     H235199   9.194   5.736   2.926
11653WAT      O35200   3.019   3.464   7.889
11653WAT     H135201   3.003   3.397   7.962
11653WAT     H235202   2.978   3.552   7.915
11654WAT      O35203   9.831   2.403   1.031
11654WAT     H135204   9.807   2.326   1.090
11654WAT     H235205   9.881   2.369   0.951
11655WAT      O35206   1.739   2.277   6.027
11655WAT     H135207   1.826   2.302   5.986
11655WAT     H235208   1.667   2.281   5.958
11656WAT      O35209   1.551   1.625   7.380
11656WAT     H135210   1.601   1.596   7.299
11656WAT     H235211   1.471   1.678   7.351
11657WAT      O35212   7.520   9.370   1.752
11657WAT     H135213   7.581   9.441   1.787
11657WAT     H235214   7.555   9.280   1.779
11658WAT      O35215   6.085   1.861   3.899
11658WAT     H135216   6.059   1.933   3.835
11658WAT     H235217   6.003   1.830   3.948
11659WAT      O35218   0.462   9.283   7.592
11659WAT     H135219   0.552   9.258   7.558
11659WAT     H235220   0.450   9.382   7.586
11660WAT      O35221   3.411   2.730   7.209
11660WAT     H135222   3.462   2.815   7.222
11660WAT     H235223   3.339   2.724   7.278
11661WAT      O35224   4.486   7.156   3.055
11661WAT     H135225   4.497   7.057   3.050
11661WAT     H235226   4.447   7.181   3.143
11662WAT      O35227   9.383   8.477   3.909
11662WAT     H135228   9.401   8.553   3.848
11662WAT     H235229   9.424   8.496   3.999
11663WAT      O35230   3.839   7.779   6.016
11663WAT     H135231   3.937   7.769   6.030
11663WAT     H235232   3.812   7.873   6.038
11664WAT      O35233   1.905   7.867   6.566
11664WAT     H135234   1.859   7.884   6.479
11664WAT     H235235   1.955   7.780   6.562
11665WAT      O35236   2.742   6.924   4.220
11665WAT     H135237   2.683   6.918   4.301
11665WAT     H235238   2.801   7.004   4.228
11666WAT      O35239   2.917   8.738   1.285
11666WAT     H135240   2.933   8.829   1.246
11666WAT     H235241   3.000   8.683   1.278
11667WAT      O35242   7.344   3.337   6.352
11667WAT     H135243   7.284   3.263   6.322
11667WAT     H235244   7.340   3.346   6.451
11668WAT      O35245   8.880   6.860   5.088
11668WAT     H135246   8.926   6.849   5.176
11668WAT     H235247   8.840   6.773   5.059
11669WAT      O35248   5.313   4.897   2.422
11669WAT     H135249   5.406   4.907   2.457
11669WAT     H235250   5.266   4.985   2.426
11670WAT      O35251   7.571   8.325   1.064
11670WAT     H135252   7.645   8.366   1.116
11670WAT     H235253   7.572   8.360   0.970
11671WAT      O35254   7.957   2.358   8.284
11671WAT     H135255   7.887   2.361   8.355
11671WAT     H235256   7.931   2.420   8.210
11672WAT      O35257   3.113   1.034   9.149
11672WAT     H135258   3.113   0.948   9.099
11672WAT     H235259   3.020   1.067   9.161
11673WAT      O35260   8.014   4.096   6.808
11673WAT     H135261   7.970   4.063   6.892
11673WAT     H235262   7.945   4.107   6.736
11674WAT      O35263   5.715   0.808   1.621
11674WAT     H135264   5.794   0.798   1.561
11674WAT     H235265   5.689   0.718   1.656
11675WAT      O35266   3.509   9.229   6.528
11675WAT     H135267   3.543   9.227   6.622
11675WAT     H235268   3.411   9.245   6.528
11676WAT      O35269   2.568   3.410   4.906
11676WAT     H135270   2.574   3.312   4.883
11676WAT     H235271   2.584   3.464   4.823
11677WAT      O35272   6.821   6.113   4.275
11677WAT     H135273   6.753   6.052   4.235
11677WAT     H235274   6.779   6.168   4.347
11678WAT      O35275   6.137   3.353   7.348
11678WAT     H135276   6.206   3.368   7.418
11678WAT     H235277   6.058   3.411   7.366
11679WAT      O35278   0.454   2.759   8.477
11679WAT     H135279   0.462   2.665   8.444
11679WAT     H235280   0.515   2.818   8.424
11680WAT      O35281   3.648   7.413   7.621
11680WAT     H135282   3.747   7.424   7.611
11680WAT     H235283   3.603   7.453   7.541
11681WAT      O35284   0.313   4.620   8.662
11681WAT     H135285   0.306   4.541   8.722
11681WAT     H235286   0.240   4.617   8.593
11682WAT      O35287   8.885   5.386   2.727
11682WAT     H135288   8.855   5.359   2.818
11682WAT     H235289   8.814   5.443   2.684
11683WAT      O35290   5.977   0.216   5.126
11683WAT     H135291   6.070   0.222   5.090
11683WAT     H235292   5.913   0.201   5.050
11684WAT      O35293   8.631   1.639   8.883
11684WAT     H135294   8.618   1.575   8.807
11684WAT     H235295   8.542   1.658   8.926
11685WAT      O35296   4.233   0.998   5.357
11685WAT     H135297   4.275   0.968   5.443
11685WAT     H235298   4.134   0.985   5.362
11686WAT      O35299   8.269   8.025   1.989
11686WAT     H135300   8.245   8.052   1.896
11686WAT     H235301   8.313   8.101   2.036
11687WAT      O35302   1.240   4.482   8.427
11687WAT     H135303   1.264   4.404   8.485
11687WAT     H235304   1.251   4.456   8.331
11688WAT      O35305   7.869   3.159   1.531
11688WAT     H135306   7.865   3.179   1.629
11688WAT     H235307   7.901   3.065   1.517
11689WAT      O35308   2.092   4.599   6.447
11689WAT     H135309   2.121   4.524   6.388
11689WAT     H235310   2.154   4.606   6.525
11690WAT      O35311   5.978   6.562   3.557
11690WAT     H135312   5.910   6.506   3.604
11690WAT     H235313   6.065   6.513   3.552
11691WAT      O35314   3.337   6.641   5.463
11691WAT     H135315   3.337   6.587   5.547
11691WAT     H235316   3.245   6.645   5.425
11692WAT      O35317   6.026   5.322   9.393
11692WAT     H135318   6.053   5.368   9.478
11692WAT     H235319   6.047   5.382   9.315
11693WAT      O35320   4.098   8.005   7.466
11693WAT     H135321   4.152   8.051   7.537
11693WAT     H235322   4.000   8.018   7.486
11694WAT      O35323   5.897   3.272   8.358
11694WAT     H135324   5.912   3.297   8.262
11694WAT     H235325   5.800   3.259   8.375
11695WAT      O35326   2.889   0.468   6.208
11695WAT     H135327   2.936   0.555   6.227
11695WAT     H235328   2.939   0.419   6.137
11696WAT      O35329   6.632   7.496   1.345
11696WAT     H135330   6.593   7.588   1.350
11696WAT     H235331   6.559   7.429   1.331
11697WAT      O35332   0.513   6.728   6.843
11697WAT     H135333   0.571   6.791   6.792
11697WAT     H235334   0.428   6.774   6.869
11698WAT      O35335   6.126   5.605   1.536
11698WAT     H135336   6.095   5.530   1.477
11698WAT     H235337   6.124   5.691   1.486
11699WAT      O35338   2.031   2.383   8.018
11699WAT     H135339   2.101   2.407   7.951
11699WAT     H235340   2.073   2.343   8.099
11700WAT      O35341   8.409   3.046   2.957
11700WAT     H135342   8.404   3.146   2.962
11700WAT     H235343   8.317   3.009   2.942
11701WAT      O35344   9.646   3.116   2.715
11701WAT     H135345   9.606   3.194   2.668
11701WAT     H235346   9.625   3.032   2.664
11702WAT      O35347   5.236   5.982   8.377
11702WAT     H135348   5.203   5.910   8.438
11702WAT     H235349   5.336   5.977   8.371
11703WAT      O35350   0.678   2.364   8.744
11703WAT     H135351   0.750   2.419   8.701
11703WAT     H235352   0.719   2.299   8.808
11704WAT      O35353   6.075   2.667   2.420
11704WAT     H135354   6.145   2.736   2.399
11704WAT     H235355   6.109   2.605   2.491
11705WAT      O35356   4.666   2.733   6.241
11705WAT     H135357   4.728   2.654   6.241
11705WAT     H235358   4.687   2.792   6.164
11706WAT      O35359   4.687   6.168   6.175
11706WAT     H135360   4.749   6.117   6.115
11706WAT     H235361   4.612   6.108   6.204
11707WAT      O35362   8.728   2.028   1.488
11707WAT     H135363   8.755   2.069   1.401
11707WAT     H235364   8.697   1.934   1.473
11708WAT      O35365   5.603   7.108   0.062
11708WAT     H135366   5.574   7.014   0.083
11708WAT     H235367   5.677   7.134   0.123
11709WAT      O35368   2.975   9.160   2.090
11709WAT     H135369   2.893   9.175   2.034
11709WAT     H235370   2.962   9.078   2.147
11710WAT      O35371   4.837   5.689   8.937
11710WAT     H135372   4.851   5.642   9.024
11710WAT     H235373   4.819   5.786   8.954
11711WAT      O35374   1.583   2.322   7.970
11711WAT     H135375   1.659   2.313   7.905
11711WAT     H235376   1.558   2.419   7.978
11712WAT      O35377   3.938   3.445   4.498
11712WAT     H135378   4.016   3.382   4.501
11712WAT     H235379   3.854   3.394   4.485
11713WAT      O35380   3.882   4.362   6.851
11713WAT     H135381   3.960   4.383   6.910
11713WAT     H235382   3.873   4.433   6.781
11714WAT      O35383   8.567   3.722   8.041
11714WAT     H135384   8.607   3.675   8.120
11714WAT     H235385   8.555   3.819   8.062
11715WAT      O35386   1.933   4.372   5.255
11715WAT     H135387   2.017   4.394   5.304
11715WAT     H235388   1.905   4.450   5.199
11716WAT      O35389   1.904   7.908   6.929
11716WAT     H135390   1.914   7.878   7.024
11716WAT     H235391   1.957   7.992   6.914
11717WAT      O35392   5.997   3.779   1.341
11717WAT     H135393   6.091   3.800   1.367
11717WAT     H235394   5.943   3.864   1.340
11718WAT      O35395   9.642   6.388   7.840
11718WAT     H135396   9.657   6.445   7.922
11718WAT     H235397   9.721   6.330   7.824
11719WAT      O35398   3.028   7.125   5.393
11719WAT     H135399   3.079   7.089   5.314
11719WAT     H235400   3.060   7.217   5.414
11720WAT      O35401   1.611   6.732   4.824
11720WAT     H135402   1.651   6.823   4.811
11720WAT     H235403   1.532   6.721   4.764
11721WAT      O35404   9.775   2.369   7.382
11721WAT     H135405   9.793   2.402   7.289
11721WAT     H235406   9.759   2.448   7.442
11722WAT      O35407   1.788   5.258   7.107
11722WAT     H135408   1.802   5.261   7.206
11722WAT     H235409   1.847   5.326   7.063
11723WAT      O35410   1.615   4.180   5.784
11723WAT     H135411   1.609   4.203   5.881
11723WAT     H235412   1.629   4.082   5.774
11724WAT      O35413   1.516   3.633   7.439
11724WAT     H135414   1.482   3.678   7.356
11724WAT     H235415   1.578   3.694   7.488
11725WAT      O35416   8.004   5.957   7.021
11725WAT     H135417   8.033   6.034   6.965
11725WAT     H235418   7.968   5.990   7.108
11726WAT      O35419   4.771   4.372   1.568
11726WAT     H135420   4.783   4.468   1.544
11726WAT     H235421   4.702   4.364   1.640
11727WAT      O35422   1.984   2.540   9.807
11727WAT     H135423   2.020   2.447   9.801
11727WAT     H235424   1.911   2.544   9.876
11728WAT      O35425   2.516   8.952   4.473
11728WAT     H135426   2.606   8.932   4.511
11728WAT     H235427   2.460   9.001   4.540
11729WAT      O35428   3.779   8.330   1.300
11729WAT     H135429   3.807   8.337   1.396
11729WAT     H235430   3.715   8.255   1.289
11730WAT      O35431   3.880   1.122   0.321
11730WAT     H135432   3.915   1.153   0.233
11730WAT     H235433   3.948   1.064   0.366
11731WAT      O35434   9.712   7.116   9.336
11731WAT     H135435   9.786   7.077   9.281
11731WAT     H235436   9.704   7.066   9.422
11732WAT      O35437   3.597   5.559   1.780
11732WAT     H135438   3.660   5.486   1.756
11732WAT     H235439   3.533   5.527   1.851
11733WAT      O35440   0.061   4.371   3.364
11733WAT     H135441  -0.029   4.391   3.325
11733WAT     H235442   0.062   4.401   3.460
11734WAT      O35443   1.316   1.276   5.154
11734WAT     H135444   1.262   1.357   5.178
11734WAT     H235445   1.411   1.290   5.183
11735WAT      O35446   7.306   3.614   7.671
11735WAT     H135447   7.228   3.657   7.627
11735WAT     H235448   7.368   3.579   7.601
11736WAT      O35449   4.144   2.239   8.334
11736WAT     H135450   4.194   2.227   8.248
11736WAT     H235451   4.206   2.275   8.404
11737WAT      O35452   6.188   0.379   1.693
11737WAT     H135453   6.234   0.335   1.771
11737WAT     H235454   6.201   0.323   1.611
11738WAT      O35455   8.924   0.283   0.352
11738WAT     H135456   8.985   0.230   0.411
11738WAT     H235457   8.836   0.295   0.398
11739WAT      O35458   8.972   9.093   6.694
11739WAT     H135459   9.056   9.141   6.665
11739WAT     H235460   8.893   9.153   6.679
11740WAT      O35461   1.577   0.417   2.826
11740WAT     H135462   1.582   0.318   2.809
11740WAT     H235463   1.647   0.463   2.772
11741WAT      O35464   0.666   2.340   6.679
11741WAT     H135465   0.605   2.288   6.620
11741WAT     H235466   0.647   2.438   6.669
11742WAT      O35467   1.949   1.498   6.394
11742WAT     H135468   1.876   1.565   6.410
11742WAT     H235469   2.024   1.541   6.344
11743WAT      O35470   0.885   3.397   6.919
11743WAT     H135471   0.951   3.396   6.994
11743WAT     H235472   0.851   3.305   6.903
11744WAT      O35473   9.828   7.016   3.078
11744WAT     H135474   9.837   6.992   3.174
11744WAT     H235475   9.747   6.973   3.039
11745WAT      O35476   6.308   1.718   6.032
11745WAT     H135477   6.379   1.721   6.102
11745WAT     H235478   6.348   1.746   5.944
11746WAT      O35479   9.404   3.953   8.345
11746WAT     H135480   9.357   3.988   8.426
11746WAT     H235481   9.410   4.026   8.277
11747WAT      O35482   8.348   0.951   7.176
11747WAT     H135483   8.352   1.049   7.156
11747WAT     H235484   8.384   0.900   7.098
11748WAT      O35485   8.298   7.299   7.819
11748WAT     H135486   8.277   7.369   7.752
11748WAT     H235487   8.276   7.209   7.782
11749WAT      O35488   0.795   1.811   0.765
11749WAT     H135489   0.791   1.789   0.668
11749WAT     H235490   0.880   1.860   0.785
11750WAT      O35491   7.034   5.960   0.272
11750WAT     H135492   7.017   5.862   0.259
11750WAT     H235493   6.953   6.011   0.243
11751WAT      O35494   3.599   3.314   9.015
11751WAT     H135495   3.657   3.233   9.023
11751WAT     H235496   3.655   3.396   9.026
11752WAT      O35497   9.481   1.629   3.211
11752WAT     H135498   9.513   1.561   3.277
11752WAT     H235499   9.560   1.667   3.162
11753WAT      O35500   1.443   6.451   2.938
11753WAT     H135501   1.359   6.436   2.885
11753WAT     H235502   1.522   6.445   2.877
11754WAT      O35503   1.676   2.816   8.520
11754WAT     H135504   1.707   2.811   8.425
11754WAT     H235505   1.692   2.728   8.564
11755WAT      O35506   4.503   1.320   3.545
11755WAT     H135507   4.435   1.319   3.472
11755WAT     H235508   4.539   1.413   3.557
11756WAT      O35509   7.086   5.474   6.896
11756WAT     H135510   6.998   5.516   6.874
11756WAT     H235511   7.147   5.544   6.933
11757WAT      O35512   3.513   8.773   9.875
11757WAT     H135513   3.419   8.785   9.907
11757WAT     H235514   3.576   8.806   9.945
11758WAT      O35515   2.018   7.965   3.404
11758WAT     H135516   2.024   7.930   3.497
11758WAT     H235517   2.083   8.040   3.392
11759WAT      O35518   9.241   9.317   4.575
11759WAT     H135519   9.309   9.276   4.635
11759WAT     H235520   9.224   9.256   4.497
11760WAT      O35521   4.002   2.584   5.427
11760WAT     H135522   4.021   2.679   5.401
11760WAT     H235523   3.917   2.581   5.481
11761WAT      O35524   2.072   5.620   3.562
11761WAT     H135525   2.004   5.547   3.551
11761WAT     H235526   2.160   5.588   3.527
11762WAT      O35527   9.297   6.772   9.870
11762WAT     H135528   9.207   6.810   9.848
11762WAT     H235529   9.365   6.844   9.868
11763WAT      O35530   2.716   4.627   1.135
11763WAT     H135531   2.771   4.709   1.154
11763WAT     H235532   2.627   4.654   1.100
11764WAT      O35533   1.877   8.067   0.018
11764WAT     H135534   1.890   7.994  -0.050
11764WAT     H235535   1.803   8.127  -0.011
11765WAT      O35536   3.217   9.153   9.287
11765WAT     H135537   3.226   9.147   9.188
11765WAT     H235538   3.308   9.152   9.329
11766WAT      O35539   9.076   5.266   6.449
11766WAT     H135540   9.001   5.271   6.515
11766WAT     H235541   9.163   5.282   6.496
11767WAT      O35542   0.255   8.320   0.003
11767WAT     H135543   0.308   8.350  -0.076
11767WAT     H235544   0.301   8.351   0.087
11768WAT      O35545   7.337   1.707   7.061
11768WAT     H135546   7.277   1.771   7.014
11768WAT     H235547   7.425   1.702   7.014
11769WAT      O35548   7.818   0.289   6.084
11769WAT     H135549   7.735   0.337   6.056
11769WAT     H235550   7.829   0.207   6.029
11770WAT      O35551   5.424   7.889   9.171
11770WAT     H135552   5.405   7.893   9.269
11770WAT     H235553   5.343   7.854   9.124
11771WAT      O35554   5.383   8.475   3.384
11771WAT     H135555   5.472   8.441   3.413
11771WAT     H235556   5.371   8.569   3.415
11772WAT      O35557   1.711   9.111   1.083
11772WAT     H135558   1.637   9.067   1.134
11772WAT     H235559   1.707   9.210   1.098
11773WAT      O35560   4.239   3.647   9.410
11773WAT     H135561   4.164   3.643   9.475
11773WAT     H235562   4.214   3.597   9.327
11774WAT      O35563   7.264   9.727   8.871
11774WAT     H135564   7.354   9.768   8.886
11774WAT     H235565   7.262   9.635   8.910
11775WAT      O35566   3.999   4.699   0.047
11775WAT     H135567   3.998   4.765  -0.028
11775WAT     H235568   3.905   4.672   0.069
11776WAT      O35569   1.634   3.948   9.584
11776WAT     H135570   1.550   3.952   9.530
11776WAT     H235571   1.692   3.874   9.550
11777WAT      O35572   4.478   7.089   2.147
11777WAT     H135573   4.397   7.147   2.137
11777WAT     H235574   4.560   7.142   2.124
11778WAT      O35575   2.342   2.585   0.058
11778WAT     H135576   2.328   2.486   0.060
11778WAT     H235577   2.290   2.627   0.132
11779WAT      O35578   3.833   9.344   6.613
11779WAT     H135579   3.912   9.404   6.601
11779WAT     H235580   3.750   9.399   6.625
11780WAT      O35581   6.592   2.721   5.940
11780WAT     H135582   6.587   2.622   5.928
11780WAT     H235583   6.681   2.746   5.976
11781WAT      O35584   8.206   8.064   8.300
11781WAT     H135585   8.292   8.091   8.344
11781WAT     H235586   8.136   8.052   8.370
11782WAT      O35587   4.729   9.489   3.955
11782WAT     H135588   4.654   9.527   3.901
11782WAT     H235589   4.692   9.425   4.023
11783WAT      O35590   7.584   4.167   1.239
11783WAT     H135591   7.640   4.090   1.208
11783WAT     H235592   7.620   4.201   1.326
11784WAT      O35593   4.104   3.094   4.705
11784WAT     H135594   4.184   3.148   4.733
11784WAT     H235595   4.093   3.100   4.606
11785WAT      O35596   4.474   4.041   6.025
11785WAT     H135597   4.511   4.054   6.117
11785WAT     H235598   4.417   3.959   6.023
11786WAT      O35599   0.564   6.245   1.951
11786WAT     H135600   0.495   6.316   1.935
11786WAT     H235601   0.527   6.176   2.013
11787WAT      O35602   4.167   3.990   5.680
11787WAT     H135603   4.194   4.085   5.694
11787WAT     H235604   4.233   3.930   5.727
11788WAT      O35605   6.511   3.414   4.354
11788WAT     H135606   6.502   3.487   4.422
11788WAT     H235607   6.579   3.348   4.385
11789WAT      O35608   4.763   9.048   2.582
11789WAT     H135609   4.805   9.091   2.502
11789WAT     H235610   4.751   9.116   2.654
11790WAT      O35611   7.903   3.600   4.967
11790WAT     H135612   7.988   3.585   4.916
11790WAT     H235613   7.904   3.691   5.007
11791WAT      O35614   3.356   2.166   3.476
11791WAT     H135615   3.314   2.232   3.538
11791WAT     H235616   3.431   2.209   3.427
11792WAT      O35617   0.861   8.774   3.271
11792WAT     H135618   0.930   8.825   3.220
11792WAT     H235619   0.803   8.837   3.322
11793WAT      O35620   2.665   8.222   8.281
11793WAT     H135621   2.693   8.243   8.374
11793WAT     H235622   2.638   8.126   8.275
11794WAT      O35623   1.560   9.042   4.327
11794WAT     H135624   1.547   9.108   4.401
11794WAT     H235625   1.652   9.003   4.333
11795WAT      O35626   2.346   1.602   2.250
11795WAT     H135627   2.324   1.697   2.229
11795WAT     H235628   2.415   1.568   2.186
11796WAT      O35629   3.528   8.313   6.107
11796WAT     H135630   3.590   8.279   6.036
11796WAT     H235631   3.543   8.263   6.192
11797WAT      O35632   6.806   8.137   1.476
11797WAT     H135633   6.818   8.237   1.471
11797WAT     H235634   6.764   8.105   1.391
11798WAT      O35635   8.022   6.778   6.475
11798WAT     H135636   8.050   6.720   6.399
11798WAT     H235637   7.954   6.730   6.531
11799WAT      O35638   3.865   0.839   7.520
11799WAT     H135639   3.899   0.923   7.477
11799WAT     H235640   3.815   0.785   7.453
11800WAT      O35641   5.098   0.734   2.150
11800WAT     H135642   5.054   0.668   2.211
11800WAT     H235643   5.039   0.752   2.072
11801WAT      O35644   3.078   8.099   8.513
11801WAT     H135645   3.070   8.197   8.530
11801WAT     H235646   2.991   8.055   8.536
11802WAT      O35647   0.449   9.127   5.362
11802WAT     H135648   0.531   9.176   5.332
11802WAT     H235649   0.371   9.190   5.363
11803WAT      O35650   4.979   5.786   4.274
11803WAT     H135651   5.035   5.703   4.277
11803WAT     H235652   5.028   5.857   4.223
11804WAT      O35653   7.656   4.273   6.434
11804WAT     H135654   7.645   4.357   6.488
11804WAT     H235655   7.572   4.218   6.440
11805WAT      O35656   2.763   4.496   7.853
11805WAT     H135657   2.737   4.406   7.889
11805WAT     H235658   2.733   4.567   7.918
11806WAT      O35659   0.499   6.329   9.659
11806WAT     H135660   0.557   6.411   9.652
11806WAT     H235661   0.450   6.316   9.573
11807WAT      O35662   7.265   0.667   1.181
11807WAT     H135663   7.242   0.578   1.221
11807WAT     H235664   7.263   0.737   1.253
11808WAT      O35665   3.446   4.229   6.263
11808WAT     H135666   3.480   4.143   6.223
11808WAT     H235667   3.502   4.252   6.343
11809WAT      O35668   1.751   8.351   1.176
11809WAT     H135669   1.699   8.277   1.219
11809WAT     H235670   1.732   8.352   1.078
11810WAT      O35671   5.937   9.353   6.271
11810WAT     H135672   5.841   9.380   6.266
11810WAT     H235673   5.995   9.434   6.281
11811WAT      O35674   3.969   3.267   1.462
11811WAT     H135675   3.935   3.314   1.544
11811WAT     H235676   3.949   3.169   1.469
11812WAT      O35677   9.438   4.382   6.097
11812WAT     H135678   9.351   4.405   6.052
11812WAT     H235679   9.488   4.316   6.040
11813WAT      O35680   9.209   9.089   5.800
11813WAT     H135681   9.117   9.063   5.771
11813WAT     H235682   9.245   9.018   5.861
11814WAT      O35683   4.490   7.325   7.034
11814WAT     H135684   4.546   7.382   6.975
11814WAT     H235685   4.398   7.317   6.997
11815WAT      O35686   5.133   3.139   1.455
11815WAT     H135687   5.044   3.122   1.411
11815WAT     H235688   5.121   3.205   1.529
11816WAT      O35689   3.020   5.053   2.426
11816WAT     H135690   3.004   5.106   2.509
11816WAT     H235691   3.099   5.092   2.378
11817WAT      O35692   5.860   3.757   2.055
11817WAT     H135693   5.763   3.779   2.056
11817WAT     H235694   5.896   3.768   1.963
11818WAT      O35695   5.183   8.198   7.216
11818WAT     H135696   5.277   8.192   7.181
11818WAT     H235697   5.183   8.173   7.313
11819WAT      O35698   1.411   0.020   8.644
11819WAT     H135699   1.348  -0.045   8.689
11819WAT     H235700   1.359   0.077   8.580
11820WAT      O35701   0.039   3.330   5.204
11820WAT     H135702  -0.047   3.333   5.256
11820WAT     H235703   0.047   3.242   5.158
11821WAT      O35704   0.452   7.110   8.734
11821WAT     H135705   0.374   7.125   8.795
11821WAT     H235706   0.518   7.184   8.746
11822WAT      O35707   4.215   0.027   7.505
11822WAT     H135708   4.127  -0.012   7.533
11822WAT     H235709   4.246   0.092   7.575
11823WAT      O35710   7.996   5.531   0.585
11823WAT     H135711   7.956   5.537   0.676
11823WAT     H235712   7.927   5.500   0.519
11824WAT      O35713   2.430   8.030   7.809
11824WAT     H135714   2.402   7.979   7.890
11824WAT     H235715   2.461   8.122   7.835
11825WAT      O35716   8.364   9.117   7.714
11825WAT     H135717   8.426   9.039   7.707
11825WAT     H235718   8.285   9.092   7.769
11826WAT      O35719   3.167   3.834   1.334
11826WAT     H135720   3.098   3.771   1.367
11826WAT     H235721   3.123   3.911   1.289
11827WAT      O35722   5.534   8.381   7.512
11827WAT     H135723   5.437   8.400   7.514
11827WAT     H235724   5.582   8.452   7.460
11828WAT      O35725   4.381   9.312   5.444
11828WAT     H135726   4.446   9.336   5.516
11828WAT     H235727   4.307   9.380   5.443
11829WAT      O35728   0.438   0.303   2.620
11829WAT     H135729   0.500   0.380   2.635
11829WAT     H235730   0.488   0.226   2.581
11830WAT      O35731   2.386   3.823   6.602
11830WAT     H135732   2.310   3.806   6.540
11830WAT     H235733   2.472   3.818   6.551
11831WAT      O35734   5.069   0.296   8.532
11831WAT     H135735   5.168   0.283   8.537
11831WAT     H235736   5.039   0.352   8.609
11832WAT      O35737   2.919   6.044   7.873
11832WAT     H135738   2.984   6.100   7.925
11832WAT     H235739   2.930   6.063   7.775
11833WAT      O35740   9.777   7.186   7.150
11833WAT     H135741   9.867   7.149   7.175
11833WAT     H235742   9.718   7.111   7.119
11834WAT      O35743   8.139   1.566   5.861
11834WAT     H135744   8.124   1.475   5.900
11834WAT     H235745   8.056   1.622   5.875
11835WAT      O35746   2.808   9.300   0.473
11835WAT     H135747   2.865   9.327   0.551
11835WAT     H235748   2.753   9.378   0.444
11836WAT      O35749   1.338   5.725   6.099
11836WAT     H135750   1.269   5.653   6.097
11836WAT     H235751   1.357   5.751   6.194
11837WAT      O35752   8.713   3.832   6.882
11837WAT     H135753   8.812   3.827   6.897
11837WAT     H235754   8.665   3.810   6.967
11838WAT      O35755   5.151   9.387   0.737
11838WAT     H135756   5.213   9.309   0.740
11838WAT     H235757   5.076   9.373   0.802
11839WAT      O35758   2.495   7.815   5.437
11839WAT     H135759   2.454   7.880   5.372
11839WAT     H235760   2.481   7.722   5.402
11840WAT      O35761   2.782   2.883   7.909
11840WAT     H135762   2.846   2.883   7.986
11840WAT     H235763   2.770   2.977   7.876
11841WAT      O35764   3.211   3.646   7.611
11841WAT     H135765   3.139   3.624   7.545
11841WAT     H235766   3.235   3.564   7.663
11842WAT      O35767   6.825   9.511   0.578
11842WAT     H135768   6.791   9.604   0.585
11842WAT     H235769   6.748   9.448   0.568
11843WAT      O35770   4.167   1.311   1.003
11843WAT     H135771   4.245   1.254   0.977
11843WAT     H235772   4.196   1.378   1.071
11844WAT      O35773   9.301   5.560   8.074
11844WAT     H135774   9.231   5.508   8.026
11844WAT     H235775   9.259   5.634   8.126
11845WAT      O35776   4.285   8.049   2.358
11845WAT     H135777   4.314   7.955   2.376
11845WAT     H235778   4.343   8.089   2.287
11846WAT      O35779   9.501   9.574   3.893
11846WAT     H135780   9.595   9.538   3.891
11846WAT     H235781   9.500   9.660   3.945
11847WAT      O35782   4.365   7.420   9.639
11847WAT     H135783   4.406   7.353   9.701
11847WAT     H235784   4.266   7.404   9.633
11848WAT      O35785   1.894   8.435   8.547
11848WAT     H135786   1.882   8.461   8.450
11848WAT     H235787   1.989   8.450   8.573
11849WAT      O35788   0.666   8.528   0.296
11849WAT     H135789   0.694   8.624   0.293
11849WAT     H235790   0.736   8.471   0.252
11850WAT      O35791   7.435   5.968   9.187
11850WAT     H135792   7.381   5.901   9.238
11850WAT     H235793   7.493   5.921   9.120
11851WAT      O35794   0.723   4.095   5.357
11851WAT     H135795   0.723   4.179   5.302
11851WAT     H235796   0.769   4.022   5.306
11852WAT      O35797   5.713   6.458   1.861
11852WAT     H135798   5.727   6.436   1.958
11852WAT     H235799   5.625   6.504   1.849
11853WAT      O35800   8.839   4.508   6.407
11853WAT     H135801   8.824   4.496   6.505
11853WAT     H235802   8.763   4.557   6.366
11854WAT      O35803   3.649   1.469   2.929
11854WAT     H135804   3.570   1.517   2.892
11854WAT     H235805   3.699   1.531   2.990
11855WAT      O35806   3.631   1.468   6.621
11855WAT     H135807   3.553   1.412   6.648
11855WAT     H235808   3.610   1.565   6.635
11856WAT      O35809   0.070   9.609   6.090
11856WAT     H135810   0.116   9.572   6.170
11856WAT     H235811  -0.029   9.612   6.107
11857WAT      O35812   0.407   2.499   6.518
11857WAT     H135813   0.425   2.403   6.542
11857WAT     H235814   0.484   2.555   6.548
11858WAT      O35815   0.044   0.064   1.678
11858WAT     H135816   0.071   0.140   1.618
11858WAT     H235817   0.092   0.073   1.765
11859WAT      O35818   0.312   2.108   9.532
11859WAT     H135819   0.294   2.130   9.628
11859WAT     H235820   0.293   2.189   9.475
11860WAT      O35821   9.660   0.534   6.355
11860WAT     H135822   9.642   0.493   6.266
11860WAT     H235823   9.601   0.492   6.424
11861WAT      O35824   3.541   7.908   7.660
11861WAT     H135825   3.468   7.913   7.728
11861WAT     H235826   3.535   7.987   7.599
11862WAT      O35827   0.301   3.322   3.930
11862WAT     H135828   0.321   3.275   3.843
11862WAT     H235829   0.362   3.288   4.001
11863WAT      O35830   5.271   5.123   7.424
11863WAT     H135831   5.216   5.043   7.399
11863WAT     H235832   5.235   5.204   7.376
11864WAT      O35833   6.317   1.274   9.853
11864WAT     H135834   6.339   1.184   9.890
11864WAT     H235835   6.260   1.324   9.918
11865WAT      O35836   7.737   4.920   6.542
11865WAT     H135837   7.710   4.900   6.636
11865WAT     H235838   7.780   5.010   6.537
11866WAT      O35839   7.833   1.486   2.765
11866WAT     H135840   7.894   1.564   2.775
11866WAT     H235841   7.820   1.466   2.668
11867WAT      O35842   8.911   9.082   5.432
11867WAT     H135843   8.927   9.140   5.352
11867WAT     H235844   8.842   9.013   5.410
11868WAT      O35845   8.200   3.711   1.142
11868WAT     H135846   8.169   3.719   1.047
11868WAT     H235847   8.300   3.700   1.143
11869WAT      O35848   5.725   0.511   3.818
11869WAT     H135849   5.668   0.592   3.807
11869WAT     H235850   5.690   0.437   3.760
11870WAT      O35851   4.879   8.063   6.050
11870WAT     H135852   4.910   8.071   6.145
11870WAT     H235853   4.883   7.967   6.021
11871WAT      O35854   4.441   0.159   5.545
11871WAT     H135855   4.427   0.063   5.569
11871WAT     H235856   4.464   0.211   5.627
11872WAT      O35857   7.729   2.910   3.868
11872WAT     H135858   7.737   2.899   3.967
11872WAT     H235859   7.730   2.819   3.825
11873WAT      O35860   2.128   1.756   0.518
11873WAT     H135861   2.225   1.734   0.531
11873WAT     H235862   2.114   1.853   0.537
11874WAT      O35863   1.714   6.391   9.027
11874WAT     H135864   1.630   6.413   8.979
11874WAT     H235865   1.706   6.300   9.069
11875WAT      O35866   0.451   7.748   4.857
11875WAT     H135867   0.461   7.666   4.800
11875WAT     H235868   0.388   7.729   4.932
11876WAT      O35869   6.195   0.500   2.947
11876WAT     H135870   6.108   0.532   2.908
11876WAT     H235871   6.216   0.409   2.913
11877WAT      O35872   7.456   1.783   9.679
11877WAT     H135873   7.490   1.706   9.624
11877WAT     H235874   7.461   1.867   9.625
11878WAT      O35875   5.451   9.240   6.852
11878WAT     H135876   5.420   9.146   6.841
11878WAT     H235877   5.376   9.303   6.831
11879WAT      O35878   7.377   5.996   7.053
11879WAT     H135879   7.358   6.080   7.102
11879WAT     H235880   7.303   5.930   7.068
11880WAT      O35881   3.803   5.608   3.925
11880WAT     H135882   3.756   5.656   3.999
11880WAT     H235883   3.798   5.509   3.942
11881WAT      O35884   8.358   3.804   7.181
11881WAT     H135885   8.444   3.762   7.150
11881WAT     H235886   8.286   3.735   7.182
11882WAT      O35887   9.513   0.422   7.802
11882WAT     H135888   9.494   0.324   7.797
11882WAT     H235889   9.527   0.458   7.710
11883WAT      O35890   6.818   2.957   1.644
11883WAT     H135891   6.898   2.897   1.648
11883WAT     H235892   6.809   3.008   1.729
11884WAT      O35893   0.993   5.348   6.168
11884WAT     H135894   0.955   5.401   6.244
11884WAT     H235895   0.918   5.307   6.115
11885WAT      O35896   2.417   3.353   3.150
11885WAT     H135897   2.390   3.312   3.237
11885WAT     H235898   2.336   3.375   3.096
11886WAT      O35899   5.437   9.057   3.202
11886WAT     H135900   5.346   9.021   3.223
11886WAT     H235901   5.465   9.024   3.112
11887WAT      O35902   5.904   9.322   1.400
11887WAT     H135903   5.969   9.387   1.361
11887WAT     H235904   5.834   9.373   1.451
11888WAT      O35905   7.894   8.623   9.124
11888WAT     H135906   7.973   8.620   9.062
11888WAT     H235907   7.815   8.582   9.078
11889WAT      O35908   9.471   3.118   8.481
11889WAT     H135909   9.543   3.054   8.510
11889WAT     H235910   9.381   3.077   8.495
11890WAT      O35911   8.546   6.036   1.941
11890WAT     H135912   8.619   5.973   1.913
11890WAT     H235913   8.585   6.126   1.958
11891WAT      O35914   4.191   3.412   5.167
11891WAT     H135915   4.116   3.401   5.233
11891WAT     H235916   4.259   3.475   5.205
11892WAT      O35917   1.440   5.115   0.666
11892WAT     H135918   1.365   5.050   0.675
11892WAT     H235919   1.522   5.078   0.709
11893WAT      O35920   1.323   6.837   0.774
11893WAT     H135921   1.247   6.885   0.819
11893WAT     H235922   1.396   6.903   0.754
11894WAT      O35923   0.728   6.160   7.859
11894WAT     H135924   0.704   6.235   7.798
11894WAT     H235925   0.682   6.076   7.828
11895WAT      O35926   1.279   5.970   5.277
11895WAT     H135927   1.290   6.002   5.183
11895WAT     H235928   1.246   5.876   5.276
11896WAT      O35929   5.508   0.808   3.010
11896WAT     H135930   5.585   0.779   3.068
11896WAT     H235931   5.423   0.774   3.049
11897WAT      O35932   4.910   6.190   7.062
11897WAT     H135933   4.957   6.252   7.124
11897WAT     H235934   4.824   6.232   7.031
11898WAT      O35935   6.257   5.512   8.654
11898WAT     H135936   6.169   5.551   8.626
11898WAT     H235937   6.274   5.427   8.604
11899WAT      O35938   8.615   5.993   6.805
11899WAT     H135939   8.691   5.940   6.841
11899WAT     H235940   8.582   6.056   6.876
11900WAT      O35941   3.756   1.624   6.075
11900WAT     H135942   3.751   1.557   6.001
11900WAT     H235943   3.759   1.577   6.163
11901WAT      O35944   4.083   3.075   4.981
11901WAT     H135945   4.052   3.084   4.887
11901WAT     H235946   4.044   2.994   5.023
11902WAT      O35947   5.642   9.834   0.999
11902WAT     H135948   5.620   9.901   1.070
11902WAT     H235949   5.717   9.776   1.030
11903WAT      O35950   1.378   2.595   3.944
11903WAT     H135951   1.392   2.616   4.040
11903WAT     H235952   1.408   2.502   3.925
11904WAT      O35953   6.115   0.122   4.560
11904WAT     H135954   6.036   0.061   4.556
11904WAT     H235955   6.111   0.177   4.644
11905WAT      O35956   2.080   5.494   1.437
11905WAT     H135957   1.983   5.510   1.425
11905WAT     H235958   2.129   5.518   1.353
11906WAT      O35959   0.397   9.015   3.127
11906WAT     H135960   0.404   9.080   3.203
11906WAT     H235961   0.486   9.007   3.082
11907WAT      O35962   9.422   8.779   3.331
11907WAT     H135963   9.488   8.853   3.324
11907WAT     H235964   9.351   8.803   3.398
11908WAT      O35965   2.350   3.259   8.932
11908WAT     H135966   2.386   3.245   9.025
11908WAT     H235967   2.376   3.181   8.875
11909WAT      O35968   1.005   5.359   1.631
11909WAT     H135969   1.076   5.333   1.565
11909WAT     H235970   0.996   5.459   1.633
11910WAT      O35971   8.656   2.521   4.915
11910WAT     H135972   8.714   2.488   4.991
11910WAT     H235973   8.580   2.458   4.902
11911WAT      O35974   3.906   1.971   8.281
11911WAT     H135975   3.920   2.042   8.350
11911WAT     H235976   3.809   1.966   8.259
11912WAT      O35977   3.487   7.946   7.231
11912WAT     H135978   3.499   7.847   7.221
11912WAT     H235979   3.458   7.985   7.144
11913WAT      O35980   7.781   9.692   5.658
11913WAT     H135981   7.722   9.730   5.587
11913WAT     H235982   7.876   9.693   5.625
11914WAT      O35983   2.280   2.670   3.466
11914WAT     H135984   2.194   2.630   3.436
11914WAT     H235985   2.341   2.597   3.497
11915WAT      O35986   3.830   7.245   0.508
11915WAT     H135987   3.766   7.287   0.443
11915WAT     H235988   3.910   7.304   0.519
11916WAT      O35989   6.992   7.695   3.187
11916WAT     H135990   7.075   7.644   3.168
11916WAT     H235991   7.013   7.775   3.243
11917WAT      O35992   4.706   7.542   8.951
11917WAT     H135993   4.607   7.529   8.952
11917WAT     H235994   4.748   7.483   9.020
11918WAT      O35995   6.549   6.801   9.737
11918WAT     H135996   6.626   6.845   9.693
11918WAT     H235997   6.466   6.855   9.722
11919WAT      O35998   7.792   4.679   3.822
11919WAT     H135999   7.741   4.607   3.868
11919WAT     H236000   7.737   4.718   3.748
11920WAT      O36001   6.235   0.007   4.308
11920WAT     H136002   6.176   0.036   4.383
11920WAT     H236003   6.307   0.074   4.293
11921WAT      O36004   2.367   2.477   0.746
11921WAT     H136005   2.348   2.393   0.695
11921WAT     H236006   2.465   2.497   0.742
11922WAT      O36007   5.684   6.747   3.278
11922WAT     H136008   5.711   6.827   3.331
11922WAT     H236009   5.717   6.664   3.323
11923WAT      O36010   6.225   7.107   0.636
11923WAT     H136011   6.322   7.082   0.642
11923WAT     H236012   6.202   7.128   0.541
11924WAT      O36013   8.963   0.044   1.564
11924WAT     H136014   8.916   0.129   1.538
11924WAT     H236015   8.916   0.002   1.641
11925WAT      O36016   3.213   6.367   7.043
11925WAT     H136017   3.153   6.295   7.078
11925WAT     H236018   3.288   6.382   7.107
11926WAT      O36019   5.256   1.860   6.877
11926WAT     H136020   5.269   1.953   6.841
11926WAT     H236021   5.260   1.863   6.977
11927WAT      O36022   6.224   6.696   6.287
11927WAT     H136023   6.207   6.608   6.333
11927WAT     H236024   6.254   6.678   6.193
11928WAT      O36025   0.583   3.184   8.665
11928WAT     H136026   0.585   3.162   8.567
11928WAT     H236027   0.598   3.100   8.718
11929WAT      O36028   5.986   5.743   3.803
11929WAT     H136029   5.934   5.753   3.888
11929WAT     H236030   5.925   5.754   3.725
11930WAT      O36031   3.469   2.134   7.638
11930WAT     H136032   3.452   2.156   7.542
11930WAT     H236033   3.502   2.040   7.646
11931WAT      O36034   0.046   8.813   9.749
11931WAT     H136035   0.009   8.831   9.658
11931WAT     H236036   0.065   8.715   9.758
11932WAT      O36037   3.760   9.057   7.006
11932WAT     H136038   3.841   9.032   6.954
11932WAT     H236039   3.782   9.059   7.103
11933WAT      O36040   3.813   8.385   7.921
11933WAT     H136041   3.726   8.336   7.919
11933WAT     H236042   3.838   8.414   7.829
11934WAT      O36043   4.299   2.919   5.181
11934WAT     H136044   4.355   2.856   5.236
11934WAT     H236045   4.216   2.872   5.151
11935WAT      O36046   7.646   8.330   4.585
11935WAT     H136047   7.639   8.238   4.624
11935WAT     H236048   7.583   8.338   4.508
11936WAT      O36049   3.880   3.002   1.533
11936WAT     H136050   3.852   2.924   1.589
11936WAT     H236051   3.801   3.039   1.484
11937WAT      O36052   9.258   6.396   3.616
11937WAT     H136053   9.171   6.363   3.653
11937WAT     H236054   9.244   6.485   3.573
11938WAT      O36055   0.804   7.777   7.750
11938WAT     H136056   0.784   7.716   7.674
11938WAT     H236057   0.723   7.832   7.771
11939WAT      O36058   1.705   2.645   2.814
11939WAT     H136059   1.748   2.735   2.802
11939WAT     H236060   1.768   2.574   2.786
11940WAT      O36061   9.776   7.034   1.701
11940WAT     H136062   9.784   7.020   1.602
11940WAT     H236063   9.699   6.980   1.736
11941WAT      O36064   2.678   3.254   4.287
11941WAT     H136065   2.649   3.168   4.328
11941WAT     H236066   2.777   3.255   4.276
11942WAT      O36067   4.391   4.183   9.428
11942WAT     H136068   4.316   4.134   9.473
11942WAT     H236069   4.424   4.130   9.350
11943WAT      O36070   5.251   3.505   8.611
11943WAT     H136071   5.322   3.506   8.541
11943WAT     H236072   5.161   3.504   8.566
11944WAT      O36073   4.049   5.249   6.143
11944WAT     H136074   3.979   5.212   6.205
11944WAT     H236075   4.133   5.267   6.195
11945WAT      O36076   7.414   8.121   2.137
11945WAT     H136077   7.345   8.170   2.085
11945WAT     H236078   7.504   8.160   2.118
11946WAT      O36079   2.985   5.503   4.400
11946WAT     H136080   3.039   5.548   4.329
11946WAT     H236081   2.941   5.422   4.361
11947WAT      O36082   2.946   6.494   6.808
11947WAT     H136083   3.044   6.513   6.807
11947WAT     H236084   2.916   6.479   6.902
11948WAT      O36085   4.463   0.053   8.458
11948WAT     H136086   4.553   0.017   8.480
11948WAT     H236087   4.400   0.032   8.533
11949WAT      O36088   0.494   8.150   2.648
11949WAT     H136089   0.456   8.160   2.556
11949WAT     H236090   0.437   8.201   2.713
11950WAT      O36091   7.675   6.173   5.976
11950WAT     H136092   7.616   6.231   5.920
11950WAT     H236093   7.620   6.099   6.015
11951WAT      O36094   1.939   5.444   6.967
11951WAT     H136095   1.936   5.434   6.867
11951WAT     H236096   2.019   5.496   6.993
11952WAT      O36097   3.724   8.603   8.229
11952WAT     H136098   3.736   8.633   8.135
11952WAT     H236099   3.649   8.654   8.271
11953WAT      O36100   0.248   5.290   9.730
11953WAT     H136101   0.292   5.243   9.654
11953WAT     H236102   0.208   5.222   9.792
11954WAT      O36103   3.192   3.569   2.135
11954WAT     H136104   3.097   3.583   2.164
11954WAT     H236105   3.236   3.658   2.123
11955WAT      O36106   4.923   7.692   8.522
11955WAT     H136107   5.020   7.668   8.510
11955WAT     H236108   4.869   7.609   8.533
11956WAT      O36109   2.869   7.892   7.730
11956WAT     H136110   2.869   7.876   7.829
11956WAT     H236111   2.775   7.899   7.697
11957WAT      O36112   3.591   7.852   2.653
11957WAT     H136113   3.687   7.858   2.682
11957WAT     H236114   3.545   7.780   2.705
11958WAT      O36115   9.145   9.390   9.589
11958WAT     H136116   9.161   9.294   9.612
11958WAT     H236117   9.225   9.445   9.616
11959WAT      O36118   9.337   6.473   9.251
11959WAT     H136119   9.357   6.571   9.257
11959WAT     H236120   9.262   6.450   9.314
11960WAT      O36121   7.344   5.189   3.862
11960WAT     H136122   7.368   5.283   3.885
11960WAT     H236123   7.428   5.135   3.851
11961WAT      O36124   2.259   6.801   7.880
11961WAT     H136125   2.340   6.768   7.929
11961WAT     H236126   2.180   6.745   7.903
11962WAT      O36127   9.234   7.168   2.993
11962WAT     H136128   9.288   7.096   2.950
11962WAT     H236129   9.162   7.198   2.930
11963WAT      O36130   4.339   8.931   6.629
11963WAT     H136131   4.246   8.897   6.639
11963WAT     H236132   4.337   9.027   6.602
11964WAT      O36133   4.362   5.141   8.708
11964WAT     H136134   4.391   5.045   8.704
11964WAT     H236135   4.385   5.180   8.797
11965WAT      O36136   0.877   2.199   9.566
11965WAT     H136137   0.891   2.156   9.656
11965WAT     H236138   0.941   2.158   9.500
11966WAT      O36139   9.216   9.027   9.408
11966WAT     H136140   9.128   9.044   9.454
11966WAT     H236141   9.285   9.006   9.477
11967WAT      O36142   4.418   9.577   1.643
11967WAT     H136143   4.391   9.537   1.731
11967WAT     H236144   4.343   9.633   1.608
11968WAT      O36145   9.362   5.717   0.430
11968WAT     H136146   9.288   5.659   0.396
11968WAT     H236147   9.406   5.763   0.352
11969WAT      O36148   4.962   2.830   3.422
11969WAT     H136149   5.017   2.854   3.502
11969WAT     H236150   4.883   2.777   3.451
11970WAT      O36151   7.622   4.499   0.422
11970WAT     H136152   7.647   4.582   0.472
11970WAT     H236153   7.680   4.423   0.451
11971WAT      O36154   0.531   2.267   8.543
11971WAT     H136155   0.568   2.292   8.633
11971WAT     H236156   0.479   2.345   8.506
11972WAT      O36157   8.445   0.248   8.059
11972WAT     H136158   8.383   0.325   8.073
11972WAT     H236159   8.425   0.205   7.971
11973WAT      O36160   1.561   6.829   2.691
11973WAT     H136161   1.537   6.927   2.691
11973WAT     H236162   1.526   6.787   2.775
11974WAT      O36163   5.395   3.495   4.901
11974WAT     H136164   5.379   3.587   4.938
11974WAT     H236165   5.329   3.431   4.939
11975WAT      O36166   4.877   3.335   5.283
11975WAT     H136167   4.854   3.294   5.372
11975WAT     H236168   4.972   3.314   5.260
11976WAT      O36169   2.967   3.938   8.464
11976WAT     H136170   2.958   3.935   8.564
11976WAT     H236171   2.900   3.877   8.423
11977WAT      O36172   3.024   1.328   1.318
11977WAT     H136173   3.004   1.364   1.226
11977WAT     H236174   3.070   1.399   1.372
11978WAT      O36175   7.334   4.995   7.529
11978WAT     H136176   7.331   5.090   7.560
11978WAT     H236177   7.411   4.983   7.466
11979WAT      O36178   5.513   2.304   3.915
11979WAT     H136179   5.523   2.249   3.998
11979WAT     H236180   5.459   2.385   3.935
11980WAT      O36181   9.527   8.324   4.695
11980WAT     H136182   9.521   8.421   4.670
11980WAT     H236183   9.597   8.312   4.766
11981WAT      O36184   9.545   2.552   9.434
11981WAT     H136185   9.523   2.585   9.342
11981WAT     H236186   9.644   2.559   9.449
11982WAT      O36187   5.629   8.922   0.712
11982WAT     H136188   5.663   9.011   0.680
11982WAT     H236189   5.616   8.925   0.811
11983WAT      O36190   1.490   1.166   2.521
11983WAT     H136191   1.436   1.242   2.557
11983WAT     H236192   1.434   1.083   2.520
11984WAT      O36193   5.923   8.254   4.202
11984WAT     H136194   5.967   8.343   4.218
11984WAT     H236195   5.825   8.262   4.219
11985WAT      O36196   5.053   9.321   6.848
11985WAT     H136197   5.079   9.411   6.883
11985WAT     H236198   4.967   9.292   6.891
11986WAT      O36199   4.647   3.951   1.977
11986WAT     H136200   4.731   3.938   2.031
11986WAT     H236201   4.581   3.880   2.002
11987WAT      O36202   7.584   4.930   7.446
11987WAT     H136203   7.610   4.888   7.533
11987WAT     H236204   7.659   4.988   7.414
11988WAT      O36205   4.994   3.590   0.809
11988WAT     H136206   4.932   3.656   0.768
11988WAT     H236207   4.977   3.584   0.907
11989WAT      O36208   4.915   7.128   1.392
11989WAT     H136209   4.868   7.054   1.439
11989WAT     H236210   4.967   7.091   1.315
11990WAT      O36211   0.839   3.511   2.574
11990WAT     H136212   0.740   3.507   2.590
11990WAT     H236213   0.881   3.575   2.637
11991WAT      O36214   8.703   3.312   8.010
11991WAT     H136215   8.725   3.221   7.973
11991WAT     H236216   8.787   3.362   8.027
11992WAT      O36217   3.206   1.910   6.475
11992WAT     H136218   3.304   1.924   6.460
11992WAT     H236219   3.174   1.969   6.550
11993WAT      O36220   0.074   0.009   2.267
11993WAT     H136221   0.140   0.073   2.307
11993WAT     H236222  -0.019   0.043   2.282
11994WAT      O36223   3.288   4.535   3.221
11994WAT     H136224   3.259   4.543   3.316
11994WAT     H236225   3.242   4.457   3.178
11995WAT      O36226   5.910   9.414   4.028
11995WAT     H136227   5.856   9.342   4.071
11995WAT     H236228   5.848   9.483   3.989
11996WAT      O36229   5.817   6.154   9.847
11996WAT     H136230   5.901   6.162   9.901
11996WAT     H236231   5.810   6.231   9.785
11997WAT      O36232   1.459   0.308   8.368
11997WAT     H136233   1.444   0.362   8.285
11997WAT     H236234   1.375   0.260   8.392
11998WAT      O36235   8.845   5.472   7.171
11998WAT     H136236   8.762   5.529   7.166
11998WAT     H236237   8.838   5.411   7.250
11999WAT      O36238   8.901   3.152   1.803
11999WAT     H136239   8.803   3.134   1.809
11999WAT     H236240   8.948   3.073   1.764
12000WAT      O36241   7.453   2.603   2.734
12000WAT     H136242   7.466   2.556   2.646
12000WAT     H236243   7.365   2.576   2.772
12001WAT      O36244   9.711   7.227   2.254
12001WAT     H136245   9.643   7.154   2.249
12001WAT     H236246   9.740   7.253   2.162
12002WAT      O36247   7.679   9.143   1.654
12002WAT     H136248   7.774   9.158   1.628
12002WAT     H236249   7.621   9.142   1.573
12003WAT      O36250   5.130   1.666   5.897
12003WAT     H136251   5.100   1.626   5.811
12003WAT     H236252   5.206   1.729   5.880
12004WAT      O36253   9.410   2.167   6.359
12004WAT     H136254   9.405   2.232   6.283
12004WAT     H236255   9.495   2.113   6.352
12005WAT      O36256   3.370   6.915   7.495
12005WAT     H136257   3.368   6.883   7.590
12005WAT     H236258   3.302   6.988   7.484
12006WAT      O36259   1.418   1.825   0.644
12006WAT     H136260   1.351   1.899   0.646
12006WAT     H236261   1.501   1.854   0.691
12007WAT      O36262   0.087   8.414   9.006
12007WAT     H136263   0.134   8.370   9.082
12007WAT     H236264  -0.012   8.415   9.024
12008WAT      O36265   1.722   8.562   0.027
12008WAT     H136266   1.656   8.505   0.076
12008WAT     H236267   1.683   8.654   0.014
12009WAT      O36268   3.730   6.717   6.435
12009WAT     H136269   3.662   6.688   6.368
12009WAT     H236270   3.730   6.817   6.442
12010WAT      O36271   7.490   9.611   5.430
12010WAT     H136272   7.560   9.603   5.359
12010WAT     H236273   7.446   9.701   5.423
12011WAT      O36274   7.080   7.080   3.374
12011WAT     H136275   7.022   7.005   3.342
12011WAT     H236276   7.088   7.149   3.302
12012WAT      O36277   1.292   1.231   4.554
12012WAT     H136278   1.315   1.263   4.462
12012WAT     H236279   1.371   1.245   4.614
12013WAT      O36280   5.997   2.304   9.492
12013WAT     H136281   5.998   2.288   9.591
12013WAT     H236282   5.946   2.387   9.472
12014WAT      O36283   6.972   4.900   2.311
12014WAT     H136284   6.931   4.939   2.229
12014WAT     H236285   7.039   4.831   2.286
12015WAT      O36286   7.444   6.011   2.447
12015WAT     H136287   7.402   6.070   2.378
12015WAT     H236288   7.404   5.920   2.443
12016WAT      O36289   8.066   1.017   7.762
12016WAT     H136290   7.985   1.071   7.785
12016WAT     H236291   8.040   0.941   7.703
12017WAT      O36292   3.264   0.677   2.398
12017WAT     H136293   3.207   0.655   2.477
12017WAT     H236294   3.230   0.760   2.354
12018WAT      O36295   5.242   4.829   6.951
12018WAT     H136296   5.305   4.808   6.877
12018WAT     H236297   5.150   4.800   6.927
12019WAT      O36298   4.059   5.301   3.126
12019WAT     H136299   4.149   5.333   3.153
12019WAT     H236300   4.009   5.270   3.207
12020WAT      O36301   3.912   2.214   2.253
12020WAT     H136302   3.869   2.298   2.286
12020WAT     H236303   3.969   2.175   2.326
12021WAT      O36304   7.715   3.063   8.871
12021WAT     H136305   7.814   3.074   8.866
12021WAT     H236306   7.684   3.079   8.965
12022WAT      O36307   4.684   6.670   4.065
12022WAT     H136308   4.675   6.757   4.016
12022WAT     H236309   4.713   6.599   4.000
12023WAT      O36310   4.407   0.288   2.035
12023WAT     H136311   4.507   0.289   2.043
12023WAT     H236312   4.369   0.359   2.093
12024WAT      O36313   1.806   7.715   0.233
12024WAT     H136314   1.816   7.660   0.150
12024WAT     H236315   1.762   7.659   0.303
12025WAT      O36316   7.136   1.924   6.424
12025WAT     H136317   7.154   1.964   6.334
12025WAT     H236318   7.145   1.994   6.494
12026WAT      O36319   6.504   4.701   8.546
12026WAT     H136320   6.430   4.764   8.568
12026WAT     H236321   6.486   4.656   8.458
12027WAT      O36322   9.622   4.395   8.418
12027WAT     H136323   9.639   4.326   8.348
12027WAT     H236324   9.541   4.448   8.395
12028WAT      O36325   0.754   9.069   2.126
12028WAT     H136326   0.707   9.052   2.039
12028WAT     H236327   0.828   9.002   2.137
12029WAT      O36328   6.647   3.374   8.269
12029WAT     H136329   6.684   3.301   8.326
12029WAT     H236330   6.604   3.443   8.328
12030WAT      O36331   7.723   2.817   0.209
12030WAT     H136332   7.706   2.773   0.120
12030WAT     H236333   7.811   2.864   0.207
12031WAT      O36334   4.531   4.462   6.680
12031WAT     H136335   4.605   4.526   6.658
12031WAT     H236336   4.530   4.444   6.778
12032WAT      O36337   1.486   0.925   9.288
12032WAT     H136338   1.433   0.880   9.360
12032WAT     H236339   1.470   0.878   9.201
12033WAT      O36340   8.175   4.191   7.578
12033WAT     H136341   8.192   4.237   7.665
12033WAT     H236342   8.094   4.132   7.586
12034WAT      O36343   6.708   9.367   4.748
12034WAT     H136344   6.748   9.289   4.698
12034WAT     H236345   6.654   9.423   4.685
12035WAT      O36346   7.285   7.657   5.011
12035WAT     H136347   7.232   7.573   4.997
12035WAT     H236348   7.254   7.703   5.094
12036WAT      O36349   2.915   2.245   5.128
12036WAT     H136350   2.852   2.228   5.052
12036WAT     H236351   2.864   2.278   5.207
12037WAT      O36352   8.627   6.519   1.287
12037WAT     H136353   8.660   6.581   1.358
12037WAT     H236354   8.705   6.479   1.238
12038WAT      O36355   9.583   4.024   8.108
12038WAT     H136356   9.676   4.051   8.132
12038WAT     H236357   9.522   4.103   8.119
12039WAT      O36358   5.359   7.241   3.168
12039WAT     H136359   5.334   7.300   3.244
12039WAT     H236360   5.424   7.172   3.199
12040WAT      O36361   0.856   9.322   0.820
12040WAT     H136362   0.881   9.344   0.726
12040WAT     H236363   0.803   9.396   0.859
12041WAT      O36364   9.463   4.210   3.314
12041WAT     H136365   9.529   4.248   3.249
12041WAT     H236366   9.505   4.203   3.404
12042WAT      O36367   2.379   4.167   1.694
12042WAT     H136368   2.299   4.219   1.664
12042WAT     H236369   2.461   4.221   1.678
12043WAT      O36370   8.604   3.798   6.134
12043WAT     H136371   8.513   3.783   6.171
12043WAT     H236372   8.618   3.741   6.053
12044WAT      O36373   1.447   8.224   2.571
12044WAT     H136374   1.460   8.125   2.583
12044WAT     H236375   1.515   8.259   2.507
12045WAT      O36376   8.734   7.086   8.265
12045WAT     H136377   8.808   7.019   8.262
12045WAT     H236378   8.658   7.050   8.319
12046WAT      O36379   5.734   9.508   1.479
12046WAT     H136380   5.739   9.581   1.410
12046WAT     H236381   5.780   9.538   1.562
12047WAT      O36382   2.901   0.034   9.342
12047WAT     H136383   2.974  -0.007   9.287
12047WAT     H236384   2.930   0.123   9.376
12048WAT      O36385   8.223   2.955   5.923
12048WAT     H136386   8.136   2.955   5.972
12048WAT     H236387   8.296   2.923   5.984
12049WAT      O36388   7.453   3.487   3.053
12049WAT     H136389   7.472   3.438   2.968
12049WAT     H236390   7.500   3.576   3.050
12050WAT      O36391   7.452   1.948   2.080
12050WAT     H136392   7.423   1.924   1.988
12050WAT     H236393   7.373   1.942   2.142
12051WAT      O36394   1.193   1.499   2.795
12051WAT     H136395   1.204   1.453   2.883
12051WAT     H236396   1.222   1.594   2.803
12052WAT      O36397   5.412   8.263   1.468
12052WAT     H136398   5.346   8.190   1.484
12052WAT     H236399   5.433   8.308   1.555
12053WAT      O36400   0.755   4.547   6.207
12053WAT     H136401   0.701   4.630   6.199
12053WAT     H236402   0.699   4.468   6.180
12054WAT      O36403   5.977   2.034   3.723
12054WAT     H136404   6.021   2.117   3.757
12054WAT     H236405   5.878   2.050   3.714
12055WAT      O36406   9.009   4.877   2.007
12055WAT     H136407   8.912   4.883   2.034
12055WAT     H236408   9.021   4.802   1.943
12056WAT      O36409   9.029   6.464   4.007
12056WAT     H136410   9.036   6.562   3.985
12056WAT     H236411   9.026   6.412   3.921
12057WAT      O36412   8.742   2.273   7.716
12057WAT     H136413   8.809   2.296   7.786
12057WAT     H236414   8.737   2.346   7.648
12058WAT      O36415   3.902   6.245   7.680
12058WAT     H136416   3.992   6.202   7.671
12058WAT     H236417   3.853   6.205   7.757
12059WAT      O36418   4.853   7.480   5.968
12059WAT     H136419   4.787   7.489   6.043
12059WAT     H236420   4.803   7.471   5.882
12060WAT      O36421   3.412   9.059   8.174
12060WAT     H136422   3.368   8.991   8.233
12060WAT     H236423   3.395   9.035   8.078
12061WAT      O36424   1.525   6.276   6.313
12061WAT     H136425   1.437   6.272   6.265
12061WAT     H236426   1.529   6.358   6.370
12062WAT      O36427   9.362   9.757   1.013
12062WAT     H136428   9.416   9.834   1.048
12062WAT     H236429   9.423   9.692   0.968
12063WAT      O36430   1.099   5.287   1.858
12063WAT     H136431   1.089   5.189   1.874
12063WAT     H236432   1.053   5.312   1.773
12064WAT      O36433   8.346   5.656   1.073
12064WAT     H136434   8.256   5.689   1.102
12064WAT     H236435   8.335   5.578   1.012
12065WAT      O36436   2.148   3.497   3.088
12065WAT     H136437   2.058   3.524   3.122
12065WAT     H236438   2.205   3.578   3.074
12066WAT      O36439   3.980   9.785   1.251
12066WAT     H136440   3.903   9.838   1.286
12066WAT     H236441   4.044   9.845   1.204
12067WAT      O36442   6.318   6.807   8.587
12067WAT     H136443   6.375   6.727   8.606
12067WAT     H236444   6.259   6.824   8.665
12068WAT      O36445   4.521   1.410   4.684
12068WAT     H136446   4.433   1.365   4.667
12068WAT     H236447   4.557   1.380   4.772
12069WAT      O36448   0.162   9.168   4.538
12069WAT     H136449   0.234   9.237   4.545
12069WAT     H236450   0.101   9.191   4.462
12070WAT      O36451   3.155   9.073   3.257
12070WAT     H136452   3.156   9.166   3.293
12070WAT     H236453   3.164   9.076   3.157
12071WAT      O36454   2.785   3.007   3.038
12071WAT     H136455   2.808   3.027   3.134
12071WAT     H236456   2.696   3.045   3.017
12072WAT      O36457   3.935   9.372   6.267
12072WAT     H136458   3.983   9.368   6.354
12072WAT     H236459   3.984   9.319   6.198
12073WAT      O36460   0.452   9.459   1.312
12073WAT     H136461   0.521   9.529   1.295
12073WAT     H236462   0.495   9.369   1.315
12074WAT      O36463   5.439   0.781   9.416
12074WAT     H136464   5.427   0.737   9.327
12074WAT     H236465   5.364   0.756   9.476
12075WAT      O36466   5.733   4.431   2.981
12075WAT     H136467   5.744   4.394   3.072
12075WAT     H236468   5.800   4.390   2.919
12076WAT      O36469   2.558   7.500   6.254
12076WAT     H136470   2.592   7.480   6.346
12076WAT     H236471   2.500   7.582   6.257
12077WAT      O36472   3.975   5.341   4.695
12077WAT     H136473   3.908   5.411   4.669
12077WAT     H236474   4.068   5.376   4.678
12078WAT      O36475   4.637   2.671   5.674
12078WAT     H136476   4.605   2.581   5.644
12078WAT     H236477   4.578   2.704   5.748
12079WAT      O36478   2.659   0.301   9.761
12079WAT     H136479   2.605   0.379   9.728
12079WAT     H236480   2.605   0.217   9.754
12080WAT      O36481   7.760   3.247   3.984
12080WAT     H136482   7.734   3.337   4.018
12080WAT     H236483   7.828   3.206   4.045
12081WAT      O36484   1.314   7.104   0.085
12081WAT     H136485   1.237   7.041   0.067
12081WAT     H236486   1.299   7.189   0.035
12082WAT      O36487   8.123   2.137   0.587
12082WAT     H136488   8.084   2.048   0.564
12082WAT     H236489   8.214   2.144   0.546
12083WAT      O36490   8.954   5.331   4.065
12083WAT     H136491   8.935   5.236   4.039
12083WAT     H236492   8.985   5.333   4.160
12084WAT      O36493   1.588   4.664   4.530
12084WAT     H136494   1.650   4.694   4.603
12084WAT     H236495   1.613   4.711   4.445
12085WAT      O36496   9.014   6.208   1.635
12085WAT     H136497   9.032   6.248   1.725
12085WAT     H236498   9.066   6.123   1.626
12086WAT      O36499   9.055   2.754   4.046
12086WAT     H136500   9.078   2.733   3.951
12086WAT     H236501   9.002   2.838   4.050
12087WAT      O36502   9.668   4.527   9.017
12087WAT     H136503   9.579   4.492   8.987
12087WAT     H236504   9.688   4.493   9.109
12088WAT      O36505   5.855   6.548   6.454
12088WAT     H136506   5.954   6.531   6.450
12088WAT     H236507   5.808   6.482   6.395
12089WAT      O36508   3.328   3.077   7.050
12089WAT     H136509   3.259   3.048   7.116
12089WAT     H236510   3.297   3.161   7.005
12090WAT      O36511   6.922   9.273   1.861
12090WAT     H136512   7.012   9.318   1.863
12090WAT     H236513   6.891   9.263   1.767
12091WAT      O36514   0.500   6.160   8.761
12091WAT     H136515   0.449   6.075   8.747
12091WAT     H236516   0.440   6.238   8.741
12092WAT      O36517   8.654   1.185   4.523
12092WAT     H136518   8.746   1.208   4.553
12092WAT     H236519   8.649   1.190   4.423
12093WAT      O36520   1.981   8.756   0.550
12093WAT     H136521   1.929   8.812   0.485
12093WAT     H236522   2.057   8.810   0.585
12094WAT      O36523   9.069   2.301   0.422
12094WAT     H136524   9.058   2.342   0.331
12094WAT     H236525   9.022   2.357   0.490
12095WAT      O36526   2.941   3.926   8.985
12095WAT     H136527   2.976   3.895   9.073
12095WAT     H236528   2.847   3.960   8.996
12096WAT      O36529   4.765   9.393   0.063
12096WAT     H136530   4.747   9.491   0.052
12096WAT     H236531   4.861   9.374   0.042
12097WAT      O36532   7.372   8.649   9.661
12097WAT     H136533   7.371   8.553   9.632
12097WAT     H236534   7.393   8.707   9.582
12098WAT      O36535   6.818   0.004   4.297
12098WAT     H136536   6.856  -0.064   4.234
12098WAT     H236537   6.731   0.037   4.262
12099WAT      O36538   6.201   2.125   1.849
12099WAT     H136539   6.292   2.113   1.811
12099WAT     H236540   6.149   2.040   1.839
12100WAT      O36541   1.176   2.652   1.992
12100WAT     H136542   1.120   2.684   1.916
12100WAT     H236543   1.246   2.721   2.013
12101WAT      O36544   8.963   5.794   0.525
12101WAT     H136545   9.010   5.720   0.476
12101WAT     H236546   8.946   5.766   0.619
12102WAT      O36547   7.149   1.553   9.468
12102WAT     H136548   7.232   1.529   9.518
12102WAT     H236549   7.071   1.507   9.508
12103WAT      O36550   7.130   3.721   1.753
12103WAT     H136551   7.196   3.774   1.807
12103WAT     H236552   7.117   3.766   1.664
12104WAT      O36553   1.777   1.662   3.700
12104WAT     H136554   1.760   1.690   3.795
12104WAT     H236555   1.847   1.591   3.698
12105WAT      O36556   3.416   3.700   6.612
12105WAT     H136557   3.453   3.614   6.579
12105WAT     H236558   3.444   3.775   6.551
12106WAT      O36559   1.048   0.066   1.832
12106WAT     H136560   1.062   0.054   1.931
12106WAT     H236561   1.012  -0.019   1.793
12107WAT      O36562   1.603   6.378   3.723
12107WAT     H136563   1.576   6.398   3.818
12107WAT     H236564   1.685   6.321   3.723
12108WAT      O36565   3.269   3.987   2.543
12108WAT     H136566   3.194   3.926   2.570
12108WAT     H236567   3.266   4.002   2.445
12109WAT      O36568   0.732   9.374   8.084
12109WAT     H136569   0.797   9.299   8.097
12109WAT     H236570   0.775   9.461   8.107
12110WAT      O36571   9.141   2.705   1.431
12110WAT     H136572   9.190   2.727   1.346
12110WAT     H236573   9.058   2.760   1.437
12111WAT      O36574   8.479   0.029   4.776
12111WAT     H136575   8.494   0.082   4.692
12111WAT     H236576   8.552  -0.038   4.786
12112WAT      O36577   7.454   0.934   2.495
12112WAT     H136578   7.477   1.005   2.561
12112WAT     H236579   7.533   0.917   2.436
12113WAT      O36580   0.617   3.994   4.694
12113WAT     H136581   0.661   4.017   4.780
12113WAT     H236582   0.561   4.071   4.663
12114WAT      O36583   5.107   2.469   8.794
12114WAT     H136584   5.023   2.436   8.835
12114WAT     H236585   5.153   2.533   8.856
12115WAT      O36586   5.418   7.161   3.938
12115WAT     H136587   5.361   7.105   3.878
12115WAT     H236588   5.389   7.256   3.932
12116WAT      O36589   4.186   8.333   4.823
12116WAT     H136590   4.160   8.274   4.899
12116WAT     H236591   4.105   8.374   4.783
12117WAT      O36592   4.726   1.823   4.266
12117WAT     H136593   4.775   1.808   4.180
12117WAT     H236594   4.773   1.893   4.319
12118WAT      O36595   4.529   5.267   8.933
12118WAT     H136596   4.606   5.221   8.887
12118WAT     H236597   4.509   5.220   9.019
12119WAT      O36598   8.246   7.075   7.689
12119WAT     H136599   8.182   7.003   7.714
12119WAT     H236600   8.271   7.066   7.592
12120WAT      O36601   3.745   5.898   9.210
12120WAT     H136602   3.765   5.809   9.252
12120WAT     H236603   3.828   5.937   9.173
12121WAT      O36604   3.711   2.039   2.940
12121WAT     H136605   3.778   2.110   2.917
12121WAT     H236606   3.639   2.037   2.871
12122WAT      O36607   8.611   2.576   1.159
12122WAT     H136608   8.611   2.499   1.223
12122WAT     H236609   8.687   2.567   1.095
12123WAT      O36610   8.022   2.458   6.652
12123WAT     H136611   8.095   2.497   6.708
12123WAT     H236612   7.993   2.371   6.692
12124WAT      O36613   4.259   2.173   5.498
12124WAT     H136614   4.181   2.111   5.493
12124WAT     H236615   4.344   2.120   5.497
12125WAT      O36616   7.472   2.886   4.787
12125WAT     H136617   7.404   2.814   4.800
12125WAT     H236618   7.529   2.893   4.869
12126WAT      O36619   0.636   7.806   1.735
12126WAT     H136620   0.668   7.900   1.743
12126WAT     H236621   0.648   7.774   1.641
12127WAT      O36622   1.367   1.369   4.292
12127WAT     H136623   1.451   1.325   4.260
12127WAT     H236624   1.299   1.366   4.219
12128WAT      O36625   8.429   7.818   3.022
12128WAT     H136626   8.424   7.859   2.931
12128WAT     H236627   8.399   7.885   3.090
12129WAT      O36628   9.252   4.058   7.247
12129WAT     H136629   9.210   4.139   7.207
12129WAT     H236630   9.265   4.072   7.345
12130WAT      O36631   2.982   4.843   5.241
12130WAT     H136632   3.014   4.931   5.276
12130WAT     H236633   3.059   4.793   5.201
12131WAT      O36634   6.407   4.186   4.909
12131WAT     H136635   6.371   4.265   4.959
12131WAT     H236636   6.505   4.196   4.896
12132WAT      O36637   1.718   7.853   5.824
12132WAT     H136638   1.682   7.867   5.731
12132WAT     H236639   1.751   7.940   5.860
12133WAT      O36640   9.645   2.535   0.524
12133WAT     H136641   9.601   2.610   0.475
12133WAT     H236642   9.743   2.554   0.533
12134WAT      O36643   8.565   9.084   8.253
12134WAT     H136644   8.557   9.175   8.294
12134WAT     H236645   8.586   9.017   8.324
12135WAT      O36646   6.523   0.735   8.703
12135WAT     H136647   6.608   0.785   8.690
12135WAT     H236648   6.474   0.730   8.615
12136WAT      O36649   2.818   9.201   5.964
12136WAT     H136650   2.795   9.185   5.868
12136WAT     H236651   2.868   9.287   5.973
12137WAT      O36652   0.623   5.724   6.654
12137WAT     H136653   0.542   5.670   6.676
12137WAT     H236654   0.705   5.668   6.664
12138WAT      O36655   6.563   9.372   8.236
12138WAT     H136656   6.604   9.439   8.298
12138WAT     H236657   6.634   9.311   8.201
12139WAT      O36658   0.021   1.234   2.167
12139WAT     H136659   0.085   1.305   2.138
12139WAT     H236660   0.016   1.163   2.096
12140WAT      O36661   8.604   5.802   4.715
12140WAT     H136662   8.617   5.742   4.636
12140WAT     H236663   8.603   5.897   4.684
12141WAT      O36664   7.951   0.070   4.352
12141WAT     H136665   8.015   0.086   4.277
12141WAT     H236666   7.953   0.147   4.415
12142WAT      O36667   9.402   8.479   9.143
12142WAT     H136668   9.346   8.514   9.218
12142WAT     H236669   9.498   8.480   9.169
12143WAT      O36670   1.983   0.652   8.799
12143WAT     H136671   1.941   0.718   8.737
12143WAT     H236672   1.974   0.685   8.893
12144WAT      O36673   5.218   1.053   4.353
12144WAT     H136674   5.145   0.997   4.393
12144WAT     H236675   5.226   1.138   4.405
12145WAT      O36676   7.648   5.003   4.286
12145WAT     H136677   7.745   4.976   4.282
12145WAT     H236678   7.638   5.078   4.351
12146WAT      O36679   3.488   1.429   4.410
12146WAT     H136680   3.418   1.490   4.446
12146WAT     H236681   3.578   1.460   4.440
12147WAT      O36682   8.421   7.320   7.445
12147WAT     H136683   8.404   7.222   7.448
12147WAT     H236684   8.462   7.349   7.531
12148WAT      O36685   6.711   5.747   9.719
12148WAT     H136686   6.753   5.804   9.790
12148WAT     H236687   6.627   5.706   9.755
12149WAT      O36688   0.184   9.617   8.971
12149WAT     H136689   0.214   9.658   8.884
12149WAT     H236690   0.107   9.669   9.007
12150WAT      O36691   1.054   8.289   8.818
12150WAT     H136692   0.982   8.260   8.755
12150WAT     H236693   1.122   8.343   8.768
12151WAT      O36694   8.651   4.800   2.189
12151WAT     H136695   8.667   4.829   2.095
12151WAT     H236696   8.702   4.858   2.252
12152WAT      O36697   4.289   2.820   6.815
12152WAT     H136698   4.235   2.768   6.881
12152WAT     H236699   4.354   2.759   6.770
12153WAT      O36700   7.663   0.948   8.720
12153WAT     H136701   7.680   0.980   8.813
12153WAT     H236702   7.564   0.949   8.702
12154WAT      O36703   3.134   2.785   5.873
12154WAT     H136704   3.053   2.773   5.816
12154WAT     H236705   3.133   2.720   5.949
12155WAT      O36706   0.771   4.466   7.618
12155WAT     H136707   0.777   4.373   7.582
12155WAT     H236708   0.680   4.504   7.598
12156WAT      O36709   5.937   8.127   6.016
12156WAT     H136710   6.018   8.145   5.960
12156WAT     H236711   5.949   8.042   6.066
12157WAT      O36712   8.410   8.339   9.576
12157WAT     H136713   8.456   8.318   9.662
12157WAT     H236714   8.477   8.345   9.503
12158WAT      O36715   4.776   2.500   8.333
12158WAT     H136716   4.739   2.593   8.336
12158WAT     H236717   4.872   2.503   8.305
12159WAT      O36718   2.682   3.302   3.714
12159WAT     H136719   2.764   3.263   3.673
12159WAT     H236720   2.679   3.279   3.811
12160WAT      O36721   3.927   6.216   1.624
12160WAT     H136722   3.832   6.218   1.652
12160WAT     H236723   3.985   6.191   1.702
12161WAT      O36724   7.432   4.227   1.821
12161WAT     H136725   7.486   4.188   1.896
12161WAT     H236726   7.451   4.324   1.813
12162WAT      O36727   1.841   7.195   0.649
12162WAT     H136728   1.763   7.214   0.709
12162WAT     H236729   1.812   7.135   0.575
12163WAT      O36730   5.330   4.604   4.490
12163WAT     H136731   5.262   4.653   4.545
12163WAT     H236732   5.406   4.576   4.549
12164WAT      O36733   6.091   4.880   1.794
12164WAT     H136734   6.111   4.946   1.866
12164WAT     H236735   6.161   4.885   1.723
12165WAT      O36736   6.433   0.113   2.267
12165WAT     H136737   6.338   0.136   2.289
12165WAT     H236738   6.439   0.085   2.172
12166WAT      O36739   3.352   7.128   2.192
12166WAT     H136740   3.256   7.100   2.203
12166WAT     H236741   3.408   7.047   2.171
12167WAT      O36742   1.510   7.064   6.913
12167WAT     H136743   1.586   7.124   6.942
12167WAT     H236744   1.459   7.109   6.840
12168WAT      O36745   3.037   0.689   6.304
12168WAT     H136746   3.121   0.715   6.256
12168WAT     H236747   2.994   0.770   6.343
12169WAT      O36748   2.207   3.592   8.477
12169WAT     H136749   2.173   3.564   8.567
12169WAT     H236750   2.188   3.689   8.463
12170WAT      O36751   0.451   8.574   2.544
12170WAT     H136752   0.414   8.502   2.486
12170WAT     H236753   0.502   8.534   2.619
12171WAT      O36754   4.439   8.317   3.941
12171WAT     H136755   4.351   8.288   3.903
12171WAT     H236756   4.489   8.237   3.976
12172WAT      O36757   7.723   7.454   8.782
12172WAT     H136758   7.740   7.442   8.685
12172WAT     H236759   7.626   7.468   8.798
12173WAT      O36760   6.744   2.330   6.820
12173WAT     H136761   6.841   2.348   6.835
12173WAT     H236762   6.733   2.246   6.767
12174WAT      O36763   2.089   9.563   4.665
12174WAT     H136764   2.161   9.602   4.607
12174WAT     H236765   2.036   9.637   4.707
12175WAT      O36766   9.775   3.918   1.423
12175WAT     H136767   9.760   3.869   1.337
12175WAT     H236768   9.818   3.856   1.489
12176WAT      O36769   6.741   9.041   5.401
12176WAT     H136770   6.830   9.023   5.360
12176WAT     H236771   6.750   9.109   5.473
12177WAT      O36772   7.252   5.622   6.394
12177WAT     H136773   7.212   5.531   6.384
12177WAT     H236774   7.257   5.646   6.491
12178WAT      O36775   5.494   7.616   4.283
12178WAT     H136776   5.552   7.607   4.365
12178WAT     H236777   5.502   7.534   4.228
12179WAT      O36778   0.388   6.147   4.070
12179WAT     H136779   0.349   6.235   4.044
12179WAT     H236780   0.389   6.086   3.991
12180WAT      O36781   6.789   7.258   3.031
12180WAT     H136782   6.732   7.189   3.075
12180WAT     H236783   6.825   7.321   3.099
12181WAT      O36784   1.686   5.870   9.108
12181WAT     H136785   1.616   5.827   9.166
12181WAT     H236786   1.712   5.807   9.036
12182WAT      O36787   6.871   9.350   3.992
12182WAT     H136788   6.957   9.300   3.984
12182WAT     H236789   6.802   9.292   4.033
12183WAT      O36790   1.016   4.208   7.799
12183WAT     H136791   1.081   4.139   7.830
12183WAT     H236792   1.061   4.270   7.735
12184WAT      O36793   7.718   9.207   9.537
12184WAT     H136794   7.794   9.180   9.477
12184WAT     H236795   7.754   9.242   9.623
12185WAT      O36796   9.388   0.959   2.391
12185WAT     H136797   9.455   1.004   2.450
12185WAT     H236798   9.296   0.969   2.430
12186WAT      O36799   0.038   2.305   0.144
12186WAT     H136800   0.134   2.332   0.135
12186WAT     H236801  -0.015   2.384   0.175
12187WAT      O36802   2.309   5.560   7.173
12187WAT     H136803   2.380   5.625   7.200
12187WAT     H236804   2.324   5.473   7.220
12188WAT      O36805   2.017   4.915   5.368
12188WAT     H136806   2.115   4.934   5.382
12188WAT     H236807   1.985   4.966   5.288
12189WAT      O36808   6.401   9.502   9.309
12189WAT     H136809   6.330   9.433   9.299
12189WAT     H236810   6.487   9.467   9.273
12190WAT      O36811   8.909   3.957   2.429
12190WAT     H136812   8.841   3.943   2.502
12190WAT     H236813   8.911   3.877   2.370
12191WAT      O36814   4.953   7.990   0.352
12191WAT     H136815   4.969   7.920   0.282
12191WAT     H236816   4.974   8.080   0.314
12192WAT      O36817   6.393   1.809   0.940
12192WAT     H136818   6.462   1.757   0.990
12192WAT     H236819   6.418   1.906   0.938
12193WAT      O36820   9.393   1.389   2.965
12193WAT     H136821   9.434   1.475   2.997
12193WAT     H236822   9.312   1.410   2.911
12194WAT      O36823   4.627   7.649   5.290
12194WAT     H136824   4.582   7.563   5.316
12194WAT     H236825   4.607   7.719   5.359
12195WAT      O36826   7.124   7.304   8.272
12195WAT     H136827   7.088   7.365   8.342
12195WAT     H236828   7.215   7.335   8.243
12196WAT      O36829   5.834   9.268   0.014
12196WAT     H136830   5.740   9.283  -0.018
12196WAT     H236831   5.848   9.319   0.099
12197WAT      O36832   1.869   6.902   8.075
12197WAT     H136833   1.946   6.847   8.107
12197WAT     H236834   1.840   6.963   8.149
12198WAT      O36835   5.360   4.599   9.440
12198WAT     H136836   5.419   4.574   9.517
12198WAT     H236837   5.338   4.697   9.446
12199WAT      O36838   7.976   9.633   6.379
12199WAT     H136839   7.980   9.673   6.288
12199WAT     H236840   7.957   9.535   6.372
12200WAT      O36841   9.327   0.236   4.429
12200WAT     H136842   9.336   0.139   4.453
12200WAT     H236843   9.281   0.245   4.341
12201WAT      O36844   9.301   9.571   5.591
12201WAT     H136845   9.247   9.610   5.516
12201WAT     H236846   9.281   9.474   5.600
12202WAT      O36847   0.114   6.242   1.821
12202WAT     H136848   0.059   6.221   1.902
12202WAT     H236849   0.069   6.313   1.767
12203WAT      O36850   2.347   8.279   8.500
12203WAT     H136851   2.276   8.260   8.432
12203WAT     H236852   2.361   8.198   8.557
12204WAT      O36853   4.039   0.033   2.805
12204WAT     H136854   4.106  -0.041   2.810
12204WAT     H236855   3.962   0.004   2.747
12205WAT      O36856   3.939   7.715   8.347
12205WAT     H136857   4.020   7.762   8.383
12205WAT     H236858   3.898   7.770   8.275
12206WAT      O36859   3.100   9.262   6.314
12206WAT     H136860   3.053   9.348   6.296
12206WAT     H236861   3.131   9.260   6.409
12207WAT      O36862   1.368   8.555   9.217
12207WAT     H136863   1.308   8.571   9.295
12207WAT     H236864   1.320   8.579   9.132
12208WAT      O36865   2.588   9.563   3.881
12208WAT     H136866   2.610   9.655   3.914
12208WAT     H236867   2.590   9.499   3.958
12209WAT      O36868   2.193   4.756   5.656
12209WAT     H136869   2.124   4.745   5.728
12209WAT     H236870   2.152   4.801   5.577
12210WAT      O36871   2.812   7.922   6.334
12210WAT     H136872   2.848   7.832   6.356
12210WAT     H236873   2.747   7.915   6.259
12211WAT      O36874   6.101   4.814   9.329
12211WAT     H136875   6.086   4.807   9.231
12211WAT     H236876   6.077   4.906   9.361
12212WAT      O36877   7.359   5.037   1.230
12212WAT     H136878   7.321   5.042   1.137
12212WAT     H236879   7.457   5.057   1.227
12213WAT      O36880   7.705   9.139   8.042
12213WAT     H136881   7.606   9.149   8.040
12213WAT     H236882   7.733   9.104   8.131
12214WAT      O36883   2.663   7.566   3.713
12214WAT     H136884   2.577   7.570   3.661
12214WAT     H236885   2.740   7.571   3.649
12215WAT      O36886   6.719   4.079   7.982
12215WAT     H136887   6.773   4.163   7.980
12215WAT     H236888   6.774   4.003   7.949
12216WAT      O36889   7.551   6.419   3.772
12216WAT     H136890   7.533   6.482   3.696
12216WAT     H236891   7.507   6.453   3.855
12217WAT      O36892   6.052   1.350   4.148
12217WAT     H136893   5.993   1.270   4.159
12217WAT     H236894   6.119   1.351   4.222
12218WAT      O36895   0.913   7.865   9.844
12218WAT     H136896   0.966   7.875   9.760
12218WAT     H236897   0.816   7.883   9.826
12219WAT      O36898   7.351   9.646   4.098
12219WAT     H136899   7.253   9.665   4.087
12219WAT     H236900   7.399   9.731   4.123
12220WAT      O36901   4.712   0.922   8.114
12220WAT     H136902   4.632   0.877   8.154
12220WAT     H236903   4.703   0.925   8.015
12221WAT      O36904   7.737   0.555   3.164
12221WAT     H136905   7.763   0.565   3.068
12221WAT     H236906   7.818   0.565   3.222
12222WAT      O36907   7.961   0.958   8.529
12222WAT     H136908   7.969   0.861   8.505
12222WAT     H236909   8.026   1.011   8.475
12223WAT      O36910   8.408   4.723   7.655
12223WAT     H136911   8.491   4.674   7.629
12223WAT     H236912   8.352   4.739   7.573
12224WAT      O36913   6.342   0.136   6.510
12224WAT     H136914   6.247   0.162   6.492
12224WAT     H236915   6.345   0.041   6.542
12225WAT      O36916   0.393   1.742   7.468
12225WAT     H136917   0.468   1.760   7.403
12225WAT     H236918   0.428   1.688   7.544
12226WAT      O36919   2.339   1.117   1.258
12226WAT     H136920   2.407   1.172   1.305
12226WAT     H236921   2.384   1.042   1.210
12227WAT      O36922   8.339   9.182   3.746
12227WAT     H136923   8.358   9.229   3.833
12227WAT     H236924   8.259   9.123   3.756
12228WAT      O36925   6.240   0.501   5.478
12228WAT     H136926   6.301   0.440   5.528
12228WAT     H236927   6.193   0.562   5.542
12229WAT      O36928   3.672   3.225   5.598
12229WAT     H136929   3.728   3.143   5.605
12229WAT     H236930   3.576   3.200   5.592
12230WAT      O36931   6.195   0.387   8.925
12230WAT     H136932   6.216   0.390   9.022
12230WAT     H236933   6.113   0.331   8.910
12231WAT      O36934   5.101   4.679   3.892
12231WAT     H136935   5.050   4.597   3.864
12231WAT     H236936   5.160   4.708   3.816
12232WAT      O36937   5.752   5.483   1.343
12232WAT     H136938   5.690   5.406   1.326
12232WAT     H236939   5.759   5.497   1.442
12233WAT      O36940   4.188   4.773   8.608
12233WAT     H136941   4.279   4.793   8.644
12233WAT     H236942   4.133   4.856   8.609
12234WAT      O36943   9.083   6.163   5.154
12234WAT     H136944   9.094   6.110   5.070
12234WAT     H236945   9.163   6.150   5.213
12235WAT      O36946   3.357   2.729   7.728
12235WAT     H136947   3.336   2.666   7.803
12235WAT     H236948   3.456   2.745   7.725
12236WAT      O36949   2.977   7.374   6.408
12236WAT     H136950   3.008   7.287   6.447
12236WAT     H236951   2.920   7.422   6.474
12237WAT      O36952   9.805   3.113   2.955
12237WAT     H136953   9.750   3.124   2.872
12237WAT     H236954   9.882   3.052   2.936
12238WAT      O36955   7.610   2.380   0.778
12238WAT     H136956   7.583   2.385   0.681
12238WAT     H236957   7.638   2.471   0.809
12239WAT      O36958   4.932   5.254   6.093
12239WAT     H136959   5.020   5.278   6.136
12239WAT     H236960   4.872   5.213   6.162
12240WAT      O36961   5.508   8.888   3.615
12240WAT     H136962   5.530   8.969   3.561
12240WAT     H236963   5.558   8.809   3.579
12241WAT      O36964   1.592   7.086   8.919
12241WAT     H136965   1.680   7.123   8.890
12241WAT     H236966   1.600   6.987   8.930
12242WAT      O36967   4.642   1.827   4.929
12242WAT     H136968   4.595   1.760   4.872
12242WAT     H236969   4.682   1.898   4.870
12243WAT      O36970   8.657   9.284   7.402
12243WAT     H136971   8.678   9.300   7.498
12243WAT     H236972   8.603   9.201   7.392
12244WAT      O36973   5.438   2.588   9.397
12244WAT     H136974   5.508   2.584   9.326
12244WAT     H236975   5.373   2.513   9.386
12245WAT      O36976   3.794   2.276   9.424
12245WAT     H136977   3.883   2.256   9.464
12245WAT     H236978   3.728   2.206   9.452
12246WAT      O36979   7.341   9.281   3.669
12246WAT     H136980   7.322   9.337   3.750
12246WAT     H236981   7.330   9.336   3.586
12247WAT      O36982   5.143   9.756   6.458
12247WAT     H136983   5.112   9.784   6.550
12247WAT     H236984   5.066   9.713   6.410
12248WAT      O36985   9.424   1.941   5.049
12248WAT     H136986   9.455   2.017   4.992
12248WAT     H236987   9.370   1.976   5.125
12249WAT      O36988   3.941   1.189   5.133
12249WAT     H136989   3.917   1.252   5.207
12249WAT     H236990   3.953   1.097   5.171
12250WAT      O36991   3.434   4.926   1.592
12250WAT     H136992   3.352   4.944   1.538
12250WAT     H236993   3.430   4.977   1.678
12251WAT      O36994   6.368   8.211   0.111
12251WAT     H136995   6.461   8.213   0.073
12251WAT     H236996   6.328   8.121   0.096
12252WAT      O36997   7.117   6.937   7.577
12252WAT     H136998   7.209   6.973   7.564
12252WAT     H236999   7.097   6.931   7.675
12253WAT      O37000   6.857   2.036   3.456
12253WAT     H137001   6.920   2.109   3.429
12253WAT     H237002   6.900   1.979   3.526
12254WAT      O37003   7.830   3.256   0.984
12254WAT     H137004   7.814   3.236   1.080
12254WAT     H237005   7.924   3.285   0.971
12255WAT      O37006   2.009   1.626   1.593
12255WAT     H137007   2.047   1.713   1.562
12255WAT     H237008   1.914   1.640   1.621
12256WAT      O37009   9.064   3.192   7.390
12256WAT     H137010   8.991   3.260   7.383
12256WAT     H237011   9.080   3.169   7.486
12257WAT      O37012   3.132   3.483   1.456
12257WAT     H137013   3.195   3.501   1.381
12257WAT     H237014   3.053   3.544   1.448
12258WAT      O37015   5.093   4.280   8.485
12258WAT     H137016   5.063   4.340   8.411
12258WAT     H237017   5.020   4.216   8.508
12259WAT      O37018   0.506   0.759   8.227
12259WAT     H137019   0.418   0.804   8.240
12259WAT     H237020   0.573   0.825   8.193
12260WAT      O37021   5.100   4.777   8.937
12260WAT     H137022   5.143   4.703   8.886
12260WAT     H237023   5.161   4.857   8.937
12261WAT      O37024   7.629   2.506   4.873
12261WAT     H137025   7.600   2.411   4.861
12261WAT     H237026   7.724   2.508   4.903
12262WAT      O37027   9.286   6.693   3.160
12262WAT     H137028   9.301   6.625   3.088
12262WAT     H237029   9.220   6.761   3.128
12263WAT      O37030   0.090   6.061   9.478
12263WAT     H137031   0.074   5.975   9.527
12263WAT     H237032   0.145   6.044   9.397
12264WAT      O37033   8.256   6.772   8.494
12264WAT     H137034   8.256   6.701   8.565
12264WAT     H237035   8.344   6.820   8.495
12265WAT      O37036   6.890   2.187   6.378
12265WAT     H137037   6.938   2.187   6.290
12265WAT     H237038   6.839   2.101   6.388
12266WAT      O37039   0.872   9.319   1.305
12266WAT     H137040   0.783   9.285   1.335
12266WAT     H237041   0.897   9.400   1.359
12267WAT      O37042   6.944   3.300   5.660
12267WAT     H137043   6.876   3.322   5.590
12267WAT     H237044   6.904   3.312   5.751
12268WAT      O37045   8.960   4.118   0.533
12268WAT     H137046   9.017   4.196   0.507
12268WAT     H237047   9.018   4.044   0.567
12269WAT      O37048   4.502   4.350   9.677
12269WAT     H137049   4.524   4.258   9.645
12269WAT     H237050   4.494   4.412   9.599
12270WAT      O37051   0.036   5.964   5.883
12270WAT     H137052  -0.050   5.932   5.843
12270WAT     H237053   0.019   6.048   5.935
12271WAT      O37054   7.697   9.590   8.656
12271WAT     H137055   7.684   9.491   8.667
12271WAT     H237056   7.681   9.616   8.561
12272WAT      O37057   1.220   4.364   3.361
12272WAT     H137058   1.131   4.410   3.366
12272WAT     H237059   1.293   4.432   3.370
12273WAT      O37060   1.668   0.781   5.444
12273WAT     H137061   1.589   0.808   5.498
12273WAT     H237062   1.732   0.730   5.501
12274WAT      O37063   1.362   6.710   3.689
12274WAT     H137064   1.403   6.709   3.780
12274WAT     H237065   1.388   6.627   3.640
12275WAT      O37066   4.868   2.997   1.453
12275WAT     H137067   4.876   2.903   1.488
12275WAT     H237068   4.773   3.012   1.424
12276WAT      O37069   5.677   7.668   9.156
12276WAT     H137070   5.597   7.726   9.141
12276WAT     H237071   5.668   7.620   9.243
12277WAT      O37072   0.831   0.951   6.024
12277WAT     H137073   0.905   0.913   6.080
12277WAT     H237074   0.818   1.047   6.047
12278WAT      O37075   4.980   3.367   9.293
12278WAT     H137076   5.015   3.458   9.315
12278WAT     H237077   4.891   3.376   9.249
12279WAT      O37078   7.196   1.270   0.849
12279WAT     H137079   7.226   1.175   0.841
12279WAT     H237080   7.234   1.309   0.933
12280WAT      O37081   7.451   5.763   2.093
12280WAT     H137082   7.398   5.746   2.177
12280WAT     H237083   7.430   5.853   2.057
12281WAT      O37084   8.945   7.329   3.175
12281WAT     H137085   8.905   7.396   3.112
12281WAT     H237086   9.005   7.375   3.240
12282WAT      O37087   4.890   5.121   5.865
12282WAT     H137088   4.857   5.173   5.787
12282WAT     H237089   4.896   5.181   5.945
12283WAT      O37090   2.005   6.054   8.645
12283WAT     H137091   1.933   6.094   8.589
12283WAT     H237092   1.999   6.090   8.738
12284WAT      O37093   3.507   1.328   2.440
12284WAT     H137094   3.410   1.309   2.455
12284WAT     H237095   3.551   1.351   2.527
12285WAT      O37096   1.035   5.212   3.524
12285WAT     H137097   0.938   5.215   3.503
12285WAT     H237098   1.081   5.290   3.481
12286WAT      O37099   7.082   5.652   0.596
12286WAT     H137100   7.154   5.633   0.530
12286WAT     H237101   7.010   5.582   0.588
12287WAT      O37102   0.001   4.423   2.621
12287WAT     H137103   0.039   4.385   2.536
12287WAT     H237104   0.027   4.365   2.698
12288WAT      O37105   2.400   0.669   0.631
12288WAT     H137106   2.316   0.625   0.600
12288WAT     H237107   2.453   0.699   0.552
12289WAT      O37108   9.039   2.109   2.715
12289WAT     H137109   9.079   2.201   2.715
12289WAT     H237110   9.111   2.042   2.732
12290WAT      O37111   7.439   0.017   2.926
12290WAT     H137112   7.518   0.028   2.986
12290WAT     H237113   7.361  -0.017   2.978
12291WAT      O37114   5.222   3.122   1.817
12291WAT     H137115   5.212   3.212   1.773
12291WAT     H237116   5.166   3.055   1.768
12292WAT      O37117   5.435   2.992   4.625
12292WAT     H137118   5.341   3.020   4.647
12292WAT     H237119   5.490   3.073   4.605
12293WAT      O37120   7.453   4.928   1.946
12293WAT     H137121   7.411   4.840   1.923
12293WAT     H237122   7.412   4.965   2.029
12294WAT      O37123   3.322   7.015   1.774
12294WAT     H137124   3.251   7.076   1.810
12294WAT     H237125   3.410   7.040   1.813
12295WAT      O37126   7.273   2.480   6.046
12295WAT     H137127   7.285   2.434   5.958
12295WAT     H237128   7.277   2.579   6.032
12296WAT      O37129   7.395   6.009   6.354
12296WAT     H137130   7.493   5.991   6.361
12296WAT     H237131   7.355   5.950   6.284
12297WAT      O37132   1.240   6.756   3.254
12297WAT     H137133   1.293   6.834   3.219
12297WAT     H237134   1.290   6.671   3.236
12298WAT      O37135   4.785   5.185   8.818
12298WAT     H137136   4.822   5.093   8.805
12298WAT     H237137   4.757   5.223   8.730
12299WAT      O37138   7.668   0.852   2.313
12299WAT     H137139   7.622   0.764   2.299
12299WAT     H237140   7.702   0.886   2.225
12300WAT      O37141   0.103   0.270   1.893
12300WAT     H137142   0.083   0.204   1.966
12300WAT     H237143   0.032   0.341   1.892
12301WAT      O37144   7.417   3.285   0.216
12301WAT     H137145   7.455   3.317   0.129
12301WAT     H237146   7.388   3.190   0.206
12302WAT      O37147   8.449   2.876   9.182
12302WAT     H137148   8.371   2.844   9.128
12302WAT     H237149   8.531   2.875   9.124
12303WAT      O37150   4.379   5.133   3.309
12303WAT     H137151   4.300   5.100   3.257
12303WAT     H237152   4.453   5.157   3.245
12304WAT      O37153   9.645   1.012   7.627
12304WAT     H137154   9.716   1.044   7.564
12304WAT     H237155   9.558   1.058   7.606
12305WAT      O37156   5.209   2.372   4.137
12305WAT     H137157   5.167   2.397   4.224
12305WAT     H237158   5.138   2.364   4.067
12306WAT      O37159   6.749   2.209   4.503
12306WAT     H137160   6.717   2.115   4.492
12306WAT     H237161   6.796   2.239   4.420
12307WAT      O37162   0.418   1.866   6.077
12307WAT     H137163   0.331   1.908   6.050
12307WAT     H237164   0.462   1.922   6.147
12308WAT      O37165   6.254   9.296   9.253
12308WAT     H137166   6.289   9.240   9.178
12308WAT     H237167   6.173   9.252   9.293
12309WAT      O37168   3.030   8.616   8.311
12309WAT     H137169   3.074   8.546   8.255
12309WAT     H237170   3.036   8.591   8.407
12310WAT      O37171   5.298   2.043   8.251
12310WAT     H137172   5.319   2.037   8.154
12310WAT     H237173   5.371   1.998   8.304
12311WAT      O37174   4.533   0.354   6.722
12311WAT     H137175   4.579   0.407   6.650
12311WAT     H237176   4.526   0.259   6.694
12312WAT      O37177   0.176   1.439   2.092
12312WAT     H137178   0.233   1.465   2.015
12312WAT     H237179   0.217   1.472   2.177
12313WAT      O37180   7.769   6.263   4.068
12313WAT     H137181   7.852   6.223   4.029
12313WAT     H237182   7.785   6.291   4.162
12314WAT      O37183   8.322   2.359   1.917
12314WAT     H137184   8.246   2.402   1.870
12314WAT     H237185   8.366   2.425   1.979
12315WAT      O37186   7.782   4.336   4.895
12315WAT     H137187   7.787   4.436   4.892
12315WAT     H237188   7.758   4.307   4.988
12316WAT      O37189   4.950   7.369   8.440
12316WAT     H137190   4.876   7.399   8.500
12316WAT     H237191   4.976   7.275   8.464
12317WAT      O37192   7.424   4.479   5.167
12317WAT     H137193   7.389   4.389   5.141
12317WAT     H237194   7.511   4.468   5.215
12318WAT      O37195   1.637   4.130   5.063
12318WAT     H137196   1.732   4.126   5.092
12318WAT     H237197   1.622   4.067   4.987
12319WAT      O37198   4.728   1.763   3.677
12319WAT     H137199   4.787   1.805   3.747
12319WAT     H237200   4.642   1.813   3.671
12320WAT      O37201   5.822   1.167   8.929
12320WAT     H137202   5.867   1.213   9.005
12320WAT     H237203   5.888   1.110   8.880
12321WAT      O37204   8.125   5.296   7.034
12321WAT     H137205   8.106   5.222   7.099
12321WAT     H237206   8.096   5.383   7.074
12322WAT      O37207   5.973   9.027   0.432
12322WAT     H137208   5.915   8.984   0.363
12322WAT     H237209   5.922   9.099   0.479
12323WAT      O37210   5.327   8.459   1.982
12323WAT     H137211   5.396   8.523   2.015
12323WAT     H237212   5.329   8.376   2.038
12324WAT      O37213   4.576   9.097   8.650
12324WAT     H137214   4.583   9.003   8.684
12324WAT     H237215   4.622   9.104   8.562
12325WAT      O37216   7.691   2.863   8.009
12325WAT     H137217   7.738   2.863   8.097
12325WAT     H237218   7.752   2.827   7.938
12326WAT      O37219   0.538   8.434   7.828
12326WAT     H137220   0.453   8.477   7.798
12326WAT     H237221   0.559   8.463   7.921
12327WAT      O37222   3.926   5.335   6.443
12327WAT     H137223   4.024   5.358   6.439
12327WAT     H237224   3.876   5.409   6.486
12328WAT      O37225   8.009   2.879   2.754
12328WAT     H137226   8.001   2.947   2.680
12328WAT     H237227   8.070   2.806   2.726
12329WAT      O37228   3.541   9.329   7.001
12329WAT     H137229   3.442   9.325   7.013
12329WAT     H237230   3.566   9.295   6.911
12330WAT      O37231   8.194   4.844   8.335
12330WAT     H137232   8.283   4.802   8.351
12330WAT     H237233   8.159   4.881   8.421
12331WAT      O37234   8.523   6.211   1.287
12331WAT     H137235   8.424   6.215   1.283
12331WAT     H237236   8.560   6.303   1.297
12332WAT      O37237   8.070   0.127   8.321
12332WAT     H137238   8.050   0.105   8.416
12332WAT     H237239   8.134   0.203   8.317
12333WAT      O37240   6.092   9.551   0.473
12333WAT     H137241   6.041   9.570   0.557
12333WAT     H237242   6.109   9.452   0.466
12334WAT      O37243   7.188   1.887   6.926
12334WAT     H137244   7.135   1.853   6.848
12334WAT     H237245   7.237   1.969   6.900
12335WAT      O37246   8.104   6.586   2.638
12335WAT     H137247   8.126   6.586   2.735
12335WAT     H237248   8.155   6.658   2.591
12336WAT      O37249   8.439   8.683   1.571
12336WAT     H137250   8.372   8.670   1.498
12336WAT     H237251   8.396   8.665   1.659
12337WAT      O37252   0.921   7.589   4.828
12337WAT     H137253   0.985   7.644   4.881
12337WAT     H237254   0.844   7.562   4.886
12338WAT      O37255   2.501   8.037   5.221
12338WAT     H137256   2.557   7.958   5.197
12338WAT     H237257   2.529   8.115   5.165
12339WAT      O37258   3.821   2.769   7.920
12339WAT     H137259   3.800   2.748   8.016
12339WAT     H237260   3.920   2.763   7.906
12340WAT      O37261   4.168   2.913   7.187
12340WAT     H137262   4.088   2.857   7.165
12340WAT     H237263   4.183   2.979   7.113
12341WAT      O37264   4.210   5.866   5.854
12341WAT     H137265   4.296   5.918   5.854
12341WAT     H237266   4.184   5.844   5.760
12342WAT      O37267   0.838   0.682   3.082
12342WAT     H137268   0.748   0.674   3.040
12342WAT     H237269   0.890   0.597   3.067
12343WAT      O37270   1.032   6.042   9.470
12343WAT     H137271   1.005   5.966   9.530
12343WAT     H237272   1.111   6.089   9.509
12344WAT      O37273   2.431   1.942   4.182
12344WAT     H137274   2.471   1.861   4.224
12344WAT     H237275   2.480   1.965   4.099
12345WAT      O37276   6.621   3.467   4.094
12345WAT     H137277   6.615   3.566   4.078
12345WAT     H237278   6.592   3.447   4.187
12346WAT      O37279   9.553   0.795   3.625
12346WAT     H137280   9.623   0.840   3.680
12346WAT     H237281   9.597   0.742   3.552
12347WAT      O37282   9.088   9.106   2.770
12347WAT     H137283   9.070   9.008   2.772
12347WAT     H237284   9.010   9.155   2.809
12348WAT      O37285   1.812   8.778   5.733
12348WAT     H137286   1.834   8.876   5.734
12348WAT     H237287   1.844   8.736   5.818
12349WAT      O37288   1.345   1.519   6.432
12349WAT     H137289   1.429   1.469   6.455
12349WAT     H237290   1.301   1.475   6.354
12350WAT      O37291   2.574   4.833   7.478
12350WAT     H137292   2.662   4.785   7.474
12350WAT     H237293   2.501   4.767   7.497
12351WAT      O37294   4.870   9.420   3.152
12351WAT     H137295   4.915   9.453   3.235
12351WAT     H237296   4.775   9.396   3.173
12352WAT      O37297   8.968   0.780   6.961
12352WAT     H137298   9.004   0.735   7.042
12352WAT     H237299   9.035   0.845   6.926
12353WAT      O37300   7.853   4.622   1.288
12353WAT     H137301   7.805   4.649   1.204
12353WAT     H237302   7.890   4.703   1.333
12354WAT      O37303   6.926   7.540   8.725
12354WAT     H137304   6.951   7.635   8.710
12354WAT     H237305   6.858   7.535   8.798
12355WAT      O37306   1.879   2.474   1.738
12355WAT     H137307   1.823   2.497   1.658
12355WAT     H237308   1.918   2.558   1.776
12356WAT      O37309   2.768   7.343   9.242
12356WAT     H137310   2.742   7.407   9.169
12356WAT     H237311   2.685   7.314   9.291
12357WAT      O37312   2.905   1.963   5.274
12357WAT     H137313   2.990   1.997   5.313
12357WAT     H237314   2.827   1.996   5.329
12358WAT      O37315   8.525   4.388   3.171
12358WAT     H137316   8.581   4.470   3.181
12358WAT     H237317   8.585   4.309   3.156
12359WAT      O37318   6.877   6.955   6.849
12359WAT     H137319   6.893   6.888   6.776
12359WAT     H237320   6.892   6.911   6.938
12360WAT      O37321   4.058   4.011   7.743
12360WAT     H137322   4.026   3.942   7.808
12360WAT     H237323   4.112   3.966   7.671
12361WAT      O37324   3.756   8.953   1.488
12361WAT     H137325   3.855   8.943   1.479
12361WAT     H237326   3.735   8.999   1.575
12362WAT      O37327   5.011   6.899   2.769
12362WAT     H137328   5.000   6.823   2.833
12362WAT     H237329   5.091   6.952   2.795
12363WAT      O37330   4.854   3.639   0.119
12363WAT     H137331   4.953   3.648   0.131
12363WAT     H237332   4.807   3.680   0.197
12364WAT      O37333   8.060   0.660   6.659
12364WAT     H137334   8.025   0.623   6.746
12364WAT     H237335   7.992   0.647   6.588
12365WAT      O37336   5.062   2.452   0.500
12365WAT     H137337   5.034   2.366   0.456
12365WAT     H237338   5.039   2.529   0.441
12366WAT      O37339   6.078   0.302   0.442
12366WAT     H137340   6.166   0.335   0.475
12366WAT     H237341   6.007   0.369   0.464
12367WAT      O37342   8.898   4.209   8.383
12367WAT     H137343   8.838   4.129   8.389
12367WAT     H237344   8.985   4.189   8.428
12368WAT      O37345   8.451   1.095   0.931
12368WAT     H137346   8.360   1.066   0.902
12368WAT     H237347   8.507   1.112   0.850
12369WAT      O37348   4.669   8.562   3.954
12369WAT     H137349   4.735   8.606   3.894
12369WAT     H237350   4.633   8.480   3.910
12370WAT      O37351   2.503   5.759   8.813
12370WAT     H137352   2.479   5.719   8.724
12370WAT     H237353   2.602   5.772   8.818
12371WAT      O37354   1.914   4.603   8.724
12371WAT     H137355   2.009   4.623   8.749
12371WAT     H237356   1.878   4.678   8.668
12372WAT      O37357   0.641   9.086   8.027
12372WAT     H137358   0.556   9.132   8.052
12372WAT     H237359   0.629   8.987   8.034
12373WAT      O37360   7.462   8.208   6.858
12373WAT     H137361   7.416   8.208   6.947
12373WAT     H237362   7.545   8.264   6.864
12374WAT      O37363   7.250   0.251   0.416
12374WAT     H137364   7.250   0.306   0.332
12374WAT     H237365   7.343   0.242   0.451
12375WAT      O37366   5.720   0.314   5.241
12375WAT     H137367   5.819   0.317   5.228
12375WAT     H237368   5.696   0.345   5.333
12376WAT      O37369   6.256   7.650   4.634
12376WAT     H137370   6.205   7.708   4.698
12376WAT     H237371   6.354   7.663   4.648
12377WAT      O37372   0.692   7.024   4.876
12377WAT     H137373   0.634   6.993   4.952
12377WAT     H237374   0.642   7.017   4.790
12378WAT      O37375   4.565   7.151   9.745
12378WAT     H137376   4.567   7.095   9.828
12378WAT     H237377   4.535   7.095   9.668
12379WAT      O37378   2.415   4.007   7.414
12379WAT     H137379   2.341   4.041   7.357
12379WAT     H237380   2.390   4.018   7.511
12380WAT      O37381   7.820   1.586   4.897
12380WAT     H137382   7.781   1.607   4.807
12380WAT     H237383   7.748   1.588   4.966
12381WAT      O37384   7.808   8.675   2.962
12381WAT     H137385   7.817   8.746   2.892
12381WAT     H237386   7.843   8.709   3.049
12382WAT      O37387   3.017   8.478   2.822
12382WAT     H137388   3.070   8.395   2.805
12382WAT     H237389   3.079   8.556   2.828
12383WAT      O37390   4.799   0.876   4.977
12383WAT     H137391   4.761   0.838   4.893
12383WAT     H237392   4.857   0.809   5.022
12384WAT      O37393   2.331   4.172   4.522
12384WAT     H137394   2.299   4.078   4.531
12384WAT     H237395   2.395   4.193   4.596
12385WAT      O37396   5.878   7.252   0.777
12385WAT     H137397   5.878   7.303   0.691
12385WAT     H237398   5.970   7.255   0.818
12386WAT      O37399   1.411   2.749   6.530
12386WAT     H137400   1.423   2.666   6.476
12386WAT     H237401   1.490   2.809   6.519
12387WAT      O37402   3.269   6.970   4.428
12387WAT     H137403   3.342   6.993   4.492
12387WAT     H237404   3.236   7.054   4.384
12388WAT      O37405   2.602   9.435   8.337
12388WAT     H137406   2.633   9.487   8.416
12388WAT     H237407   2.677   9.380   8.301
12389WAT      O37408   3.659   3.305   0.624
12389WAT     H137409   3.650   3.294   0.723
12389WAT     H237410   3.672   3.215   0.582
12390WAT      O37411   2.517   9.026   3.214
12390WAT     H137412   2.454   9.040   3.137
12390WAT     H237413   2.589   9.096   3.211
12391WAT      O37414   0.304   8.935   9.781
12391WAT     H137415   0.207   8.915   9.794
12391WAT     H237416   0.329   8.918   9.686
12392WAT      O37417   2.754   5.885   9.288
12392WAT     H137418   2.752   5.795   9.330
12392WAT     H237419   2.737   5.877   9.190
12393WAT      O37420   2.165   5.349   5.543
12393WAT     H137421   2.224   5.416   5.499
12393WAT     H237422   2.073   5.355   5.504
12394WAT      O37423   1.678   2.051   9.042
12394WAT     H137424   1.675   2.105   8.957
12394WAT     H237425   1.768   2.063   9.085
12395WAT      O37426   2.906   6.308   3.962
12395WAT     H137427   2.845   6.244   3.916
12395WAT     H237428   2.946   6.264   4.043
12396WAT      O37429   0.454   5.208   4.501
12396WAT     H137430   0.421   5.194   4.408
12396WAT     H237431   0.449   5.121   4.551
12397WAT      O37432   8.372   5.215   6.998
12397WAT     H137433   8.423   5.209   7.084
12397WAT     H237434   8.275   5.229   7.017
12398WAT      O37435   1.397   0.338   6.646
12398WAT     H137436   1.326   0.270   6.664
12398WAT     H237437   1.355   0.422   6.611
12399WAT      O37438   4.735   2.005   8.814
12399WAT     H137439   4.666   1.976   8.880
12399WAT     H237440   4.698   2.000   8.721
12400WAT      O37441   4.428   3.586   4.919
12400WAT     H137442   4.368   3.543   4.852
12400WAT     H237443   4.374   3.646   4.979
12401WAT      O37444   2.094   6.378   0.721
12401WAT     H137445   2.177   6.348   0.673
12401WAT     H237446   2.041   6.297   0.749
12402WAT      O37447   1.372   8.147   5.509
12402WAT     H137448   1.422   8.223   5.466
12402WAT     H237449   1.295   8.183   5.561
12403WAT      O37450   5.392   8.868   8.828
12403WAT     H137451   5.374   8.964   8.809
12403WAT     H237452   5.476   8.860   8.881
12404WAT      O37453   2.486   6.030   0.250
12404WAT     H137454   2.407   5.974   0.272
12404WAT     H237455   2.565   5.971   0.232
12405WAT      O37456   3.805   5.048   5.536
12405WAT     H137457   3.750   5.132   5.541
12405WAT     H237458   3.837   5.035   5.442
12406WAT      O37459   1.437   4.602   4.239
12406WAT     H137460   1.412   4.678   4.179
12406WAT     H237461   1.398   4.616   4.330
12407WAT      O37462   1.381   7.233   7.141
12407WAT     H137463   1.463   7.199   7.095
12407WAT     H237464   1.407   7.300   7.211
12408WAT      O37465   2.149   7.909   2.471
12408WAT     H137466   2.110   7.944   2.557
12408WAT     H237467   2.126   7.972   2.397
12409WAT      O37468   3.747   6.678   5.370
12409WAT     H137469   3.734   6.759   5.427
12409WAT     H237470   3.843   6.648   5.377
12410WAT      O37471   3.470   0.239   0.364
12410WAT     H137472   3.562   0.201   0.364
12410WAT     H237473   3.456   0.293   0.281
12411WAT      O37474   8.646   1.866   9.380
12411WAT     H137475   8.588   1.926   9.326
12411WAT     H237476   8.653   1.776   9.336
12412WAT      O37477   1.129   8.322   1.563
12412WAT     H137478   1.099   8.397   1.505
12412WAT     H237479   1.169   8.359   1.647
12413WAT      O37480   8.199   4.071   9.310
12413WAT     H137481   8.274   4.137   9.319
12413WAT     H237482   8.231   3.981   9.340
12414WAT      O37483   9.752   6.702   5.297
12414WAT     H137484   9.796   6.788   5.320
12414WAT     H237485   9.788   6.668   5.211
12415WAT      O37486   4.194   3.865   7.520
12415WAT     H137487   4.247   3.786   7.491
12415WAT     H237488   4.255   3.944   7.529
12416WAT      O37489   3.523   8.750   5.529
12416WAT     H137490   3.562   8.833   5.491
12416WAT     H237491   3.439   8.772   5.578
12417WAT      O37492   3.877   8.891   2.933
12417WAT     H137493   3.889   8.820   2.863
12417WAT     H237494   3.964   8.911   2.976
12418WAT      O37495   6.692   7.936   6.795
12418WAT     H137496   6.593   7.943   6.800
12418WAT     H237497   6.720   7.840   6.802
12419WAT      O37498   6.946   1.888   8.522
12419WAT     H137499   6.960   1.877   8.620
12419WAT     H237500   6.879   1.961   8.505
12420WAT      O37501   9.752   7.243   4.313
12420WAT     H137502   9.732   7.148   4.292
12420WAT     H237503   9.718   7.302   4.239
12421WAT      O37504   7.768   8.710   2.196
12421WAT     H137505   7.803   8.683   2.286
12421WAT     H237506   7.779   8.634   2.132
12422WAT      O37507   8.356   1.583   9.352
12422WAT     H137508   8.278   1.553   9.296
12422WAT     H237509   8.323   1.644   9.424
12423WAT      O37510   8.030   7.073   3.293
12423WAT     H137511   8.041   7.171   3.274
12423WAT     H237512   8.082   7.049   3.375
12424WAT      O37513   2.869   3.607   3.440
12424WAT     H137514   2.959   3.570   3.463
12424WAT     H237515   2.825   3.548   3.372
12425WAT      O37516   8.226   8.928   1.030
12425WAT     H137517   8.149   8.986   1.005
12425WAT     H237518   8.194   8.834   1.042
12426WAT      O37519   5.352   6.781   9.452
12426WAT     H137520   5.369   6.723   9.372
12426WAT     H237521   5.315   6.868   9.422
12427WAT      O37522   5.188   2.333   7.842
12427WAT     H137523   5.200   2.383   7.757
12427WAT     H237524   5.128   2.255   7.827
12428WAT      O37525   4.219   7.179   6.352
12428WAT     H137526   4.161   7.243   6.302
12428WAT     H237527   4.233   7.097   6.296
12429WAT      O37528   2.839   2.608   1.076
12429WAT     H137529   2.764   2.577   1.017
12429WAT     H237530   2.879   2.530   1.124
12430WAT      O37531   1.757   4.497   4.818
12430WAT     H137532   1.829   4.493   4.888
12430WAT     H237533   1.799   4.497   4.727
12431WAT      O37534   8.585   9.560   1.012
12431WAT     H137535   8.647   9.498   1.060
12431WAT     H237536   8.593   9.652   1.050
12432WAT      O37537   0.595   3.704   4.500
12432WAT     H137538   0.645   3.722   4.585
12432WAT     H237539   0.650   3.734   4.422
12433WAT      O37540   3.037   4.776   9.530
12433WAT     H137541   2.997   4.863   9.560
12433WAT     H237542   3.018   4.705   9.598
12434WAT      O37543   6.094   4.555   4.077
12434WAT     H137544   6.174   4.614   4.075
12434WAT     H237545   6.030   4.583   4.004
12435WAT      O37546   9.265   5.018   6.065
12435WAT     H137547   9.188   5.042   6.124
12435WAT     H237548   9.348   5.063   6.098
12436WAT      O37549   4.240   4.473   5.432
12436WAT     H137550   4.316   4.474   5.368
12436WAT     H237551   4.272   4.497   5.523
12437WAT      O37552   6.375   3.230   5.467
12437WAT     H137553   6.381   3.324   5.502
12437WAT     H237554   6.399   3.166   5.540
12438WAT      O37555   4.806   8.842   1.407
12438WAT     H137556   4.852   8.762   1.446
12438WAT     H237557   4.870   8.890   1.346
12439WAT      O37558   9.648   3.125   3.179
12439WAT     H137559   9.650   3.030   3.209
12439WAT     H237560   9.704   3.135   3.097
12440WAT      O37561   8.459   4.457   2.449
12440WAT     H137562   8.534   4.422   2.394
12440WAT     H237563   8.408   4.381   2.488
12441WAT      O37564   8.629   5.623   7.522
12441WAT     H137565   8.603   5.565   7.444
12441WAT     H237566   8.601   5.717   7.505
12442WAT      O37567   6.810   4.446   5.757
12442WAT     H137568   6.791   4.490   5.844
12442WAT     H237569   6.728   4.397   5.725
12443WAT      O37570   8.118   8.024   3.311
12443WAT     H137571   8.088   8.118   3.325
12443WAT     H237572   8.100   7.997   3.216
12444WAT      O37573   6.172   4.933   4.612
12444WAT     H137574   6.209   5.011   4.560
12444WAT     H237575   6.191   4.946   4.709
12445WAT      O37576   4.298   5.339   5.589
12445WAT     H137577   4.298   5.313   5.492
12445WAT     H237578   4.302   5.256   5.646
12446WAT      O37579   4.055   0.858   2.730
12446WAT     H137580   4.012   0.891   2.646
12446WAT     H237581   4.144   0.817   2.708
12447WAT      O37582   7.391   7.504   3.849
12447WAT     H137583   7.384   7.404   3.841
12447WAT     H237584   7.305   7.546   3.821
12448WAT      O37585   9.244   9.322   1.086
12448WAT     H137586   9.323   9.261   1.089
12448WAT     H237587   9.231   9.364   1.176
12449WAT      O37588   8.490   4.972   0.773
12449WAT     H137589   8.427   5.032   0.723
12449WAT     H237590   8.442   4.931   0.851
12450WAT      O37591   4.942   1.280   0.871
12450WAT     H137592   5.009   1.230   0.816
12450WAT     H237593   4.900   1.352   0.815
12451WAT      O37594   5.332   1.515   7.217
12451WAT     H137595   5.421   1.553   7.192
12451WAT     H237596   5.329   1.418   7.193
12452WAT      O37597   7.998   3.039   5.251
12452WAT     H137598   8.079   3.076   5.206
12452WAT     H237599   7.971   3.100   5.326
12453WAT      O37600   9.637   0.806   8.906
12453WAT     H137601   9.657   0.892   8.859
12453WAT     H237602   9.656   0.817   9.004
12454WAT      O37603   6.257   7.208   2.940
12454WAT     H137604   6.216   7.273   3.004
12454WAT     H237605   6.187   7.143   2.909
12455WAT      O37606   5.213   5.458   5.207
12455WAT     H137607   5.245   5.442   5.301
12455WAT     H237608   5.274   5.412   5.143
12456WAT      O37609   3.087   1.507   4.056
12456WAT     H137610   3.100   1.604   4.077
12456WAT     H237611   3.176   1.465   4.038
12457WAT      O37612   2.734   1.253   3.812
12457WAT     H137613   2.789   1.336   3.824
12457WAT     H237614   2.645   1.277   3.774
12458WAT      O37615   8.771   2.257   3.814
12458WAT     H137616   8.816   2.243   3.902
12458WAT     H237617   8.823   2.324   3.761
12459WAT      O37618   3.019   3.029   1.206
12459WAT     H137619   2.982   2.938   1.226
12459WAT     H237620   2.970   3.097   1.260
12460WAT      O37621   4.012   7.018   8.566
12460WAT     H137622   4.031   7.041   8.662
12460WAT     H237623   3.990   7.101   8.515
12461WAT      O37624   2.914   1.940   4.926
12461WAT     H137625   2.997   1.965   4.977
12461WAT     H237626   2.846   2.013   4.936
12462WAT      O37627   4.433   2.853   3.364
12462WAT     H137628   4.512   2.792   3.362
12462WAT     H237629   4.383   2.841   3.450
12463WAT      O37630   2.833   9.406   7.627
12463WAT     H137631   2.798   9.431   7.717
12463WAT     H237632   2.785   9.325   7.594
12464WAT      O37633   0.792   1.180   7.474
12464WAT     H137634   0.888   1.206   7.482
12464WAT     H237635   0.765   1.186   7.378
12465WAT      O37636   4.072   5.764   4.764
12465WAT     H137637   4.130   5.803   4.692
12465WAT     H237638   3.978   5.794   4.749
12466WAT      O37639   8.652   4.620   3.182
12466WAT     H137640   8.748   4.603   3.202
12466WAT     H237641   8.642   4.713   3.145
12467WAT      O37642   9.463   2.983   6.475
12467WAT     H137643   9.409   3.040   6.414
12467WAT     H237644   9.403   2.938   6.541
12468WAT      O37645   4.759   7.112   5.092
12468WAT     H137646   4.687   7.055   5.130
12468WAT     H237647   4.840   7.107   5.150
12469WAT      O37648   9.153   4.291   5.096
12469WAT     H137649   9.150   4.201   5.051
12469WAT     H237650   9.234   4.341   5.065
12470WAT      O37651   3.896   1.190   3.423
12470WAT     H137652   3.807   1.163   3.460
12470WAT     H237653   3.884   1.229   3.331
12471WAT      O37654   6.035   2.928   5.906
12471WAT     H137655   5.988   2.879   5.833
12471WAT     H237656   5.970   2.986   5.955
12472WAT      O37657   1.864   2.047   6.988
12472WAT     H137658   1.953   2.091   6.987
12472WAT     H237659   1.876   1.949   7.006
12473WAT      O37660   6.812   4.311   9.124
12473WAT     H137661   6.871   4.328   9.045
12473WAT     H237662   6.850   4.237   9.179
12474WAT      O37663   8.462   4.525   8.703
12474WAT     H137664   8.452   4.568   8.793
12474WAT     H237665   8.536   4.568   8.653
12475WAT      O37666   2.963   5.217   5.954
12475WAT     H137667   3.021   5.144   5.920
12475WAT     H237668   2.884   5.228   5.894
12476WAT      O37669   3.838   9.226   1.676
12476WAT     H137670   3.860   9.215   1.578
12476WAT     H237671   3.746   9.191   1.693
12477WAT      O37672   1.777   6.263   7.101
12477WAT     H137673   1.776   6.223   7.009
12477WAT     H237674   1.738   6.199   7.166
12478WAT      O37675   4.334   5.332   8.511
12478WAT     H137676   4.380   5.257   8.557
12478WAT     H237677   4.372   5.419   8.541
12479WAT      O37678   7.986   2.813   6.841
12479WAT     H137679   7.910   2.789   6.780
12479WAT     H237680   8.036   2.891   6.803
12480WAT      O37681   4.866   2.241   9.136
12480WAT     H137682   4.895   2.317   9.194
12480WAT     H237683   4.912   2.157   9.165
12481WAT      O37684   3.506   1.476   5.053
12481WAT     H137685   3.551   1.440   5.134
12481WAT     H237686   3.409   1.451   5.055
12482WAT      O37687   1.779   4.664   0.703
12482WAT     H137688   1.834   4.734   0.747
12482WAT     H237689   1.831   4.579   0.695
12483WAT      O37690   9.554   9.112   8.801
12483WAT     H137691   9.530   9.209   8.811
12483WAT     H237692   9.499   9.073   8.727
12484WAT      O37693   7.673   4.928   3.338
12484WAT     H137694   7.648   4.968   3.251
12484WAT     H237695   7.650   4.991   3.412
12485WAT      O37696   3.353   9.591   4.074
12485WAT     H137697   3.264   9.612   4.033
12485WAT     H237698   3.342   9.519   4.143
12486WAT      O37699   1.185   8.694   3.477
12486WAT     H137700   1.231   8.782   3.468
12486WAT     H237701   1.096   8.707   3.521
12487WAT      O37702   5.505   5.511   7.898
12487WAT     H137703   5.596   5.471   7.898
12487WAT     H237704   5.504   5.592   7.957
12488WAT      O37705   8.312   1.096   0.473
12488WAT     H137706   8.295   1.081   0.376
12488WAT     H237707   8.378   1.029   0.507
12489WAT      O37708   5.928   6.508   6.776
12489WAT     H137709   5.845   6.549   6.739
12489WAT     H237710   6.008   6.550   6.734
12490WAT      O37711   6.090   7.721   8.725
12490WAT     H137712   6.177   7.687   8.687
12490WAT     H237713   6.067   7.668   8.807
12491WAT      O37714   3.250   7.199   0.544
12491WAT     H137715   3.290   7.282   0.503
12491WAT     H237716   3.151   7.200   0.530
12492WAT      O37717   6.878   5.209   0.811
12492WAT     H137718   6.951   5.261   0.765
12492WAT     H237719   6.862   5.248   0.902
12493WAT      O37720   0.451   0.739   9.591
12493WAT     H137721   0.431   0.837   9.580
12493WAT     H237722   0.382   0.685   9.543
12494WAT      O37723   6.621   9.064   6.168
12494WAT     H137724   6.587   9.158   6.163
12494WAT     H237725   6.691   9.050   6.098
12495WAT      O37726   3.315   3.279   4.116
12495WAT     H137727   3.338   3.183   4.130
12495WAT     H237728   3.277   3.291   4.024
12496WAT      O37729   3.311   1.548   2.344
12496WAT     H137730   3.250   1.616   2.305
12496WAT     H237731   3.280   1.525   2.437
12497WAT      O37732   2.447   0.168   1.046
12497WAT     H137733   2.384   0.168   0.968
12497WAT     H237734   2.448   0.259   1.088
12498WAT      O37735   0.488   1.139   4.505
12498WAT     H137736   0.479   1.238   4.518
12498WAT     H237737   0.403   1.094   4.530
12499WAT      O37738   4.197   3.381   8.268
12499WAT     H137739   4.246   3.459   8.230
12499WAT     H237740   4.232   3.296   8.228
12500WAT      O37741   3.055   7.727   6.239
12500WAT     H137742   3.141   7.777   6.253
12500WAT     H237743   3.019   7.699   6.328
12501WAT      O37744   2.090   8.290   7.949
12501WAT     H137745   2.153   8.366   7.932
12501WAT     H237746   1.996   8.320   7.929
12502WAT      O37747   1.825   4.119   7.366
12502WAT     H137748   1.880   4.045   7.326
12502WAT     H237749   1.860   4.207   7.335
12503WAT      O37750   5.589   7.066   1.825
12503WAT     H137751   5.637   7.011   1.894
12503WAT     H237752   5.602   7.025   1.735
12504WAT      O37753   1.340   8.160   3.260
12504WAT     H137754   1.396   8.078   3.246
12504WAT     H237755   1.399   8.236   3.287
12505WAT      O37756   8.773   1.343   8.937
12505WAT     H137757   8.695   1.375   8.883
12505WAT     H237758   8.753   1.353   9.034
12506WAT      O37759   1.722   1.157   1.235
12506WAT     H137760   1.777   1.169   1.318
12506WAT     H237761   1.736   1.235   1.174
12507WAT      O37762   0.076   9.441   3.194
12507WAT     H137763   0.098   9.442   3.096
12507WAT     H237764   0.007   9.511   3.213
12508WAT      O37765   8.065   6.377   2.002
12508WAT     H137766   8.119   6.293   1.987
12508WAT     H237767   8.078   6.407   2.097
12509WAT      O37768   5.834   1.119   2.206
12509WAT     H137769   5.804   1.209   2.176
12509WAT     H237770   5.902   1.083   2.141
12510WAT      O37771   5.566   8.424   2.240
12510WAT     H137772   5.615   8.405   2.325
12510WAT     H237773   5.482   8.474   2.261
12511WAT      O37774   8.897   6.161   9.510
12511WAT     H137775   8.823   6.093   9.505
12511WAT     H237776   8.863   6.243   9.555
12512WAT      O37777   7.955   0.938   0.727
12512WAT     H137778   7.959   1.037   0.734
12512WAT     H237779   7.930   0.913   0.633
12513WAT      O37780   3.942   6.559   9.659
12513WAT     H137781   4.006   6.629   9.628
12513WAT     H237782   3.848   6.592   9.649
12514WAT      O37783   8.820   4.107   9.814
12514WAT     H137784   8.857   4.126   9.905
12514WAT     H237785   8.878   4.150   9.745
12515WAT      O37786   8.380   1.712   8.969
12515WAT     H137787   8.342   1.776   9.036
12515WAT     H237788   8.307   1.653   8.934
12516WAT      O37789   1.737   9.045   8.975
12516WAT     H137790   1.833   9.070   8.990
12516WAT     H237791   1.707   9.081   8.887
12517WAT      O37792   0.344   0.667   8.837
12517WAT     H137793   0.424   0.634   8.887
12517WAT     H237794   0.261   0.650   8.890
12518WAT      O37795   0.716   2.933   8.796
12518WAT     H137796   0.617   2.926   8.784
12518WAT     H237797   0.760   2.942   8.706
12519WAT      O37798   2.772   5.520   0.622
12519WAT     H137799   2.836   5.447   0.598
12519WAT     H237800   2.742   5.568   0.539
12520WAT      O37801   3.849   1.161   3.074
12520WAT     H137802   3.892   1.246   3.043
12520WAT     H237803   3.891   1.083   3.027
12521WAT      O37804   4.833   0.522   9.518
12521WAT     H137805   4.846   0.447   9.584
12521WAT     H237806   4.893   0.598   9.542
12522WAT      O37807   1.718   0.907   0.550
12522WAT     H137808   1.624   0.887   0.577
12522WAT     H237809   1.778   0.897   0.630
12523WAT      O37810   5.567   7.600   0.684
12523WAT     H137811   5.513   7.524   0.721
12523WAT     H237812   5.511   7.683   0.680
12524WAT      O37813   2.188   9.777   7.658
12524WAT     H137814   2.089   9.784   7.670
12524WAT     H237815   2.208   9.708   7.588
12525WAT      O37816   3.776   4.343   5.107
12525WAT     H137817   3.849   4.352   5.175
12525WAT     H237818   3.751   4.434   5.072
12526WAT      O37819   2.559   9.737   7.632
12526WAT     H137820   2.508   9.701   7.554
12526WAT     H237821   2.516   9.821   7.665
12527WAT      O37822   7.691   3.348   3.200
12527WAT     H137823   7.769   3.333   3.262
12527WAT     H237824   7.683   3.445   3.179
12528WAT      O37825   9.090   5.961   2.113
12528WAT     H137826   9.059   5.869   2.136
12528WAT     H237827   9.178   5.978   2.156
12529WAT      O37828   5.643   9.661   7.448
12529WAT     H137829   5.676   9.755   7.450
12529WAT     H237830   5.614   9.638   7.355
12530WAT      O37831   5.756   6.881   1.960
12530WAT     H137832   5.845   6.894   1.916
12530WAT     H237833   5.766   6.818   2.037
12531WAT      O37834   0.063   1.117   3.286
12531WAT     H137835   0.133   1.091   3.352
12531WAT     H237836  -0.018   1.059   3.299
12532WAT      O37837   9.607   4.801   3.820
12532WAT     H137838   9.680   4.868   3.807
12532WAT     H237839   9.530   4.823   3.759
12533WAT      O37840   3.230   5.013   1.422
12533WAT     H137841   3.166   4.955   1.372
12533WAT     H237842   3.313   5.025   1.368
12534WAT      O37843   6.026   3.213   2.405
12534WAT     H137844   6.122   3.231   2.429
12534WAT     H237845   6.005   3.116   2.421
12535WAT      O37846   5.384   2.657   5.368
12535WAT     H137847   5.309   2.694   5.422
12535WAT     H237848   5.471   2.676   5.415
12536WAT      O37849   0.321   2.824   5.503
12536WAT     H137850   0.299   2.868   5.417
12536WAT     H237851   0.238   2.785   5.544
12537WAT      O37852   4.920   4.519   5.542
12537WAT     H137853   4.883   4.434   5.505
12537WAT     H237854   4.982   4.561   5.475
12538WAT      O37855   8.565   2.193   1.645
12538WAT     H137856   8.620   2.268   1.682
12538WAT     H237857   8.621   2.136   1.586
12539WAT      O37858   7.261   1.599   7.481
12539WAT     H137859   7.226   1.597   7.387
12539WAT     H237860   7.229   1.683   7.526
12540WAT      O37861   3.458   7.184   5.301
12540WAT     H137862   3.408   7.124   5.364
12540WAT     H237863   3.552   7.193   5.332
12541WAT      O37864   5.088   5.300   6.363
12541WAT     H137865   5.136   5.325   6.446
12541WAT     H237866   4.992   5.279   6.385
12542WAT      O37867   1.612   9.209   6.444
12542WAT     H137868   1.694   9.165   6.481
12542WAT     H237869   1.615   9.207   6.344
12543WAT      O37870   3.145   0.859   1.549
12543WAT     H137871   3.070   0.922   1.567
12543WAT     H237872   3.208   0.858   1.628
12544WAT      O37873   5.463   2.054   5.963
12544WAT     H137874   5.474   2.010   6.052
12544WAT     H237875   5.420   2.144   5.976
12545WAT      O37876   0.629   6.776   5.494
12545WAT     H137877   0.618   6.706   5.564
12545WAT     H237878   0.721   6.771   5.455
12546WAT      O37879   9.872   9.354   2.368
12546WAT     H137880   9.790   9.366   2.424
12546WAT     H237881   9.912   9.443   2.348
12547WAT      O37882   0.080   6.112   2.972
12547WAT     H137883   0.113   6.195   2.927
12547WAT     H237884   0.138   6.091   3.050
12548WAT      O37885   2.337   5.289   1.594
12548WAT     H137886   2.273   5.215   1.573
12548WAT     H237887   2.358   5.339   1.510
12549WAT      O37888   0.478   5.151   3.952
12549WAT     H137889   0.559   5.174   3.899
12549WAT     H237890   0.505   5.095   4.031
12550WAT      O37891   3.051   8.473   4.520
12550WAT     H137892   3.004   8.559   4.500
12550WAT     H237893   3.017   8.435   4.607
12551WAT      O37894   4.998   9.311   2.905
12551WAT     H137895   4.950   9.335   2.989
12551WAT     H237896   5.095   9.335   2.915
12552WAT      O37897   8.995   3.177   7.121
12552WAT     H137898   8.900   3.152   7.137
12552WAT     H237899   9.048   3.162   7.204
12553WAT      O37900   1.433   4.145   1.239
12553WAT     H137901   1.510   4.176   1.185
12553WAT     H237902   1.416   4.209   1.314
12554WAT      O37903   4.297   3.130   4.279
12554WAT     H137904   4.377   3.180   4.310
12554WAT     H237905   4.266   3.168   4.191
12555WAT      O37906   5.387   6.685   6.047
12555WAT     H137907   5.462   6.649   6.103
12555WAT     H237908   5.331   6.748   6.103
12556WAT      O37909   2.665   1.373   9.594
12556WAT     H137910   2.628   1.348   9.683
12556WAT     H237911   2.614   1.451   9.558
12557WAT      O37912   1.057   9.471   5.901
12557WAT     H137913   1.091   9.550   5.849
12557WAT     H237914   0.995   9.417   5.844
12558WAT      O37915   2.470   4.227   2.765
12558WAT     H137916   2.505   4.198   2.676
12558WAT     H237917   2.370   4.220   2.766
12559WAT      O37918   1.628   5.796   9.806
12559WAT     H137919   1.714   5.798   9.754
12559WAT     H237920   1.552   5.774   9.745
12560WAT      O37921   4.366   7.873   9.551
12560WAT     H137922   4.387   7.967   9.524
12560WAT     H237923   4.431   7.843   9.621
12561WAT      O37924   4.406   0.930   9.833
12561WAT     H137925   4.498   0.890   9.842
12561WAT     H237926   4.343   0.860   9.799
12562WAT      O37927   6.861   8.392   2.652
12562WAT     H137928   6.793   8.451   2.609
12562WAT     H237929   6.887   8.319   2.589
12563WAT      O37930   3.400   4.430   4.375
12563WAT     H137931   3.324   4.398   4.318
12563WAT     H237932   3.476   4.367   4.367
12564WAT      O37933   0.136   0.695   8.235
12564WAT     H137934   0.148   0.612   8.180
12564WAT     H237935   0.079   0.760   8.185
12565WAT      O37936   4.212   0.713   9.262
12565WAT     H137937   4.189   0.619   9.237
12565WAT     H237938   4.230   0.766   9.179
12566WAT      O37939   3.414   9.698   3.179
12566WAT     H137940   3.494   9.668   3.232
12566WAT     H237941   3.399   9.634   3.103
12567WAT      O37942   4.770   8.305   1.895
12567WAT     H137943   4.705   8.334   1.824
12567WAT     H237944   4.863   8.326   1.865
12568WAT      O37945   1.561   0.788   0.004
12568WAT     H137946   1.465   0.811   0.021
12568WAT     H237947   1.610   0.784   0.091
12569WAT      O37948   1.987   8.882   2.004
12569WAT     H137949   1.947   8.904   2.093
12569WAT     H237950   2.076   8.838   2.016
12570WAT      O37951   1.792   2.591   4.560
12570WAT     H137952   1.884   2.558   4.540
12570WAT     H237953   1.754   2.540   4.637
12571WAT      O37954   8.931   7.242   3.628
12571WAT     H137955   9.020   7.202   3.652
12571WAT     H237956   8.858   7.178   3.651
12572WAT      O37957   6.300   1.498   0.596
12572WAT     H137958   6.218   1.543   0.560
12572WAT     H237959   6.344   1.557   0.664
12573WAT      O37960   9.152   7.636   5.350
12573WAT     H137961   9.204   7.687   5.283
12573WAT     H237962   9.158   7.538   5.330
12574WAT      O37963   9.470   6.748   6.825
12574WAT     H137964   9.479   6.792   6.914
12574WAT     H237965   9.559   6.746   6.779
12575WAT      O37966   1.951   5.452   2.000
12575WAT     H137967   1.979   5.470   2.094
12575WAT     H237968   2.013   5.498   1.937
12576WAT      O37969   5.641   2.421   4.224
12576WAT     H137970   5.711   2.395   4.291
12576WAT     H237971   5.636   2.520   4.218
12577WAT      O37972   9.400   8.202   3.999
12577WAT     H137973   9.392   8.296   3.966
12577WAT     H237974   9.487   8.191   4.046
12578WAT      O37975   9.467   9.423   7.560
12578WAT     H137976   9.480   9.348   7.496
12578WAT     H237977   9.550   9.479   7.563
12579WAT      O37978   8.643   9.667   3.098
12579WAT     H137979   8.708   9.611   3.149
12579WAT     H237980   8.670   9.763   3.104
12580WAT      O37981   4.726   3.423   2.966
12580WAT     H137982   4.721   3.324   2.977
12580WAT     H237983   4.663   3.468   3.030
12581WAT      O37984   3.883   8.461   2.882
12581WAT     H137985   3.920   8.392   2.820
12581WAT     H237986   3.949   8.478   2.956
12582WAT      O37987   0.751   6.150   0.289
12582WAT     H137988   0.686   6.224   0.270
12582WAT     H237989   0.776   6.105   0.203
12583WAT      O37990   0.183   8.360   0.852
12583WAT     H137991   0.199   8.438   0.911
12583WAT     H237992   0.233   8.372   0.766
12584WAT      O37993   6.386   6.084   9.282
12584WAT     H137994   6.323   6.160   9.272
12584WAT     H237995   6.449   6.082   9.204
12585WAT      O37996   5.080   1.968   7.389
12585WAT     H137997   5.067   1.880   7.344
12585WAT     H237998   4.995   1.996   7.434
12586WAT      O37999   1.224   4.930   0.693
12586WAT     H138000   1.177   4.981   0.765
12586WAT     H238001   1.177   4.944   0.606
12587WAT      O38002   9.647   2.002   6.352
12587WAT     H138003   9.717   2.073   6.360
12587WAT     H238004   9.679   1.918   6.397
12588WAT      O38005   5.730   8.406   3.892
12588WAT     H138006   5.671   8.333   3.927
12588WAT     H238007   5.776   8.452   3.969
12589WAT      O38008   7.159   4.735   8.498
12589WAT     H138009   7.117   4.825   8.504
12589WAT     H238010   7.146   4.698   8.407
12590WAT      O38011   5.036   0.865   8.644
12590WAT     H138012   4.949   0.837   8.686
12590WAT     H238013   5.108   0.801   8.672
12591WAT      O38014   9.675   9.283   5.283
12591WAT     H138015   9.761   9.279   5.334
12591WAT     H238016   9.645   9.378   5.276
12592WAT      O38017   2.255   0.372   1.383
12592WAT     H138018   2.282   0.288   1.429
12592WAT     H238019   2.311   0.449   1.415
12593WAT      O38020   3.468   1.121   0.252
12593WAT     H138021   3.546   1.061   0.269
12593WAT     H238022   3.389   1.090   0.306
12594WAT      O38023   9.072   2.463   2.149
12594WAT     H138024   9.051   2.503   2.060
12594WAT     H238025   9.171   2.469   2.166
12595WAT      O38026   5.006   5.833   5.968
12595WAT     H138027   5.056   5.754   5.932
12595WAT     H238028   5.049   5.865   6.052
12596WAT      O38029   8.524   0.226   1.421
12596WAT     H138030   8.530   0.316   1.465
12596WAT     H238031   8.556   0.234   1.326
12597WAT      O38032   6.948   0.544   7.354
12597WAT     H138033   6.964   0.617   7.287
12597WAT     H238034   6.849   0.530   7.364
12598WAT      O38035   4.572   4.289   7.699
12598WAT     H138036   4.629   4.317   7.775
12598WAT     H238037   4.523   4.205   7.722
12599WAT      O38038   6.137   4.580   7.939
12599WAT     H138039   6.228   4.607   7.908
12599WAT     H238040   6.103   4.504   7.882
12600WAT      O38041   6.303   9.122   2.807
12600WAT     H138042   6.402   9.118   2.794
12600WAT     H238043   6.281   9.111   2.904
12601WAT      O38044   3.560   2.708   6.419
12601WAT     H138045   3.537   2.770   6.494
12601WAT     H238046   3.655   2.725   6.391
12602WAT      O38047   1.503   3.898   2.415
12602WAT     H138048   1.557   3.909   2.498
12602WAT     H238049   1.522   3.974   2.352
12603WAT      O38050   1.655   3.704   2.946
12603WAT     H138051   1.558   3.682   2.946
12603WAT     H238052   1.668   3.803   2.950
12604WAT      O38053   7.331   8.970   1.785
12604WAT     H138054   7.245   8.975   1.836
12604WAT     H238055   7.407   8.991   1.846
12605WAT      O38056   0.145   4.225   9.690
12605WAT     H138057   0.108   4.156   9.753
12605WAT     H238058   0.245   4.223   9.693
12606WAT      O38059   4.368   3.271   0.247
12606WAT     H138060   4.405   3.309   0.162
12606WAT     H238061   4.424   3.301   0.324
12607WAT      O38062   7.667   4.791   5.946
12607WAT     H138063   7.594   4.850   5.911
12607WAT     H238064   7.756   4.829   5.921
12608WAT      O38065   9.814   2.101   9.498
12608WAT     H138066   9.800   2.185   9.550
12608WAT     H238067   9.878   2.119   9.423
12609WAT      O38068   5.537   9.274   5.839
12609WAT     H138069   5.609   9.342   5.823
12609WAT     H238070   5.545   9.201   5.771
12610WAT      O38071   1.480   0.389   4.595
12610WAT     H138072   1.564   0.433   4.563
12610WAT     H238073   1.467   0.303   4.546
12611WAT      O38074   3.887   3.281   9.682
12611WAT     H138075   3.938   3.365   9.665
12611WAT     H238076   3.886   3.225   9.599
12612WAT      O38077   6.677   3.317   2.663
12612WAT     H138078   6.627   3.312   2.576
12612WAT     H238079   6.617   3.355   2.734
12613WAT      O38080   4.576   5.934   6.276
12613WAT     H138081   4.482   5.901   6.282
12613WAT     H238082   4.636   5.860   6.247
12614WAT      O38083   1.905   8.266   1.465
12614WAT     H138084   1.963   8.186   1.449
12614WAT     H238085   1.841   8.276   1.389
12615WAT      O38086   8.256   0.841   4.293
12615WAT     H138087   8.234   0.797   4.206
12615WAT     H238088   8.243   0.939   4.286
12616WAT      O38089   6.921   1.806   2.969
12616WAT     H138090   6.943   1.882   2.907
12616WAT     H238091   6.908   1.841   3.062
12617WAT      O38092   0.779   7.213   5.329
12617WAT     H138093   0.737   7.262   5.405
12617WAT     H238094   0.791   7.275   5.252
12618WAT      O38095   4.432   3.106   3.871
12618WAT     H138096   4.486   3.153   3.940
12618WAT     H238097   4.466   3.012   3.860
12619WAT      O38098   6.158   6.363   7.325
12619WAT     H138099   6.060   6.344   7.333
12619WAT     H238100   6.190   6.336   7.234
12620WAT      O38101   6.234   2.993   8.329
12620WAT     H138102   6.247   3.032   8.238
12620WAT     H238103   6.287   3.047   8.395
12621WAT      O38104   7.668   4.806   7.682
12621WAT     H138105   7.698   4.790   7.776
12621WAT     H238106   7.649   4.718   7.638
12622WAT      O38107   7.485   1.461   1.047
12622WAT     H138108   7.408   1.403   1.075
12622WAT     H238109   7.449   1.539   0.996
12623WAT      O38110   2.537   8.203   3.970
12623WAT     H138111   2.558   8.110   4.001
12623WAT     H238112   2.568   8.215   3.876
12624WAT      O38113   8.577   1.516   1.167
12624WAT     H138114   8.586   1.582   1.092
12624WAT     H238115   8.502   1.453   1.147
12625WAT      O38116   3.988   6.383   0.029
12625WAT     H138117   3.905   6.332   0.006
12625WAT     H238118   4.003   6.455  -0.039
12626WAT      O38119   3.644   2.601   6.804
12626WAT     H138120   3.615   2.684   6.851
12626WAT     H238121   3.565   2.541   6.791
12627WAT      O38122   8.827   6.938   9.043
12627WAT     H138123   8.782   6.851   9.024
12627WAT     H238124   8.863   6.976   8.957
12628WAT      O38125   7.226   1.303   7.415
12628WAT     H138126   7.271   1.283   7.328
12628WAT     H238127   7.242   1.399   7.439
12629WAT      O38128   8.036   7.855   4.423
12629WAT     H138129   8.123   7.829   4.380
12629WAT     H238130   7.962   7.846   4.357
12630WAT      O38131   8.390   0.796   4.998
12630WAT     H138132   8.489   0.810   4.990
12630WAT     H238133   8.346   0.827   4.914
12631WAT      O38134   0.876   9.815   4.532
12631WAT     H138135   0.951   9.762   4.492
12631WAT     H238136   0.902   9.912   4.534
12632WAT      O38137   3.817   5.910   1.086
12632WAT     H138138   3.908   5.868   1.093
12632WAT     H238139   3.796   5.927   0.989
12633WAT      O38140   7.267   7.100   5.491
12633WAT     H138141   7.311   7.080   5.579
12633WAT     H238142   7.171   7.073   5.495
12634WAT      O38143   2.205   9.673   9.455
12634WAT     H138144   2.214   9.597   9.390
12634WAT     H238145   2.131   9.733   9.426
12635WAT      O38146   8.457   1.620   7.791
12635WAT     H138147   8.493   1.559   7.862
12635WAT     H238148   8.532   1.668   7.747
12636WAT      O38149   4.789   9.376   9.504
12636WAT     H138150   4.784   9.403   9.408
12636WAT     H238151   4.866   9.420   9.548
12637WAT      O38152   1.556   5.568   0.920
12637WAT     H138153   1.458   5.554   0.924
12637WAT     H238154   1.583   5.594   0.828
12638WAT      O38155   0.842   7.272   9.648
12638WAT     H138156   0.873   7.277   9.553
12638WAT     H238157   0.753   7.226   9.652
12639WAT      O38158   7.903   3.984   7.023
12639WAT     H138159   7.950   4.013   7.107
12639WAT     H238160   7.827   3.923   7.046
12640WAT      O38161   1.907   3.543   4.167
12640WAT     H138162   1.840   3.589   4.109
12640WAT     H238163   1.988   3.601   4.178
12641WAT      O38164   1.951   3.624   8.078
12641WAT     H138165   1.968   3.571   8.160
12641WAT     H238166   2.027   3.613   8.014
12642WAT      O38167   1.648   7.726   6.059
12642WAT     H138168   1.665   7.763   5.968
12642WAT     H238169   1.717   7.657   6.080
12643WAT      O38170   4.540   4.927   3.347
12643WAT     H138171   4.478   5.005   3.345
12643WAT     H238172   4.581   4.919   3.437
12644WAT      O38173   8.495   0.766   2.321
12644WAT     H138174   8.420   0.827   2.348
12644WAT     H238175   8.458   0.679   2.291
12645WAT      O38176   3.025   6.748   1.607
12645WAT     H138177   3.042   6.821   1.541
12645WAT     H238178   2.994   6.788   1.693
12646WAT      O38179   6.783   7.497   8.167
12646WAT     H138180   6.714   7.522   8.235
12646WAT     H238181   6.866   7.550   8.182
12647WAT      O38182   3.324   9.012   1.201
12647WAT     H138183   3.413   9.010   1.245
12647WAT     H238184   3.300   9.106   1.178
12648WAT      O38185   3.460   1.009   2.846
12648WAT     H138186   3.519   1.002   2.765
12648WAT     H238187   3.476   0.929   2.904
12649WAT      O38188   1.888   6.725   5.108
12649WAT     H138189   1.839   6.762   5.187
12649WAT     H238190   1.862   6.776   5.026
12650WAT      O38191   2.563   5.691   2.770
12650WAT     H138192   2.499   5.640   2.827
12650WAT     H238193   2.629   5.627   2.729
12651WAT      O38194   1.021   9.488   5.311
12651WAT     H138195   1.042   9.536   5.225
12651WAT     H238196   1.008   9.555   5.384
12652WAT      O38197   5.071   7.114   8.473
12652WAT     H138198   5.021   7.113   8.559
12652WAT     H238199   5.021   7.062   8.404
12653WAT      O38200   9.183   5.730   7.314
12653WAT     H138201   9.252   5.718   7.385
12653WAT     H238202   9.119   5.802   7.340
12654WAT      O38203   0.406   8.196   8.952
12654WAT     H138204   0.497   8.163   8.978
12654WAT     H238205   0.383   8.162   8.861
12655WAT      O38206   5.085   9.780   7.865
12655WAT     H138207   5.010   9.775   7.799
12655WAT     H238208   5.075   9.863   7.920
12656WAT      O38209   7.987   2.782   8.579
12656WAT     H138210   8.002   2.686   8.603
12656WAT     H238211   7.904   2.815   8.624
12657WAT      O38212   3.106   6.147   0.353
12657WAT     H138213   3.081   6.150   0.256
12657WAT     H238214   3.024   6.133   0.408
12658WAT      O38215   7.782   2.142   7.911
12658WAT     H138216   7.770   2.238   7.939
12658WAT     H238217   7.802   2.138   7.813
12659WAT      O38218   4.234   4.848   6.860
12659WAT     H138219   4.290   4.778   6.904
12659WAT     H238220   4.159   4.874   6.921
12660WAT      O38221   0.114   3.593   8.891
12660WAT     H138222   0.101   3.570   8.987
12660WAT     H238223   0.027   3.622   8.851
12661WAT      O38224   9.219   2.723   7.118
12661WAT     H138225   9.230   2.631   7.157
12661WAT     H238226   9.168   2.780   7.182
12662WAT      O38227   2.464   9.451   5.639
12662WAT     H138228   2.478   9.356   5.667
12662WAT     H238229   2.377   9.484   5.675
12663WAT      O38230   1.708   5.420   6.352
12663WAT     H138231   1.625   5.400   6.301
12663WAT     H238232   1.782   5.361   6.319
12664WAT      O38233   6.417   4.523   3.123
12664WAT     H138234   6.329   4.492   3.086
12664WAT     H238235   6.459   4.450   3.176
12665WAT      O38236   6.165   4.789   3.642
12665WAT     H138237   6.131   4.875   3.679
12665WAT     H238238   6.170   4.795   3.542
12666WAT      O38239   3.208   0.551   3.544
12666WAT     H138240   3.184   0.644   3.572
12666WAT     H238241   3.296   0.552   3.496
12667WAT      O38242   9.654   2.844   6.956
12667WAT     H138243   9.592   2.891   7.019
12667WAT     H238244   9.600   2.800   6.884
12668WAT      O38245   0.665   2.777   7.439
12668WAT     H138246   0.730   2.786   7.364
12668WAT     H238247   0.610   2.694   7.425
12669WAT      O38248   2.466   7.005   6.741
12669WAT     H138249   2.472   7.101   6.769
12669WAT     H238250   2.370   6.982   6.724
12670WAT      O38251   5.531   1.559   0.381
12670WAT     H138252   5.445   1.511   0.398
12670WAT     H238253   5.544   1.571   0.283
12671WAT      O38254   9.298   0.959   8.508
12671WAT     H138255   9.244   0.932   8.588
12671WAT     H238256   9.291   0.889   8.437
12672WAT      O38257   8.781   4.715   5.917
12672WAT     H138258   8.871   4.697   5.956
12672WAT     H238259   8.782   4.698   5.819
12673WAT      O38260   3.239   4.531   1.739
12673WAT     H138261   3.311   4.537   1.808
12673WAT     H238262   3.174   4.606   1.752
12674WAT      O38263   0.256   7.478   4.255
12674WAT     H138264   0.169   7.521   4.232
12674WAT     H238265   0.276   7.490   4.352
12675WAT      O38266   3.645   9.295   9.889
12675WAT     H138267   3.708   9.231   9.846
12675WAT     H238268   3.686   9.386   9.891
12676WAT      O38269   1.171   4.294   6.415
12676WAT     H138270   1.260   4.331   6.442
12676WAT     H238271   1.105   4.369   6.409
12677WAT      O38272   6.272   2.130   3.695
12677WAT     H138273   6.352   2.138   3.756
12677WAT     H238274   6.273   2.040   3.651
12678WAT      O38275   2.425   2.185   3.624
12678WAT     H138276   2.445   2.282   3.610
12678WAT     H238277   2.346   2.159   3.569
12679WAT      O38278   5.481   8.402   4.563
12679WAT     H138279   5.542   8.445   4.496
12679WAT     H238280   5.528   8.393   4.650
12680WAT      O38281   9.436   0.760   3.177
12680WAT     H138282   9.427   0.667   3.211
12680WAT     H238283   9.453   0.759   3.078
12681WAT      O38284   0.790   6.730   6.208
12681WAT     H138285   0.710   6.671   6.224
12681WAT     H238286   0.785   6.809   6.269
12682WAT      O38287   3.972   1.723   7.721
12682WAT     H138288   4.000   1.796   7.659
12682WAT     H238289   3.881   1.743   7.757
12683WAT      O38290   2.954   5.433   7.235
12683WAT     H138291   3.041   5.431   7.186
12683WAT     H238292   2.921   5.339   7.247
12684WAT      O38293   7.343   1.113   1.384
12684WAT     H138294   7.271   1.181   1.366
12684WAT     H238295   7.305   1.021   1.376
12685WAT      O38296   6.711   1.217   8.114
12685WAT     H138297   6.729   1.146   8.046
12685WAT     H238298   6.764   1.197   8.197
12686WAT      O38299   8.278   6.349   1.046
12686WAT     H138300   8.214   6.423   1.024
12686WAT     H238301   8.288   6.342   1.145
12687WAT      O38302   3.360   2.247   5.725
12687WAT     H138303   3.377   2.343   5.704
12687WAT     H238304   3.268   2.236   5.762
12688WAT      O38305   3.599   1.450   2.214
12688WAT     H138306   3.676   1.404   2.169
12688WAT     H238307   3.569   1.396   2.293
12689WAT      O38308   2.090   5.963   6.477
12689WAT     H138309   2.032   5.998   6.404
12689WAT     H238310   2.059   5.998   6.566
12690WAT      O38311   0.071   0.639   4.501
12690WAT     H138312   0.135   0.587   4.445
12690WAT     H238313   0.097   0.630   4.597
12691WAT      O38314   5.545   6.679   1.875
12691WAT     H138315   5.459   6.727   1.893
12691WAT     H238316   5.622   6.739   1.899
12692WAT      O38317   3.620   7.565   4.955
12692WAT     H138318   3.594   7.658   4.926
12692WAT     H238319   3.699   7.535   4.903
12693WAT      O38320   5.155   1.801   4.078
12693WAT     H138321   5.110   1.729   4.025
12693WAT     H238322   5.242   1.824   4.034
12694WAT      O38323   7.903   0.653   1.276
12694WAT     H138324   7.880   0.556   1.277
12694WAT     H238325   8.002   0.663   1.265
12695WAT      O38326   7.110   1.408   3.468
12695WAT     H138327   7.128   1.309   3.470
12695WAT     H238328   7.105   1.438   3.373
12696WAT      O38329   1.506   6.258   0.091
12696WAT     H138330   1.479   6.349   0.124
12696WAT     H238331   1.486   6.251  -0.007
12697WAT      O38332   1.363   9.763   1.100
12697WAT     H138333   1.383   9.840   1.041
12697WAT     H238334   1.266   9.738   1.092
12698WAT      O38335   1.172   6.178   2.998
12698WAT     H138336   1.078   6.200   2.975
12698WAT     H238337   1.183   6.178   3.098
12699WAT      O38338   8.224   8.254   3.746
12699WAT     H138339   8.191   8.336   3.793
12699WAT     H238340   8.298   8.212   3.799
12700WAT      O38341   4.918   9.063   8.822
12700WAT     H138342   4.920   9.136   8.754
12700WAT     H238343   4.827   9.020   8.821
12701WAT      O38344   4.204   0.470   8.591
12701WAT     H138345   4.239   0.453   8.683
12701WAT     H238346   4.127   0.534   8.596
12702WAT      O38347   7.768   2.468   7.682
12702WAT     H138348   7.724   2.411   7.612
12702WAT     H238349   7.752   2.428   7.772
12703WAT      O38350   6.366   1.576   9.577
12703WAT     H138351   6.389   1.670   9.602
12703WAT     H238352   6.403   1.513   9.646
12704WAT      O38353   3.574   1.932   4.967
12704WAT     H138354   3.563   1.961   5.062
12704WAT     H238355   3.670   1.943   4.939
12705WAT      O38356   6.982   8.394   1.809
12705WAT     H138357   6.926   8.412   1.890
12705WAT     H238358   6.995   8.479   1.758
12706WAT      O38359   1.855   0.792   3.609
12706WAT     H138360   1.941   0.773   3.560
12706WAT     H238361   1.845   0.728   3.685
12707WAT      O38362   8.832   9.495   7.348
12707WAT     H138363   8.860   9.520   7.255
12707WAT     H238364   8.750   9.438   7.343
12708WAT      O38365   8.859   8.708   6.972
12708WAT     H138366   8.763   8.710   6.999
12708WAT     H238367   8.881   8.617   6.937
12709WAT      O38368   0.805   7.807   4.133
12709WAT     H138369   0.809   7.875   4.207
12709WAT     H238370   0.814   7.715   4.172
12710WAT      O38371   6.626   0.882   6.089
12710WAT     H138372   6.534   0.856   6.059
12710WAT     H238373   6.694   0.825   6.043
12711WAT      O38374   8.247   1.225   8.726
12711WAT     H138375   8.213   1.154   8.788
12711WAT     H238376   8.276   1.305   8.779
12712WAT      O38377   9.346   7.394   0.793
12712WAT     H138378   9.380   7.397   0.698
12712WAT     H238379   9.357   7.302   0.830
12713WAT      O38380   1.264   2.733   5.706
12713WAT     H138381   1.193   2.688   5.758
12713WAT     H238382   1.261   2.832   5.722
12714WAT      O38383   6.512   3.727   2.710
12714WAT     H138384   6.563   3.664   2.652
12714WAT     H238385   6.570   3.805   2.735
12715WAT      O38386   4.443   9.706   5.113
12715WAT     H138387   4.402   9.795   5.095
12715WAT     H238388   4.451   9.693   5.212
12716WAT      O38389   9.222   2.776   2.702
12716WAT     H138390   9.195   2.872   2.696
12716WAT     H238391   9.319   2.770   2.726
12717WAT      O38392   5.320   3.432   3.068
12717WAT     H138393   5.257   3.423   3.145
12717WAT     H238394   5.388   3.502   3.089
12718WAT      O38395   3.777   2.906   4.644
12718WAT     H138396   3.828   2.827   4.678
12718WAT     H238397   3.698   2.875   4.592
12719WAT      O38398   8.329   1.538   1.418
12719WAT     H138399   8.422   1.504   1.408
12719WAT     H238400   8.329   1.620   1.475
12720WAT      O38401   8.283   4.766   9.138
12720WAT     H138402   8.226   4.826   9.195
12720WAT     H238403   8.379   4.791   9.149
12721WAT      O38404   4.559   7.387   4.122
12721WAT     H138405   4.580   7.450   4.198
12721WAT     H238406   4.466   7.351   4.134
12722WAT      O38407   4.490   9.473   8.996
12722WAT     H138408   4.589   9.484   9.001
12722WAT     H238409   4.464   9.455   8.901
12723WAT      O38410   0.398   7.408   1.359
12723WAT     H138411   0.425   7.331   1.417
12723WAT     H238412   0.351   7.373   1.277
12724WAT      O38413   0.217   5.317   0.364
12724WAT     H138414   0.164   5.301   0.448
12724WAT     H238415   0.307   5.354   0.389
12725WAT      O38416   0.676   9.742   6.596
12725WAT     H138417   0.700   9.779   6.506
12725WAT     H238418   0.750   9.682   6.627
12726WAT      O38419   7.087   7.318   3.997
12726WAT     H138420   7.169   7.261   4.004
12726WAT     H238421   7.083   7.359   3.906
12727WAT      O38422   0.548   7.394   5.960
12727WAT     H138423   0.614   7.469   5.965
12727WAT     H238424   0.500   7.385   6.048
12728WAT      O38425   9.466   8.165   6.974
12728WAT     H138426   9.391   8.211   6.926
12728WAT     H238427   9.525   8.233   7.017
12729WAT      O38428   3.490   3.584   1.844
12729WAT     H138429   3.531   3.533   1.919
12729WAT     H238430   3.561   3.634   1.795
12730WAT      O38431   9.172   4.951   7.415
12730WAT     H138432   9.102   4.973   7.348
12730WAT     H238433   9.198   4.855   7.407
12731WAT      O38434   6.472   2.647   3.239
12731WAT     H138435   6.454   2.745   3.227
12731WAT     H238436   6.401   2.595   3.191
12732WAT      O38437   5.381   9.222   7.997
12732WAT     H138438   5.462   9.166   8.015
12732WAT     H238439   5.402   9.290   7.928
12733WAT      O38440   7.800   5.898   2.584
12733WAT     H138441   7.900   5.893   2.582
12733WAT     H238442   7.769   5.972   2.524
12734WAT      O38443   3.570   1.181   9.276
12734WAT     H138444   3.483   1.137   9.294
12734WAT     H238445   3.556   1.257   9.212
12735WAT      O38446   8.417   6.474   3.835
12735WAT     H138447   8.430   6.536   3.913
12735WAT     H238448   8.493   6.410   3.831
12736WAT      O38449   4.809   2.270   5.070
12736WAT     H138450   4.905   2.280   5.096
12736WAT     H238451   4.757   2.350   5.101
12737WAT      O38452   4.445   3.967   2.223
12737WAT     H138453   4.411   3.942   2.313
12737WAT     H238454   4.507   4.045   2.231
12738WAT      O38455   8.105   3.232   2.785
12738WAT     H138456   8.143   3.155   2.733
12738WAT     H238457   8.006   3.220   2.793
12739WAT      O38458   0.366   8.604   0.954
12739WAT     H138459   0.390   8.630   0.861
12739WAT     H238460   0.395   8.676   1.017
12740WAT      O38461   8.838   0.815   9.343
12740WAT     H138462   8.936   0.795   9.335
12740WAT     H238463   8.806   0.789   9.434
12741WAT      O38464   1.426   4.869   5.987
12741WAT     H138465   1.390   4.871   5.894
12741WAT     H238466   1.373   4.930   6.045
12742WAT      O38467   1.657   6.284   1.059
12742WAT     H138468   1.691   6.191   1.067
12742WAT     H238469   1.671   6.333   1.145
12743WAT      O38470   4.712   8.188   3.591
12743WAT     H138471   4.762   8.184   3.678
12743WAT     H238472   4.627   8.136   3.599
12744WAT      O38473   6.183   1.736   7.795
12744WAT     H138474   6.208   1.739   7.892
12744WAT     H238475   6.244   1.795   7.743
12745WAT      O38476   9.033   6.424   5.118
12745WAT     H138477   9.120   6.457   5.082
12745WAT     H238478   9.043   6.329   5.147
12746WAT      O38479   9.601   3.449   0.242
12746WAT     H138480   9.569   3.354   0.239
12746WAT     H238481   9.609   3.484   0.149
12747WAT      O38482   6.338   1.491   3.495
12747WAT     H138483   6.287   1.434   3.560
12747WAT     H238484   6.279   1.512   3.417
12748WAT      O38485   8.481   4.749   5.379
12748WAT     H138486   8.547   4.818   5.352
12748WAT     H238487   8.517   4.658   5.358
12749WAT      O38488   1.053   6.196   1.420
12749WAT     H138489   1.037   6.265   1.349
12749WAT     H238490   1.119   6.232   1.486
12750WAT      O38491   5.725   7.249   2.772
12750WAT     H138492   5.794   7.241   2.700
12750WAT     H238493   5.761   7.301   2.849
12751WAT      O38494   0.910   1.629   9.652
12751WAT     H138495   0.906   1.601   9.557
12751WAT     H238496   0.864   1.718   9.663
12752WAT      O38497   9.602   3.797   9.880
12752WAT     H138498   9.614   3.886   9.836
12752WAT     H238499   9.622   3.805   9.978
12753WAT      O38500   4.996   2.574   6.181
12753WAT     H138501   5.050   2.570   6.097
12753WAT     H238502   5.055   2.601   6.258
12754WAT      O38503   2.494   9.022   0.296
12754WAT     H138504   2.396   9.006   0.313
12754WAT     H238505   2.534   8.940   0.255
12755WAT      O38506   0.874   3.948   7.030
12755WAT     H138507   0.774   3.947   7.030
12755WAT     H238508   0.908   3.931   7.123
12756WAT      O38509   0.118   8.769   1.379
12756WAT     H138510   0.121   8.867   1.362
12756WAT     H238511   0.025   8.742   1.403
12757WAT      O38512   1.813   4.307   6.278
12757WAT     H138513   1.844   4.309   6.373
12757WAT     H238514   1.891   4.321   6.217
12758WAT      O38515   4.573   8.299   8.492
12758WAT     H138516   4.670   8.277   8.485
12758WAT     H238517   4.545   8.354   8.413
12759WAT      O38518   8.421   5.682   7.285
12759WAT     H138519   8.368   5.728   7.356
12759WAT     H238520   8.409   5.729   7.198
12760WAT      O38521   1.801   0.262   6.546
12760WAT     H138522   1.760   0.188   6.600
12760WAT     H238523   1.874   0.224   6.489
12761WAT      O38524   8.762   2.805   2.589
12761WAT     H138525   8.706   2.862   2.648
12761WAT     H238526   8.841   2.771   2.640
12762WAT      O38527   9.206   7.244   9.704
12762WAT     H138528   9.289   7.293   9.676
12762WAT     H238529   9.180   7.178   9.633
12763WAT      O38530   6.168   1.036   7.554
12763WAT     H138531   6.162   1.127   7.596
12763WAT     H238532   6.261   1.022   7.519
12764WAT      O38533   6.553   8.828   7.460
12764WAT     H138534   6.469   8.833   7.515
12764WAT     H238535   6.587   8.921   7.444
12765WAT      O38536   6.730   1.659   6.358
12765WAT     H138537   6.725   1.567   6.396
12765WAT     H238538   6.826   1.685   6.348
12766WAT      O38539   1.418   1.036   8.548
12766WAT     H138540   1.318   1.037   8.538
12766WAT     H238541   1.452   1.129   8.549
12767WAT      O38542   6.523   2.165   2.357
12767WAT     H138543   6.615   2.198   2.379
12767WAT     H238544   6.481   2.225   2.289
12768WAT      O38545   1.908   9.280   6.916
12768WAT     H138546   1.928   9.281   7.014
12768WAT     H238547   1.883   9.373   6.887
12769WAT      O38548   8.028   4.629   5.988
12769WAT     H138549   7.985   4.545   5.955
12769WAT     H238550   8.051   4.687   5.910
12770WAT      O38551   9.546   8.265   5.681
12770WAT     H138552   9.554   8.217   5.594
12770WAT     H238553   9.595   8.352   5.676
12771WAT      O38554   9.171   9.093   4.979
12771WAT     H138555   9.244   9.078   5.046
12771WAT     H238556   9.180   9.185   4.941
12772WAT      O38557   9.753   8.036   9.441
12772WAT     H138558   9.813   8.101   9.395
12772WAT     H238559   9.659   8.051   9.411
12773WAT      O38560   5.119   8.682   2.807
12773WAT     H138561   5.192   8.640   2.753
12773WAT     H238562   5.071   8.750   2.751
12774WAT      O38563   3.745   0.095   6.430
12774WAT     H138564   3.710   0.004   6.450
12774WAT     H238565   3.782   0.097   6.337
12775WAT      O38566   3.206   7.807   5.059
12775WAT     H138567   3.296   7.846   5.080
12775WAT     H238568   3.147   7.814   5.140
12776WAT      O38569   0.419   0.765   4.437
12776WAT     H138570   0.395   0.821   4.358
12776WAT     H238571   0.376   0.674   4.428
12777WAT      O38572   2.587   9.559   4.550
12777WAT     H138573   2.576   9.528   4.644
12777WAT     H238574   2.556   9.487   4.488
12778WAT      O38575   1.143   0.171   3.098
12778WAT     H138576   1.195   0.099   3.142
12778WAT     H238577   1.074   0.207   3.161
12779WAT      O38578   9.884   3.090   4.889
12779WAT     H138579   9.954   3.154   4.920
12779WAT     H238580   9.794   3.133   4.893
12780WAT      O38581   8.561   7.888   8.455
12780WAT     H138582   8.638   7.903   8.517
12780WAT     H238583   8.588   7.823   8.384
12781WAT      O38584   2.672   6.534   9.390
12781WAT     H138585   2.744   6.588   9.346
12781WAT     H238586   2.693   6.437   9.383
12782WAT      O38587   6.012   8.598   4.818
12782WAT     H138588   6.077   8.550   4.877
12782WAT     H238589   5.920   8.562   4.834
12783WAT      O38590   1.383   1.256   1.357
12783WAT     H138591   1.446   1.319   1.402
12783WAT     H238592   1.406   1.249   1.260
12784WAT      O38593   3.065   8.744   5.228
12784WAT     H138594   3.081   8.763   5.324
12784WAT     H238595   3.147   8.766   5.175
12785WAT      O38596   0.673   5.388   2.725
12785WAT     H138597   0.727   5.424   2.801
12785WAT     H238598   0.735   5.348   2.657
12786WAT      O38599   5.508   3.033   9.076
12786WAT     H138600   5.469   2.987   9.156
12786WAT     H238601   5.473   3.127   9.071
12787WAT      O38602   8.515   8.874   7.616
12787WAT     H138603   8.422   8.841   7.631
12787WAT     H238604   8.576   8.795   7.606
12788WAT      O38605   2.765   3.769   6.693
12788WAT     H138606   2.758   3.677   6.733
12788WAT     H238607   2.825   3.825   6.749
12789WAT      O38608   5.171   5.721   1.962
12789WAT     H138609   5.208   5.689   2.049
12789WAT     H238610   5.246   5.752   1.903
12790WAT      O38611   9.105   1.283   5.793
12790WAT     H138612   9.036   1.329   5.849
12790WAT     H238613   9.131   1.341   5.717
12791WAT      O38614   0.601   4.028   6.982
12791WAT     H138615   0.519   4.060   7.029
12791WAT     H238616   0.639   4.103   6.927
12792WAT      O38617   7.674   0.151   7.446
12792WAT     H138618   7.649   0.114   7.535
12792WAT     H238619   7.712   0.243   7.458
12793WAT      O38620   9.012   2.229   5.694
12793WAT     H138621   9.062   2.214   5.609
12793WAT     H238622   9.038   2.159   5.761
12794WAT      O38623   6.877   6.390   1.961
12794WAT     H138624   6.783   6.421   1.979
12794WAT     H238625   6.937   6.422   2.034
12795WAT      O38626   3.576   3.710   1.029
12795WAT     H138627   3.571   3.661   1.116
12795WAT     H238628   3.636   3.790   1.038
12796WAT      O38629   4.428   4.732   0.184
12796WAT     H138630   4.453   4.659   0.249
12796WAT     H238631   4.382   4.691   0.105
12797WAT      O38632   1.446   8.975   0.383
12797WAT     H138633   1.514   8.907   0.355
12797WAT     H238634   1.449   8.986   0.482
12798WAT      O38635   6.949   0.711   6.229
12798WAT     H138636   6.976   0.617   6.250
12798WAT     H238637   6.891   0.746   6.303
12799WAT      O38638   6.625   2.926   8.103
12799WAT     H138639   6.553   2.934   8.172
12799WAT     H238640   6.646   2.829   8.088
12800WAT      O38641   5.375   3.013   2.535
12800WAT     H138642   5.473   3.009   2.557
12800WAT     H238643   5.362   3.059   2.447
12801WAT      O38644   2.933   9.723   1.763
12801WAT     H138645   2.955   9.745   1.858
12801WAT     H238646   2.917   9.624   1.755
12802WAT      O38647   6.675   9.707   7.425
12802WAT     H138648   6.578   9.717   7.445
12802WAT     H238649   6.702   9.612   7.440
12803WAT      O38650   1.494   0.952   7.350
12803WAT     H138651   1.489   0.999   7.438
12803WAT     H238652   1.585   0.967   7.310
12804WAT      O38653   2.138   6.872   0.001
12804WAT     H138654   2.159   6.910   0.091
12804WAT     H238655   2.118   6.947  -0.063
12805WAT      O38656   7.584   9.480   2.707
12805WAT     H138657   7.600   9.578   2.695
12805WAT     H238658   7.535   9.444   2.628
12806WAT      O38659   8.891   8.137   0.051
12806WAT     H138660   8.990   8.138   0.065
12806WAT     H238661   8.849   8.204   0.112
12807WAT      O38662   8.526   8.773   6.300
12807WAT     H138663   8.492   8.681   6.320
12807WAT     H238664   8.477   8.809   6.220
12808WAT      O38665   0.950   6.551   3.641
12808WAT     H138666   1.037   6.534   3.687
12808WAT     H238667   0.949   6.505   3.552
12809WAT      O38668   6.724   5.890   0.782
12809WAT     H138669   6.776   5.970   0.750
12809WAT     H238670   6.691   5.839   0.703
12810WAT      O38671   6.663   6.467   0.306
12810WAT     H138672   6.577   6.445   0.258
12810WAT     H238673   6.707   6.382   0.335
12811WAT      O38674   0.990   9.443   2.659
12811WAT     H138675   1.089   9.430   2.648
12811WAT     H238676   0.973   9.510   2.731
12812WAT      O38677   2.169   2.197   6.019
12812WAT     H138678   2.172   2.239   6.109
12812WAT     H238679   2.221   2.111   6.021
12813WAT      O38680   3.219   6.177   6.096
12813WAT     H138681   3.267   6.089   6.094
12813WAT     H238682   3.274   6.243   6.149
12814WAT      O38683   8.499   7.863   2.611
12814WAT     H138684   8.586   7.912   2.604
12814WAT     H238685   8.442   7.884   2.532
12815WAT      O38686   0.336   3.911   2.506
12815WAT     H138687   0.408   3.905   2.437
12815WAT     H238688   0.372   3.959   2.587
12816WAT      O38689   8.188   5.958   9.076
12816WAT     H138690   8.184   6.016   9.158
12816WAT     H238691   8.106   5.900   9.073
12817WAT      O38692   5.260   2.593   4.459
12817WAT     H138693   5.325   2.638   4.520
12817WAT     H238694   5.306   2.518   4.410
12818WAT      O38695   6.791   0.901   1.422
12818WAT     H138696   6.733   0.853   1.488
12818WAT     H238697   6.734   0.942   1.351
12819WAT      O38698   8.531   2.911   4.232
12819WAT     H138699   8.506   3.001   4.269
12819WAT     H238700   8.620   2.884   4.269
12820WAT      O38701   7.448   6.722   7.693
12820WAT     H138702   7.436   6.780   7.774
12820WAT     H238703   7.537   6.678   7.697
12821WAT      O38704   5.327   8.908   2.805
12821WAT     H138705   5.232   8.879   2.819
12821WAT     H238706   5.389   8.835   2.834
12822WAT      O38707   1.568   7.499   2.715
12822WAT     H138708   1.655   7.462   2.683
12822WAT     H238709   1.569   7.599   2.707
12823WAT      O38710   0.042   5.467   7.471
12823WAT     H138711  -0.031   5.484   7.536
12823WAT     H238712   0.005   5.460   7.378
12824WAT      O38713   8.461   5.473   8.552
12824WAT     H138714   8.465   5.556   8.607
12824WAT     H238715   8.390   5.481   8.483
12825WAT      O38716   3.004   7.027   0.607
12825WAT     H138717   2.992   6.942   0.556
12825WAT     H238718   3.008   7.007   0.705
12826WAT      O38719   0.903   8.465   0.009
12826WAT     H138720   0.957   8.392  -0.033
12826WAT     H238721   0.866   8.524  -0.062
12827WAT      O38722   5.731   2.633   3.348
12827WAT     H138723   5.703   2.578   3.427
12827WAT     H238724   5.756   2.572   3.272
12828WAT      O38725   2.503   9.803   4.510
12828WAT     H138726   2.571   9.875   4.519
12828WAT     H238727   2.546   9.714   4.524
12829WAT      O38728   7.863   9.747   6.843
12829WAT     H138729   7.852   9.845   6.824
12829WAT     H238730   7.960   9.727   6.857
12830WAT      O38731   0.617   1.064   4.299
12830WAT     H138732   0.594   1.081   4.395
12830WAT     H238733   0.660   0.974   4.290
12831WAT      O38734   5.514   3.005   2.872
12831WAT     H138735   5.506   2.944   2.794
12831WAT     H238736   5.467   2.965   2.951
12832WAT      O38737   3.983   9.409   2.652
12832WAT     H138738   3.906   9.397   2.715
12832WAT     H238739   3.988   9.505   2.624
12833WAT      O38740   1.809   1.522   2.434
12833WAT     H138741   1.907   1.510   2.419
12833WAT     H238742   1.763   1.434   2.426
12834WAT      O38743   5.770   9.347   2.434
12834WAT     H138744   5.802   9.300   2.517
12834WAT     H238745   5.836   9.333   2.360
12835WAT      O38746   2.322   4.061   7.694
12835WAT     H138747   2.338   4.157   7.715
12835WAT     H238748   2.246   4.028   7.749
12836WAT      O38749   4.341   5.447   9.126
12836WAT     H138750   4.420   5.402   9.168
12836WAT     H238751   4.369   5.490   9.040
12837WAT      O38752   7.322   1.431   9.627
12837WAT     H138753   7.405   1.478   9.599
12837WAT     H238754   7.344   1.338   9.655
12838WAT      O38755   8.061   7.884   3.528
12838WAT     H138756   8.003   7.812   3.489
12838WAT     H238757   8.077   7.955   3.459
12839WAT      O38758   9.394   4.876   7.790
12839WAT     H138759   9.364   4.798   7.845
12839WAT     H238760   9.472   4.849   7.734
12840WAT      O38761   0.365   6.628   1.409
12840WAT     H138762   0.362   6.528   1.414
12840WAT     H238763   0.302   6.660   1.337
12841WAT      O38764   7.850   6.408   2.934
12841WAT     H138765   7.773   6.411   2.997
12841WAT     H238766   7.899   6.496   2.937
12842WAT      O38767   9.738   6.143   0.670
12842WAT     H138768   9.723   6.224   0.613
12842WAT     H238769   9.733   6.061   0.613
12843WAT      O38770   1.981   3.196   3.601
12843WAT     H138771   2.051   3.134   3.639
12843WAT     H238772   1.982   3.282   3.652
12844WAT      O38773   8.398   1.244   9.280
12844WAT     H138774   8.334   1.292   9.339
12844WAT     H238775   8.473   1.206   9.334
12845WAT      O38776   0.668   2.193   6.916
12845WAT     H138777   0.602   2.236   6.978
12845WAT     H238778   0.678   2.248   6.833
12846WAT      O38779   7.152   6.618   4.818
12846WAT     H138780   7.225   6.573   4.870
12846WAT     H238781   7.151   6.582   4.724
12847WAT      O38782   9.474   1.213   3.942
12847WAT     H138783   9.448   1.206   4.038
12847WAT     H238784   9.412   1.158   3.886
12848WAT      O38785   9.066   2.156   8.128
12848WAT     H138786   9.134   2.141   8.056
12848WAT     H238787   9.085   2.243   8.174
12849WAT      O38788   3.161   8.095   3.478
12849WAT     H138789   3.165   8.178   3.423
12849WAT     H238790   3.172   8.118   3.575
12850WAT      O38791   0.355   2.840   7.207
12850WAT     H138792   0.342   2.939   7.213
12850WAT     H238793   0.389   2.817   7.116
12851WAT      O38794   4.465   3.288   2.592
12851WAT     H138795   4.452   3.220   2.664
12851WAT     H238796   4.388   3.284   2.529
12852WAT      O38797   1.572   8.012   6.058
12852WAT     H138798   1.566   7.914   6.078
12852WAT     H238799   1.484   8.044   6.022
12853WAT      O38800   5.674   5.566   3.403
12853WAT     H138801   5.752   5.565   3.340
12853WAT     H238802   5.704   5.536   3.494
12854WAT      O38803   5.459   2.516   0.823
12854WAT     H138804   5.375   2.482   0.781
12854WAT     H238805   5.492   2.450   0.890
12855WAT      O38806   6.357   3.631   7.418
12855WAT     H138807   6.436   3.575   7.394
12855WAT     H238808   6.307   3.656   7.335
12856WAT      O38809   6.626   8.110   1.247
12856WAT     H138810   6.613   8.207   1.268
12856WAT     H238811   6.592   8.090   1.155
12857WAT      O38812   7.688   5.439   6.255
12857WAT     H138813   7.775   5.488   6.258
12857WAT     H238814   7.613   5.504   6.242
12858WAT      O38815   1.370   7.476   8.790
12858WAT     H138816   1.317   7.498   8.872
12858WAT     H238817   1.328   7.520   8.711
12859WAT      O38818   0.572   8.658   3.485
12859WAT     H138819   0.574   8.620   3.578
12859WAT     H238820   0.526   8.746   3.486
12860WAT      O38821   2.769   4.743   2.342
12860WAT     H138822   2.839   4.780   2.403
12860WAT     H238823   2.679   4.774   2.372
12861WAT      O38824   2.347   2.579   1.989
12861WAT     H138825   2.442   2.606   1.975
12861WAT     H238826   2.298   2.580   1.902
12862WAT      O38827   4.087   5.345   3.488
12862WAT     H138828   4.044   5.286   3.420
12862WAT     H238829   4.185   5.326   3.491
12863WAT      O38830   8.073   9.335   7.948
12863WAT     H138831   7.973   9.334   7.938
12863WAT     H238832   8.113   9.400   7.884
12864WAT      O38833   9.629   1.766   7.580
12864WAT     H138834   9.539   1.755   7.623
12864WAT     H238835   9.628   1.728   7.488
12865WAT      O38836   7.039   8.974   7.868
12865WAT     H138837   7.085   8.890   7.837
12865WAT     H238838   7.098   9.053   7.849
12866WAT      O38839   3.779   9.503   9.817
12866WAT     H138840   3.850   9.447   9.773
12866WAT     H238841   3.817   9.593   9.839
12867WAT      O38842   2.324   2.038   9.878
12867WAT     H138843   2.267   2.003   9.803
12867WAT     H238844   2.420   2.041   9.849
12868WAT      O38845   5.189   6.680   3.914
12868WAT     H138846   5.133   6.762   3.927
12868WAT     H238847   5.249   6.667   3.992
12869WAT      O38848   0.171   3.372   4.696
12869WAT     H138849   0.271   3.365   4.707
12869WAT     H238850   0.149   3.460   4.652
12870WAT      O38851   2.372   4.240   3.339
12870WAT     H138852   2.470   4.233   3.322
12870WAT     H238853   2.332   4.306   3.276
12871WAT      O38854   4.777   5.794   0.244
12871WAT     H138855   4.818   5.818   0.156
12871WAT     H238856   4.809   5.859   0.314
12872WAT      O38857   6.554   4.993   4.437
12872WAT     H138858   6.579   4.929   4.510
12872WAT     H238859   6.626   5.062   4.428
12873WAT      O38860   8.296   1.432   6.820
12873WAT     H138861   8.257   1.390   6.902
12873WAT     H238862   8.316   1.361   6.753
12874WAT      O38863   7.162   0.454   1.606
12874WAT     H138864   7.227   0.383   1.634
12874WAT     H238865   7.180   0.538   1.655
12875WAT      O38866   3.802   1.221   9.374
12875WAT     H138867   3.705   1.220   9.352
12875WAT     H238868   3.826   1.138   9.425
12876WAT      O38869   1.954   8.862   2.834
12876WAT     H138870   1.873   8.904   2.875
12876WAT     H238871   2.018   8.834   2.906
12877WAT      O38872   6.794   2.103   0.868
12877WAT     H138873   6.785   2.082   0.965
12877WAT     H238874   6.869   2.168   0.854
12878WAT      O38875   3.558   1.587   3.712
12878WAT     H138876   3.570   1.488   3.708
12878WAT     H238877   3.647   1.632   3.717
12879WAT      O38878   3.017   3.881   2.630
12879WAT     H138879   3.000   3.952   2.699
12879WAT     H238880   2.964   3.799   2.653
12880WAT      O38881   9.464   7.383   8.310
12880WAT     H138882   9.388   7.359   8.251
12880WAT     H238883   9.504   7.470   8.280
12881WAT      O38884   6.484   6.496   6.161
12881WAT     H138885   6.404   6.539   6.119
12881WAT     H238886   6.541   6.567   6.204
12882WAT      O38887   8.206   0.271   4.786
12882WAT     H138888   8.269   0.251   4.861
12882WAT     H238889   8.126   0.320   4.821
12883WAT      O38890   2.411   7.602   1.467
12883WAT     H138891   2.436   7.648   1.552
12883WAT     H238892   2.379   7.670   1.400
12884WAT      O38893   9.793   4.339   4.534
12884WAT     H138894   9.859   4.413   4.552
12884WAT     H238895   9.705   4.379   4.508
12885WAT      O38896   4.150   5.522   7.450
12885WAT     H138897   4.054   5.534   7.474
12885WAT     H238898   4.180   5.431   7.480
12886WAT      O38899   4.398   2.684   0.242
12886WAT     H138900   4.414   2.778   0.272
12886WAT     H238901   4.393   2.682   0.142
12887WAT      O38902   5.403   1.489   0.637
12887WAT     H138903   5.466   1.416   0.664
12887WAT     H238904   5.448   1.577   0.645
12888WAT      O38905   7.316   5.687   5.928
12888WAT     H138906   7.373   5.707   5.848
12888WAT     H238907   7.235   5.636   5.900
12889WAT      O38908   8.041   2.855   3.796
12889WAT     H138909   7.965   2.897   3.746
12889WAT     H238910   8.031   2.874   3.893
12890WAT      O38911   9.344   2.631   5.027
12890WAT     H138912   9.318   2.562   5.095
12890WAT     H238913   9.266   2.690   5.006
12891WAT      O38914   0.569   3.250   9.109
12891WAT     H138915   0.607   3.342   9.110
12891WAT     H238916   0.632   3.188   9.063
12892WAT      O38917   0.368   0.736   8.565
12892WAT     H138918   0.378   0.649   8.516
12892WAT     H238919   0.366   0.719   8.663
12893WAT      O38920   2.111   8.232   9.246
12893WAT     H138921   2.056   8.262   9.325
12893WAT     H238922   2.056   8.172   9.189
12894WAT      O38923   9.273   6.429   7.149
12894WAT     H138924   9.205   6.367   7.110
12894WAT     H238925   9.240   6.523   7.144
12895WAT      O38926   0.305   6.557   7.833
12895WAT     H138927   0.218   6.587   7.873
12895WAT     H238928   0.320   6.605   7.747
12896WAT      O38929   1.823   4.474   2.354
12896WAT     H138930   1.740   4.492   2.302
12896WAT     H238931   1.871   4.561   2.371
12897WAT      O38932   0.197   3.937   3.431
12897WAT     H138933   0.189   3.842   3.462
12897WAT     H238934   0.122   3.959   3.369
12898WAT      O38935   7.923   4.827   1.457
12898WAT     H138936   8.000   4.863   1.404
12898WAT     H238937   7.852   4.897   1.463
12899WAT      O38938   9.661   9.307   5.002
12899WAT     H138939   9.708   9.395   5.004
12899WAT     H238940   9.636   9.281   5.096
12900WAT      O38941   0.468   0.906   6.339
12900WAT     H138942   0.454   0.982   6.403
12900WAT     H238943   0.476   0.941   6.246
12901WAT      O38944   7.680   1.169   6.311
12901WAT     H138945   7.603   1.115   6.345
12901WAT     H238946   7.702   1.141   6.217
12902WAT      O38947   0.216   0.458   2.354
12902WAT     H138948   0.140   0.485   2.294
12902WAT     H238949   0.204   0.500   2.444
12903WAT      O38950   4.689   5.071   6.410
12903WAT     H138951   4.642   5.153   6.379
12903WAT     H238952   4.747   5.036   6.337
12904WAT      O38953   4.105   4.217   2.862
12904WAT     H138954   4.181   4.262   2.908
12904WAT     H238955   4.131   4.124   2.837
12905WAT      O38956   9.892   6.819   4.660
12905WAT     H138957   9.843   6.770   4.732
12905WAT     H238958   9.827   6.859   4.596
12906WAT      O38959   9.426   3.750   8.672
12906WAT     H138960   9.433   3.664   8.621
12906WAT     H238961   9.514   3.796   8.672
12907WAT      O38962   4.746   5.934   8.958
12907WAT     H138963   4.831   5.986   8.963
12907WAT     H238964   4.669   5.992   8.984
12908WAT      O38965   9.061   8.131   5.526
12908WAT     H138966   9.124   8.196   5.568
12908WAT     H238967   9.103   8.092   5.443
12909WAT      O38968   9.402   4.765   7.083
12909WAT     H138969   9.405   4.767   7.183
12909WAT     H238970   9.493   4.741   7.048
12910WAT      O38971   3.152   8.178   7.072
12910WAT     H138972   3.070   8.227   7.102
12910WAT     H238973   3.227   8.243   7.061
12911WAT      O38974   1.685   5.981   5.590
12911WAT     H138975   1.778   5.970   5.626
12911WAT     H238976   1.643   6.063   5.630
12912WAT      O38977   7.228   9.349   4.534
12912WAT     H138978   7.207   9.319   4.441
12912WAT     H238979   7.325   9.373   4.540
12913WAT      O38980   1.355   5.083   9.718
12913WAT     H138981   1.450   5.076   9.688
12913WAT     H238982   1.326   4.997   9.760
12914WAT      O38983   0.676   8.392   8.813
12914WAT     H138984   0.699   8.313   8.871
12914WAT     H238985   0.595   8.437   8.850
12915WAT      O38986   9.047   2.101   5.931
12915WAT     H138987   8.980   2.152   5.986
12915WAT     H238988   9.123   2.073   5.989
12916WAT      O38989   0.801   9.756   1.394
12916WAT     H138990   0.887   9.708   1.411
12916WAT     H238991   0.761   9.784   1.481
12917WAT      O38992   2.395   7.715   6.187
12917WAT     H138993   2.338   7.657   6.129
12917WAT     H238994   2.336   7.769   6.248
12918WAT      O38995   5.651   9.114   5.587
12918WAT     H138996   5.715   9.060   5.642
12918WAT     H238997   5.676   9.109   5.491
12919WAT      O38998   3.202   9.046   2.990
12919WAT     H138999   3.163   9.030   2.899
12919WAT     H239000   3.293   9.004   2.995
12920WAT      O39001   7.666   1.287   2.842
12920WAT     H139002   7.740   1.352   2.822
12920WAT     H239003   7.624   1.311   2.929
12921WAT      O39004   3.360   8.316   4.681
12921WAT     H139005   3.403   8.241   4.731
12921WAT     H239006   3.314   8.280   4.600
12922WAT      O39007   3.640   7.183   7.142
12922WAT     H139008   3.668   7.260   7.199
12922WAT     H239009   3.632   7.101   7.199
12923WAT      O39010   0.212   0.546   0.695
12923WAT     H139011   0.137   0.501   0.648
12923WAT     H239012   0.285   0.480   0.713
12924WAT      O39013   3.269   4.181   6.565
12924WAT     H139014   3.237   4.103   6.512
12924WAT     H239015   3.248   4.266   6.516
12925WAT      O39016   8.044   8.082   3.836
12925WAT     H139017   7.954   8.122   3.819
12925WAT     H239018   8.115   8.137   3.791
12926WAT      O39019   6.017   0.995   9.577
12926WAT     H139020   6.030   0.899   9.553
12926WAT     H239021   5.956   1.001   9.656
12927WAT      O39022   5.244   8.768   8.523
12927WAT     H139023   5.313   8.831   8.559
12927WAT     H239024   5.153   8.800   8.549
12928WAT      O39025   9.749   6.726   3.224
12928WAT     H139026   9.803   6.643   3.226
12928WAT     H239027   9.796   6.799   3.274
12929WAT      O39028   7.666   0.786   1.338
12929WAT     H139029   7.735   0.721   1.308
12929WAT     H239030   7.698   0.834   1.419
12930WAT      O39031   2.427   8.445   9.849
12930WAT     H139032   2.485   8.376   9.805
12930WAT     H239033   2.380   8.404   9.927
12931WAT      O39034   5.001   0.372   7.740
12931WAT     H139035   4.942   0.327   7.807
12931WAT     H239036   4.946   0.430   7.680
12932WAT      O39037   0.060   6.314   7.900
12932WAT     H139038   0.071   6.413   7.893
12932WAT     H239039   0.102   6.270   7.821
12933WAT      O39040   7.366   9.156   6.409
12933WAT     H139041   7.345   9.254   6.410
12933WAT     H239042   7.466   9.143   6.408
12934WAT      O39043   5.262   6.964   1.511
12934WAT     H139044   5.333   6.902   1.545
12934WAT     H239045   5.278   6.983   1.414
12935WAT      O39046   1.749   7.583   9.897
12935WAT     H139047   1.823   7.581   9.829
12935WAT     H239048   1.678   7.647   9.866
12936WAT      O39049   5.786   2.899   9.818
12936WAT     H139050   5.883   2.875   9.822
12936WAT     H239051   5.732   2.818   9.793
12937WAT      O39052   4.631   7.261   2.657
12937WAT     H139053   4.568   7.205   2.604
12937WAT     H239054   4.599   7.356   2.657
12938WAT      O39055   5.027   0.228   2.609
12938WAT     H139056   5.114   0.265   2.643
12938WAT     H239057   5.045   0.170   2.529
12939WAT      O39058   8.438   7.041   3.759
12939WAT     H139059   8.446   6.966   3.693
12939WAT     H239060   8.341   7.055   3.780
12940WAT      O39061   9.370   3.024   3.967
12940WAT     H139062   9.374   2.989   4.060
12940WAT     H239063   9.345   2.950   3.905
12941WAT      O39064   0.834   5.203   2.074
12941WAT     H139065   0.855   5.176   1.980
12941WAT     H239066   0.771   5.137   2.114
12942WAT      O39067   3.741   4.966   3.954
12942WAT     H139068   3.838   4.962   3.980
12942WAT     H239069   3.697   4.879   3.975
12943WAT      O39070   4.308   8.517   1.686
12943WAT     H139071   4.277   8.570   1.607
12943WAT     H239072   4.401   8.486   1.670
12944WAT      O39073   3.834   3.888   6.125
12944WAT     H139074   3.799   3.943   6.049
12944WAT     H239075   3.778   3.806   6.135
12945WAT      O39076   8.696   8.752   5.816
12945WAT     H139077   8.676   8.668   5.868
12945WAT     H239078   8.675   8.832   5.873
12946WAT      O39079   5.800   3.235   7.404
12946WAT     H139080   5.833   3.314   7.455
12946WAT     H239081   5.736   3.265   7.333
12947WAT      O39082   9.132   8.968   9.155
12947WAT     H139083   9.141   9.059   9.115
12947WAT     H239084   9.161   8.971   9.251
12948WAT      O39085   0.798   0.091   4.938
12948WAT     H139086   0.743   0.011   4.914
12948WAT     H239087   0.745   0.152   4.996
12949WAT      O39088   6.843   2.133   8.814
12949WAT     H139089   6.925   2.190   8.817
12949WAT     H239090   6.764   2.190   8.792
12950WAT      O39091   9.107   0.063   7.346
12950WAT     H139092   9.010   0.039   7.345
12950WAT     H239093   9.148   0.029   7.431
12951WAT      O39094   0.549   1.879   0.480
12951WAT     H139095   0.634   1.868   0.532
12951WAT     H239096   0.503   1.962   0.510
12952WAT      O39097   1.923   1.472   3.361
12952WAT     H139098   1.939   1.408   3.435
12952WAT     H239099   1.914   1.422   3.275
12953WAT      O39100   4.782   2.586   3.770
12953WAT     H139101   4.881   2.600   3.776
12953WAT     H239102   4.743   2.580   3.861
12954WAT      O39103   0.120   1.059   7.123
12954WAT     H139104   0.115   1.147   7.168
12954WAT     H239105   0.085   1.067   7.029
12955WAT      O39106   5.919   8.420   2.765
12955WAT     H139107   5.964   8.447   2.679
12955WAT     H239108   5.988   8.403   2.835
12956WAT      O39109   2.766   6.198   0.765
12956WAT     H139110   2.834   6.253   0.813
12956WAT     H239111   2.720   6.137   0.830
12957WAT      O39112   5.383   1.344   5.022
12957WAT     H139113   5.416   1.438   5.032
12957WAT     H239114   5.402   1.294   5.106
12958WAT      O39115   2.187   4.380   4.447
12958WAT     H139116   2.256   4.308   4.461
12958WAT     H239117   2.107   4.341   4.402
12959WAT      O39118   3.289   7.850   3.855
12959WAT     H139119   3.357   7.808   3.795
12959WAT     H239120   3.203   7.861   3.807
12960WAT      O39121   5.361   4.114   3.659
12960WAT     H139122   5.429   4.177   3.695
12960WAT     H239123   5.407   4.037   3.615
12961WAT      O39124   1.204   2.830   5.163
12961WAT     H139125   1.243   2.821   5.254
12961WAT     H239126   1.118   2.779   5.158
12962WAT      O39127   1.126   8.266   5.622
12962WAT     H139128   1.043   8.260   5.678
12962WAT     H239129   1.108   8.326   5.544
12963WAT      O39130   7.458   1.116   5.507
12963WAT     H139131   7.484   1.098   5.602
12963WAT     H239132   7.417   1.033   5.468
12964WAT      O39133   5.356   3.147   5.177
12964WAT     H139134   5.437   3.127   5.232
12964WAT     H239135   5.342   3.074   5.110
12965WAT      O39136   0.830   2.886   2.730
12965WAT     H139137   0.820   2.948   2.807
12965WAT     H239138   0.896   2.925   2.665
12966WAT      O39139   2.010   2.003   3.313
12966WAT     H139140   1.920   2.046   3.307
12966WAT     H239141   2.002   1.917   3.364
12967WAT      O39142   8.809   6.594   3.421
12967WAT     H139143   8.746   6.665   3.391
12967WAT     H239144   8.900   6.611   3.383
12968WAT      O39145   5.862   9.595   0.226
12968WAT     H139146   5.802   9.626   0.152
12968WAT     H239147   5.813   9.528   0.282
12969WAT      O39148   1.432   4.456   0.931
12969WAT     H139149   1.420   4.516   0.853
12969WAT     H239150   1.478   4.506   1.005
12970WAT      O39151   7.665   6.063   3.100
12970WAT     H139152   7.667   6.011   3.014
12970WAT     H239153   7.657   6.161   3.079
12971WAT      O39154   6.686   7.120   2.715
12971WAT     H139155   6.628   7.193   2.677
12971WAT     H239156   6.634   7.068   2.783
12972WAT      O39157   3.991   4.895   0.472
12972WAT     H139158   3.984   4.846   0.559
12972WAT     H239159   4.086   4.892   0.440
12973WAT      O39160   0.748   4.190   2.317
12973WAT     H139161   0.809   4.120   2.353
12973WAT     H239162   0.694   4.229   2.392
12974WAT      O39163   7.693   7.244   4.988
12974WAT     H139164   7.722   7.164   4.936
12974WAT     H239165   7.774   7.290   5.026
12975WAT      O39166   0.056   9.151   3.525
12975WAT     H139167   0.064   9.164   3.624
12975WAT     H239168   0.117   9.215   3.478
12976WAT      O39169   5.385   0.253   2.436
12976WAT     H139170   5.373   0.344   2.398
12976WAT     H239171   5.364   0.254   2.534
12977WAT      O39172   6.206   5.236   7.861
12977WAT     H139173   6.133   5.194   7.806
12977WAT     H239174   6.282   5.172   7.870
12978WAT      O39175   1.116   4.113   5.720
12978WAT     H139176   1.186   4.052   5.683
12978WAT     H239177   1.131   4.206   5.684
12979WAT      O39178   7.375   4.040   0.788
12979WAT     H139179   7.358   4.059   0.884
12979WAT     H239180   7.332   3.953   0.763
12980WAT      O39181   5.199   6.320   0.158
12980WAT     H139182   5.242   6.409   0.139
12980WAT     H239183   5.152   6.324   0.246
12981WAT      O39184   1.004   5.085   3.919
12981WAT     H139185   0.972   5.168   3.873
12981WAT     H239186   1.098   5.066   3.893
12982WAT      O39187   0.852   2.456   9.596
12982WAT     H139188   0.759   2.493   9.593
12982WAT     H239189   0.851   2.360   9.568
12983WAT      O39190   3.256   7.511   9.008
12983WAT     H139191   3.212   7.421   9.006
12983WAT     H239192   3.211   7.572   8.943
12984WAT      O39193   7.999   8.662   3.910
12984WAT     H139194   8.008   8.757   3.879
12984WAT     H239195   7.906   8.630   3.894
12985WAT      O39196   9.604   5.835   4.851
12985WAT     H139197   9.662   5.805   4.774
12985WAT     H239198   9.586   5.933   4.842
12986WAT      O39199   4.903   9.456   5.274
12986WAT     H139200   4.852   9.451   5.188
12986WAT     H239201   4.924   9.363   5.306
12987WAT      O39202   2.248   8.066   4.634
12987WAT     H139203   2.217   8.149   4.588
12987WAT     H239204   2.214   8.065   4.728
12988WAT      O39205   3.177   0.947   0.018
12988WAT     H139206   3.112   0.995  -0.041
12988WAT     H239207   3.127   0.890   0.084
12989WAT      O39208   3.604   8.073   9.134
12989WAT     H139209   3.605   8.082   9.035
12989WAT     H239210   3.696   8.091   9.170
12990WAT      O39211   6.489   8.430   5.928
12990WAT     H139212   6.481   8.399   6.023
12990WAT     H239213   6.523   8.355   5.871
12991WAT      O39214   5.012   2.204   0.347
12991WAT     H139215   4.953   2.141   0.296
12991WAT     H239216   5.106   2.171   0.342
12992WAT      O39217   7.297   8.273   6.432
12992WAT     H139218   7.312   8.369   6.459
12992WAT     H239219   7.358   8.214   6.485
12993WAT      O39220   5.003   0.717   5.094
12993WAT     H139221   5.063   0.772   5.036
12993WAT     H239222   5.025   0.733   5.190
12994WAT      O39223   5.231   6.631   7.385
12994WAT     H139224   5.137   6.618   7.354
12994WAT     H239225   5.273   6.706   7.334
12995WAT      O39226   0.577   1.757   4.029
12995WAT     H139227   0.632   1.715   4.101
12995WAT     H239228   0.614   1.847   4.007
12996WAT      O39229   0.481   6.265   7.486
12996WAT     H139230   0.507   6.238   7.579
12996WAT     H239231   0.449   6.359   7.486
12997WAT      O39232   9.095   3.547   6.579
12997WAT     H139233   9.093   3.447   6.579
12997WAT     H239234   9.004   3.581   6.555
12998WAT      O39235   9.661   6.448   4.660
12998WAT     H139236   9.590   6.383   4.689
12998WAT     H239237   9.748   6.399   4.648
12999WAT      O39238   5.636   4.914   9.595
12999WAT     H139239   5.687   4.993   9.629
12999WAT     H239240   5.700   4.844   9.565
13000WAT      O39241   7.433   7.498   2.017
13000WAT     H139242   7.459   7.576   1.960
13000WAT     H239243   7.338   7.509   2.047
13001WAT      O39244   9.623   7.440   2.420
13001WAT     H139245   9.524   7.445   2.407
13001WAT     H239246   9.662   7.373   2.356
13002WAT      O39247   4.562   7.427   8.348
13002WAT     H139248   4.597   7.459   8.260
13002WAT     H239249   4.464   7.410   8.341
13003WAT      O39250   6.728   6.772   0.770
13003WAT     H139251   6.669   6.852   0.767
13003WAT     H239252   6.747   6.741   0.677
13004WAT      O39253   2.257   9.682   4.462
13004WAT     H139254   2.206   9.746   4.403
13004WAT     H239255   2.342   9.726   4.492
13005WAT      O39256   2.190   4.804   0.654
13005WAT     H139257   2.204   4.901   0.676
13005WAT     H239258   2.187   4.793   0.555
13006WAT      O39259   7.043   5.777   2.410
13006WAT     H139260   6.977   5.761   2.484
13006WAT     H239261   7.017   5.859   2.359
13007WAT      O39262   6.264   0.314   5.952
13007WAT     H139263   6.322   0.233   5.942
13007WAT     H239264   6.306   0.376   6.018
13008WAT      O39265   0.926   1.445   1.473
13008WAT     H139266   0.873   1.442   1.558
13008WAT     H239267   1.023   1.451   1.494
13009WAT      O39268   1.298   0.546   9.558
13009WAT     H139269   1.248   0.504   9.483
13009WAT     H239270   1.249   0.530   9.644
13010WAT      O39271   9.498   4.363   4.374
13010WAT     H139272   9.567   4.435   4.384
13010WAT     H239273   9.407   4.402   4.386
13011WAT      O39274   7.247   3.188   1.035
13011WAT     H139275   7.198   3.223   0.956
13011WAT     H239276   7.343   3.173   1.011
13012WAT      O39277   2.010   5.920   0.660
13012WAT     H139278   2.098   5.923   0.612
13012WAT     H239279   1.945   5.865   0.608
13013WAT      O39280   6.970   9.080   8.247
13013WAT     H139281   6.933   9.102   8.337
13013WAT     H239282   7.070   9.080   8.251
13014WAT      O39283   5.437   6.811   7.288
13014WAT     H139284   5.494   6.871   7.231
13014WAT     H239285   5.492   6.733   7.319
13015WAT      O39286   4.457   4.552   4.794
13015WAT     H139287   4.435   4.567   4.698
13015WAT     H239288   4.534   4.488   4.801
13016WAT      O39289   3.540   7.676   3.108
13016WAT     H139290   3.585   7.765   3.112
13016WAT     H239291   3.466   7.673   3.175
13017WAT      O39292   8.731   1.366   2.111
13017WAT     H139293   8.644   1.351   2.064
13017WAT     H239294   8.797   1.405   2.047
13018WAT      O39295   0.489   6.554   3.298
13018WAT     H139296   0.460   6.638   3.344
13018WAT     H239297   0.587   6.540   3.315
13019WAT      O39298   6.715   0.489   3.493
13019WAT     H139299   6.729   0.566   3.555
13019WAT     H239300   6.746   0.514   3.401
13020WAT      O39301   3.657   2.240   0.080
13020WAT     H139302   3.563   2.210   0.097
13020WAT     H239303   3.712   2.162   0.048
13021WAT      O39304   4.827   1.449   3.834
13021WAT     H139305   4.743   1.395   3.837
13021WAT     H239306   4.886   1.415   3.760
13022WAT      O39307   6.003   9.782   7.235
13022WAT     H139308   6.093   9.809   7.202
13022WAT     H239309   6.012   9.719   7.312
13023WAT      O39310   9.887   4.967   8.862
13023WAT     H139311   9.822   4.891   8.854
13023WAT     H239312   9.975   4.939   8.823
13024WAT      O39313   2.203   4.980   7.797
13024WAT     H139314   2.220   4.901   7.855
13024WAT     H239315   2.213   4.954   7.701
13025WAT      O39316   7.478   0.847   1.973
13025WAT     H139317   7.421   0.844   2.056
13025WAT     H239318   7.521   0.758   1.959
13026WAT      O39319   8.018   6.190   5.644
13026WAT     H139320   7.962   6.112   5.670
13026WAT     H239321   8.017   6.258   5.717
13027WAT      O39322   8.596   7.417   9.499
13027WAT     H139323   8.524   7.442   9.434
13027WAT     H239324   8.574   7.329   9.541
13028WAT      O39325   9.529   3.533   2.398
13028WAT     H139326   9.439   3.570   2.421
13028WAT     H239327   9.533   3.514   2.300
13029WAT      O39328   0.493   3.510   4.131
13029WAT     H139329   0.536   3.599   4.110
13029WAT     H239330   0.488   3.499   4.230
13030WAT      O39331   9.566   1.996   9.375
13030WAT     H139332   9.651   2.028   9.417
13030WAT     H239333   9.525   2.070   9.322
13031WAT      O39334   4.589   6.171   8.997
13031WAT     H139335   4.525   6.169   8.920
13031WAT     H239336   4.628   6.262   9.006
13032WAT      O39337   3.619   9.333   4.368
13032WAT     H139338   3.522   9.353   4.355
13032WAT     H239339   3.674   9.405   4.324
13033WAT      O39340   2.334   5.859   6.542
13033WAT     H139341   2.240   5.894   6.542
13033WAT     H239342   2.397   5.930   6.572
13034WAT      O39343   5.891   1.058   1.010
13034WAT     H139344   5.794   1.075   1.030
13034WAT     H239345   5.918   0.970   1.050
13035WAT      O39346   2.921   5.399   4.852
13035WAT     H139347   2.939   5.497   4.863
13035WAT     H239348   2.886   5.362   4.937
13036WAT      O39349   2.366   3.557   3.929
13036WAT     H139350   2.412   3.608   3.856
13036WAT     H239351   2.433   3.525   3.995
13037WAT      O39352   7.503   2.773   7.570
13037WAT     H139353   7.507   2.733   7.662
13037WAT     H239354   7.492   2.872   7.577
13038WAT      O39355   9.057   4.885   5.264
13038WAT     H139356   9.068   4.981   5.289
13038WAT     H239357   9.130   4.831   5.306
13039WAT      O39358   9.070   9.189   0.162
13039WAT     H139359   9.053   9.211   0.258
13039WAT     H239360   9.142   9.249   0.126
13040WAT      O39361   1.801   0.211   1.791
13040WAT     H139362   1.784   0.296   1.740
13040WAT     H239363   1.842   0.143   1.730
13041WAT      O39364   2.014   0.252   8.341
13041WAT     H139365   1.978   0.230   8.431
13041WAT     H239366   2.109   0.281   8.349
13042WAT      O39367   4.330   2.471   9.110
13042WAT     H139368   4.263   2.432   9.047
13042WAT     H239369   4.372   2.551   9.068
13043WAT      O39370   1.755   6.540   6.180
13043WAT     H139371   1.812   6.573   6.104
13043WAT     H239372   1.662   6.525   6.148
13044WAT      O39373   8.105   8.693   6.350
13044WAT     H139374   8.188   8.646   6.319
13044WAT     H239375   8.106   8.700   6.450
13045WAT      O39376   8.531   4.090   6.921
13045WAT     H139377   8.587   4.015   6.887
13045WAT     H239378   8.435   4.062   6.925
13046WAT      O39379   1.888   8.511   3.001
13046WAT     H139380   1.865   8.605   3.023
13046WAT     H239381   1.841   8.483   2.918
13047WAT      O39382   5.562   6.114   3.491
13047WAT     H139383   5.475   6.163   3.498
13047WAT     H239384   5.620   6.139   3.568
13048WAT      O39385   2.489   2.205   5.563
13048WAT     H139386   2.430   2.190   5.484
13048WAT     H239387   2.434   2.216   5.645
13049WAT      O39388   6.969   8.825   8.099
13049WAT     H139389   6.984   8.876   8.014
13049WAT     H239390   6.989   8.885   8.177
13050WAT      O39391   6.506   9.764   6.167
13050WAT     H139392   6.587   9.772   6.225
13050WAT     H239393   6.425   9.749   6.225
13051WAT      O39394   7.624   1.721   0.202
13051WAT     H139395   7.585   1.808   0.172
13051WAT     H239396   7.665   1.732   0.292
13052WAT      O39397   2.588   2.905   7.455
13052WAT     H139398   2.535   2.889   7.539
13052WAT     H239399   2.632   2.819   7.427
13053WAT      O39400   2.674   4.227   8.535
13053WAT     H139401   2.690   4.308   8.591
13053WAT     H239402   2.699   4.145   8.587
13054WAT      O39403   4.265   8.708   9.305
13054WAT     H139404   4.345   8.649   9.314
13054WAT     H239405   4.234   8.709   9.210
13055WAT      O39406   5.194   8.937   4.262
13055WAT     H139407   5.235   8.856   4.304
13055WAT     H239408   5.239   9.019   4.298
13056WAT      O39409   2.647   0.726   1.859
13056WAT     H139410   2.651   0.628   1.843
13056WAT     H239411   2.563   0.763   1.820
13057WAT      O39412   9.223   3.919   2.934
13057WAT     H139413   9.171   3.869   3.004
13057WAT     H239414   9.166   3.992   2.896
13058WAT      O39415   4.414   9.787   1.398
13058WAT     H139416   4.418   9.813   1.301
13058WAT     H239417   4.390   9.690   1.405
13059WAT      O39418   4.842   1.479   3.486
13059WAT     H139419   4.839   1.412   3.412
13059WAT     H239420   4.752   1.520   3.497
13060WAT      O39421   6.306   3.819   8.853
13060WAT     H139422   6.382   3.854   8.909
13060WAT     H239423   6.230   3.793   8.913
13061WAT      O39424   8.699   8.618   0.660
13061WAT     H139425   8.660   8.529   0.684
13061WAT     H239426   8.628   8.688   0.666
13062WAT      O39427   5.565   2.677   3.643
13062WAT     H139428   5.594   2.665   3.738
13062WAT     H239429   5.590   2.769   3.613
13063WAT      O39430   5.297   2.462   1.197
13063WAT     H139431   5.254   2.518   1.268
13063WAT     H239432   5.226   2.423   1.138
13064WAT      O39433   3.986   0.218   7.878
13064WAT     H139434   4.036   0.297   7.913
13064WAT     H239435   4.010   0.202   7.782
13065WAT      O39436   0.266   6.885   4.746
13065WAT     H139437   0.237   6.906   4.839
13065WAT     H239438   0.187   6.862   4.690
13066WAT      O39439   0.531   0.047   2.327
13066WAT     H139440   0.566   0.104   2.402
13066WAT     H239441   0.597   0.046   2.252
13067WAT      O39442   9.357   5.735   2.496
13067WAT     H139443   9.334   5.638   2.492
13067WAT     H239444   9.274   5.789   2.511
13068WAT      O39445   0.695   4.888   4.567
13068WAT     H139446   0.757   4.841   4.630
13068WAT     H239447   0.643   4.958   4.616
13069WAT      O39448   4.321   1.325   3.350
13069WAT     H139449   4.255   1.256   3.379
13069WAT     H239450   4.276   1.392   3.291
13070WAT      O39451   9.849   4.989   9.227
13070WAT     H139452   9.914   5.059   9.197
13070WAT     H239453   9.890   4.898   9.219
13071WAT      O39454   5.731   7.749   2.847
13071WAT     H139455   5.756   7.719   2.939
13071WAT     H239456   5.674   7.830   2.853
13072WAT      O39457   5.134   5.205   1.407
13072WAT     H139458   5.094   5.123   1.366
13072WAT     H239459   5.148   5.274   1.336
13073WAT      O39460   1.705   5.839   8.487
13073WAT     H139461   1.750   5.881   8.407
13073WAT     H239462   1.775   5.798   8.546
13074WAT      O39463   7.398   2.405   3.946
13074WAT     H139464   7.400   2.313   3.907
13074WAT     H239465   7.303   2.433   3.959
13075WAT      O39466   8.783   0.270   5.947
13075WAT     H139467   8.698   0.218   5.955
13075WAT     H239468   8.784   0.320   5.860
13076WAT      O39469   0.627   9.279   5.202
13076WAT     H139470   0.654   9.360   5.150
13076WAT     H239471   0.598   9.207   5.139
13077WAT      O39472   1.923   4.645   2.079
13077WAT     H139473   1.872   4.711   2.134
13077WAT     H239474   1.983   4.591   2.138
13078WAT      O39475   6.669   3.957   2.054
13078WAT     H139476   6.742   3.915   2.107
13078WAT     H239477   6.627   4.030   2.107
13079WAT      O39478   1.457   9.376   3.359
13079WAT     H139479   1.428   9.434   3.283
13079WAT     H239480   1.517   9.304   3.324
13080WAT      O39481   2.770   3.133   0.283
13080WAT     H139482   2.783   3.088   0.371
13080WAT     H239483   2.679   3.173   0.280
13081WAT      O39484   5.168   5.498   2.910
13081WAT     H139485   5.129   5.534   2.826
13081WAT     H239486   5.136   5.553   2.988
13082WAT      O39487   2.754   7.099   9.095
13082WAT     H139488   2.781   7.161   9.169
13082WAT     H239489   2.676   7.044   9.125
13083WAT      O39490   2.019   1.403   2.735
13083WAT     H139491   2.013   1.371   2.640
13083WAT     H239492   1.952   1.356   2.791
13084WAT      O39493   4.419   9.455   5.681
13084WAT     H139494   4.431   9.546   5.720
13084WAT     H239495   4.349   9.406   5.732
13085WAT      O39496   6.592   3.247   0.515
13085WAT     H139497   6.644   3.326   0.482
13085WAT     H239498   6.500   3.276   0.541
13086WAT      O39499   1.221   8.383   8.642
13086WAT     H139500   1.270   8.304   8.605
13086WAT     H239501   1.218   8.456   8.574
13087WAT      O39502   6.947   9.550   0.340
13087WAT     H139503   6.952   9.638   0.386
13087WAT     H239504   6.876   9.494   0.381
13088WAT      O39505   1.725   1.265   2.420
13088WAT     H139506   1.662   1.197   2.457
13088WAT     H239507   1.818   1.246   2.454
13089WAT      O39508   0.808   3.063   2.920
13089WAT     H139509   0.785   3.158   2.896
13089WAT     H239510   0.901   3.059   2.955
13090WAT      O39511   0.783   1.043   8.681
13090WAT     H139512   0.813   0.996   8.764
13090WAT     H239513   0.710   0.989   8.638
13091WAT      O39514   8.997   5.863   1.282
13091WAT     H139515   9.032   5.836   1.193
13091WAT     H239516   9.055   5.823   1.354
13092WAT      O39517   8.253   7.807   5.063
13092WAT     H139518   8.181   7.765   5.006
13092WAT     H239519   8.242   7.907   5.061
13093WAT      O39520   1.176   0.437   3.047
13093WAT     H139521   1.113   0.439   2.969
13093WAT     H239522   1.202   0.342   3.066
13094WAT      O39523   6.578   2.472   7.010
13094WAT     H139524   6.628   2.478   7.097
13094WAT     H239525   6.638   2.433   6.940
13095WAT      O39526   6.628   3.363   0.910
13095WAT     H139527   6.663   3.372   1.003
13095WAT     H239528   6.554   3.296   0.909
13096WAT      O39529   1.784   3.055   1.360
13096WAT     H139530   1.707   3.094   1.309
13096WAT     H239531   1.861   3.119   1.358
13097WAT      O39532   1.128   6.260   2.130
13097WAT     H139533   1.170   6.320   2.061
13097WAT     H239534   1.032   6.286   2.143
13098WAT      O39535   9.734   9.666   1.834
13098WAT     H139536   9.824   9.708   1.825
13098WAT     H239537   9.704   9.670   1.929
13099WAT      O39538   7.203   8.026   2.534
13099WAT     H139539   7.249   8.081   2.604
13099WAT     H239540   7.266   8.010   2.458
13100WAT      O39541   6.983   8.992   4.069
13100WAT     H139542   7.013   9.086   4.050
13100WAT     H239543   6.996   8.972   4.166
13101WAT      O39544   0.698   4.931   3.949
13101WAT     H139545   0.639   4.862   3.992
13101WAT     H239546   0.781   4.942   4.004
13102WAT      O39547   0.160   9.033   6.576
13102WAT     H139548   0.091   9.034   6.648
13102WAT     H239549   0.134   9.099   6.505
13103WAT      O39550   1.070   1.380   8.321
13103WAT     H139551   0.996   1.329   8.365
13103WAT     H239552   1.069   1.475   8.354
13104WAT      O39553   7.096   9.733   4.095
13104WAT     H139554   7.020   9.671   4.114
13104WAT     H239555   7.059   9.822   4.066
13105WAT      O39556   4.221   1.731   7.137
13105WAT     H139557   4.208   1.827   7.164
13105WAT     H239558   4.204   1.672   7.215
13106WAT      O39559   5.651   0.922   5.851
13106WAT     H139560   5.556   0.930   5.882
13106WAT     H239561   5.701   0.861   5.913
13107WAT      O39562   6.796   3.185   4.511
13107WAT     H139563   6.784   3.284   4.498
13107WAT     H239564   6.873   3.169   4.572
13108WAT      O39565   5.179   2.010   9.580
13108WAT     H139566   5.107   2.066   9.539
13108WAT     H239567   5.267   2.056   9.570
13109WAT      O39568   8.106   0.041   5.099
13109WAT     H139569   8.122   0.140   5.097
13109WAT     H239570   8.115   0.008   5.193
13110WAT      O39571   4.715   7.020   3.708
13110WAT     H139572   4.687   7.075   3.787
13110WAT     H239573   4.792   7.063   3.663
13111WAT      O39574   3.120   6.929   1.438
13111WAT     H139575   3.218   6.911   1.449
13111WAT     H239576   3.104   7.027   1.440
13112WAT      O39577   3.902   6.293   1.216
13112WAT     H139578   3.829   6.230   1.188
13112WAT     H239579   3.986   6.242   1.232
13113WAT      O39580   3.909   1.791   9.053
13113WAT     H139581   3.842   1.729   9.012
13113WAT     H239582   3.992   1.740   9.077
13114WAT      O39583   7.700   3.509   5.921
13114WAT     H139584   7.626   3.572   5.900
13114WAT     H239585   7.787   3.558   5.920
13115WAT      O39586   5.339   4.900   7.824
13115WAT     H139587   5.394   4.828   7.866
13115WAT     H239588   5.396   4.954   7.763
13116WAT      O39589   0.743   5.999   9.101
13116WAT     H139590   0.700   5.916   9.137
13116WAT     H239591   0.838   5.980   9.077
13117WAT      O39592   2.111   1.031   9.508
13117WAT     H139593   2.047   1.061   9.578
13117WAT     H239594   2.082   1.066   9.419
13118WAT      O39595   0.164   3.332   8.818
13118WAT     H139596   0.220   3.304   8.896
13118WAT     H239597   0.138   3.428   8.828
13119WAT      O39598   6.377   8.472   0.015
13119WAT     H139599   6.376   8.397   0.080
13119WAT     H239600   6.333   8.444  -0.070
13120WAT      O39601   5.580   7.529   1.983
13120WAT     H139602   5.622   7.443   1.953
13120WAT     H239603   5.518   7.563   1.912
13121WAT      O39604   2.166   0.084   4.378
13121WAT     H139605   2.231   0.128   4.439
13121WAT     H239606   2.075   0.082   4.421
13122WAT      O39607   1.556   5.397   8.439
13122WAT     H139608   1.600   5.414   8.527
13122WAT     H239609   1.580   5.470   8.375
13123WAT      O39610   5.289   7.819   1.054
13123WAT     H139611   5.270   7.722   1.038
13123WAT     H239612   5.309   7.863   0.967
13124WAT      O39613   8.100   6.952   8.800
13124WAT     H139614   8.067   6.986   8.888
13124WAT     H239615   8.190   6.991   8.781
13125WAT      O39616   8.284   8.346   4.611
13125WAT     H139617   8.289   8.417   4.541
13125WAT     H239618   8.294   8.256   4.568
13126WAT      O39619   5.662   4.204   2.043
13126WAT     H139620   5.648   4.154   1.958
13126WAT     H239621   5.755   4.241   2.045
13127WAT      O39622   4.715   5.820   3.678
13127WAT     H139623   4.717   5.750   3.749
13127WAT     H239624   4.627   5.868   3.680
13128WAT      O39625   2.320   6.099   1.793
13128WAT     H139626   2.381   6.120   1.716
13128WAT     H239627   2.264   6.179   1.814
13129WAT      O39628   5.981   5.772   2.093
13129WAT     H139629   5.992   5.766   1.993
13129WAT     H239630   6.064   5.740   2.137
13130WAT      O39631   0.910   2.864   9.055
13130WAT     H139632   1.008   2.844   9.057
13130WAT     H239633   0.861   2.782   9.025
13131WAT      O39634   9.394   7.837   2.948
13131WAT     H139635   9.308   7.887   2.961
13131WAT     H239636   9.422   7.844   2.852
13132WAT      O39637   0.250   9.784   5.583
13132WAT     H139638   0.260   9.802   5.485
13132WAT     H239639   0.201   9.698   5.596
13133WAT      O39640   2.524   8.747   1.233
13133WAT     H139641   2.512   8.709   1.325
13133WAT     H239642   2.583   8.686   1.180
13134WAT      O39643   8.387   5.975   5.087
13134WAT     H139644   8.451   5.957   5.013
13134WAT     H239645   8.294   5.982   5.050
13135WAT      O39646   6.640   5.505   3.659
13135WAT     H139647   6.541   5.489   3.648
13135WAT     H239648   6.685   5.419   3.680
13136WAT      O39649   0.511   1.581   2.798
13136WAT     H139650   0.442   1.567   2.869
13136WAT     H239651   0.567   1.660   2.821
13137WAT      O39652   5.184   3.881   0.091
13137WAT     H139653   5.245   3.949   0.131
13137WAT     H239654   5.228   3.791   0.094
13138WAT      O39655   6.590   2.474   7.606
13138WAT     H139656   6.568   2.387   7.650
13138WAT     H239657   6.688   2.490   7.610
13139WAT      O39658   0.536   6.705   7.908
13139WAT     H139659   0.467   6.635   7.923
13139WAT     H239660   0.625   6.662   7.895
13140WAT      O39661   8.779   4.553   2.130
13140WAT     H139662   8.841   4.534   2.206
13140WAT     H239663   8.732   4.639   2.145
13141WAT      O39664   8.402   3.514   5.493
13141WAT     H139665   8.472   3.448   5.468
13141WAT     H239666   8.316   3.491   5.447
13142WAT      O39667   7.002   1.497   1.930
13142WAT     H139668   6.987   1.406   1.969
13142WAT     H239669   6.915   1.543   1.916
13143WAT      O39670   4.055   1.463   6.499
13143WAT     H139671   4.059   1.541   6.561
13143WAT     H239672   3.968   1.465   6.450
13144WAT      O39673   2.202   8.616   1.376
13144WAT     H139674   2.162   8.646   1.463
13144WAT     H239675   2.219   8.695   1.318
13145WAT      O39676   0.162   5.894   9.678
13145WAT     H139677   0.210   5.957   9.740
13145WAT     H239678   0.148   5.806   9.724
13146WAT      O39679   3.976   5.962   9.495
13146WAT     H139680   3.966   5.881   9.437
13146WAT     H239681   4.022   5.936   9.580
13147WAT      O39682   0.941   8.385   0.284
13147WAT     H139683   0.962   8.468   0.336
13147WAT     H239684   0.934   8.408   0.187
13148WAT      O39685   4.399   8.027   4.988
13148WAT     H139686   4.397   8.127   4.994
13148WAT     H239687   4.475   7.993   5.045
13149WAT      O39688   0.018   6.467   3.463
13149WAT     H139689   0.106   6.421   3.478
13149WAT     H239690   0.025   6.562   3.493
13150WAT      O39691   1.162   4.284   2.675
13150WAT     H139692   1.153   4.214   2.603
13150WAT     H239693   1.107   4.363   2.651
13151WAT      O39694   3.291   7.731   6.966
13151WAT     H139695   3.357   7.703   7.035
13151WAT     H239696   3.212   7.669   6.968
13152WAT      O39697   0.251   5.535   3.869
13152WAT     H139698   0.169   5.567   3.916
13152WAT     H239699   0.253   5.573   3.777
13153WAT      O39700   3.602   8.451   0.046
13153WAT     H139701   3.577   8.546   0.026
13153WAT     H239702   3.570   8.392  -0.028
13154WAT      O39703   1.495   4.153   2.238
13154WAT     H139704   1.560   4.175   2.310
13154WAT     H239705   1.544   4.129   2.154
13155WAT      O39706   4.370   5.659   6.051
13155WAT     H139707   4.316   5.732   6.009
13155WAT     H239708   4.308   5.597   6.101
13156WAT      O39709   6.288   5.178   3.997
13156WAT     H139710   6.270   5.223   4.084
13156WAT     H239711   6.208   5.187   3.938
13157WAT      O39712   0.878   0.021   3.197
13157WAT     H139713   0.793  -0.029   3.184
13157WAT     H239714   0.956  -0.042   3.192
13158WAT      O39715   7.177   0.573   8.366
13158WAT     H139716   7.251   0.638   8.346
13158WAT     H239717   7.160   0.516   8.286
13159WAT      O39718   2.203   4.939   7.524
13159WAT     H139719   2.103   4.937   7.535
13159WAT     H239720   2.226   4.998   7.447
13160WAT      O39721   3.925   1.492   0.075
13160WAT     H139722   3.854   1.559   0.051
13160WAT     H239723   3.921   1.474   0.173
13161WAT      O39724   4.821   8.965   0.366
13161WAT     H139725   4.888   8.935   0.434
13161WAT     H239726   4.849   9.052   0.327
13162WAT      O39727   8.757   4.645   5.106
13162WAT     H139728   8.833   4.582   5.122
13162WAT     H239729   8.793   4.732   5.073
13163WAT      O39730   8.898   3.538   7.083
13163WAT     H139731   8.979   3.537   7.025
13163WAT     H239732   8.915   3.596   7.163
13164WAT      O39733   1.921   7.671   5.206
13164WAT     H139734   1.852   7.715   5.263
13164WAT     H239735   1.927   7.574   5.229
13165WAT      O39736   5.916   1.135   9.362
13165WAT     H139737   5.979   1.094   9.429
13165WAT     H239738   5.852   1.195   9.410
13166WAT      O39739   5.671   9.747   0.580
13166WAT     H139740   5.575   9.770   0.596
13166WAT     H239741   5.729   9.807   0.634
13167WAT      O39742   7.923   3.265   7.867
13167WAT     H139743   7.857   3.191   7.857
13167WAT     H239744   7.961   3.288   7.777
13168WAT      O39745   2.053   6.516   8.140
13168WAT     H139746   2.039   6.519   8.041
13168WAT     H239747   2.060   6.609   8.175
13169WAT      O39748   1.933   6.345   7.492
13169WAT     H139749   1.860   6.393   7.541
13169WAT     H239750   1.954   6.394   7.408
13170WAT      O39751   2.701   3.016   4.569
13170WAT     H139752   2.636   3.024   4.494
13170WAT     H239753   2.722   2.919   4.585
13171WAT      O39754   8.458   8.056   1.255
13171WAT     H139755   8.426   7.964   1.279
13171WAT     H239756   8.496   8.055   1.163
13172WAT      O39757   1.124   9.377   9.386
13172WAT     H139758   1.072   9.364   9.470
13172WAT     H239759   1.217   9.405   9.408
13173WAT      O39760   2.725   1.848   6.242
13173WAT     H139761   2.681   1.777   6.298
13173WAT     H239762   2.755   1.807   6.155
13174WAT      O39763   1.353   6.546   7.380
13174WAT     H139764   1.408   6.567   7.299
13174WAT     H239765   1.410   6.555   7.462
13175WAT      O39766   0.025   8.389   7.986
13175WAT     H139767   0.112   8.373   8.033
13175WAT     H239768   0.015   8.323   7.911
13176WAT      O39769   4.880   9.670   6.337
13176WAT     H139770   4.798   9.717   6.304
13176WAT     H239771   4.854   9.594   6.396
13177WAT      O39772   0.278   9.565   6.322
13177WAT     H139773   0.282   9.467   6.299
13177WAT     H239774   0.340   9.583   6.399
13178WAT      O39775   7.057   3.339   2.084
13178WAT     H139776   7.122   3.320   2.010
13178WAT     H239777   7.105   3.341   2.171
13179WAT      O39778   6.034   4.745   5.456
13179WAT     H139779   6.035   4.839   5.423
13179WAT     H239780   6.110   4.694   5.416
13180WAT      O39781   1.528   4.997   8.083
13180WAT     H139782   1.505   4.969   8.176
13180WAT     H239783   1.555   4.917   8.029
13181WAT      O39784   0.599   4.777   6.242
13181WAT     H139785   0.523   4.783   6.307
13181WAT     H239786   0.590   4.849   6.173
13182WAT      O39787   6.885   9.056   5.109
13182WAT     H139788   6.792   9.020   5.112
13182WAT     H239789   6.944   8.990   5.062
13183WAT      O39790   2.102   2.384   3.019
13183WAT     H139791   2.191   2.361   3.057
13183WAT     H239792   2.033   2.321   3.055
13184WAT      O39793   0.333   2.685   4.312
13184WAT     H139794   0.265   2.618   4.341
13184WAT     H239795   0.329   2.696   4.213
13185WAT      O39796   1.025   5.980   7.152
13185WAT     H139797   1.052   5.945   7.062
13185WAT     H239798   0.978   6.067   7.141
13186WAT      O39799   4.892   0.158   1.426
13186WAT     H139800   4.872   0.155   1.328
13186WAT     H239801   4.814   0.124   1.477
13187WAT      O39802   4.571   9.091   6.349
13187WAT     H139803   4.561   9.189   6.333
13187WAT     H239804   4.483   9.046   6.337
13188WAT      O39805   5.085   5.543   4.351
13188WAT     H139806   5.163   5.538   4.414
13188WAT     H239807   5.093   5.471   4.282
13189WAT      O39808   4.608   5.998   0.700
13189WAT     H139809   4.706   6.003   0.678
13189WAT     H239810   4.597   5.985   0.798
13190WAT      O39811   4.736   7.567   9.803
13190WAT     H139812   4.770   7.493   9.861
13190WAT     H239813   4.710   7.529   9.714
13191WAT      O39814   6.876   1.937   5.123
13191WAT     H139815   6.934   2.003   5.076
13191WAT     H239816   6.914   1.918   5.214
13192WAT      O39817   7.772   7.680   7.663
13192WAT     H139818   7.816   7.591   7.672
13192WAT     H239819   7.732   7.707   7.750
13193WAT      O39820   4.575   6.478   8.996
13193WAT     H139821   4.485   6.443   9.023
13193WAT     H239822   4.564   6.543   8.921
13194WAT      O39823   4.497   8.674   4.151
13194WAT     H139824   4.414   8.627   4.180
13194WAT     H239825   4.552   8.614   4.093
13195WAT      O39826   2.974   2.977   6.258
13195WAT     H139827   2.895   2.916   6.258
13195WAT     H239828   2.967   3.042   6.182
13196WAT      O39829   1.260   7.524   9.033
13196WAT     H139830   1.171   7.544   9.075
13196WAT     H239831   1.333   7.549   9.096
13197WAT      O39832   8.957   1.980   9.225
13197WAT     H139833   8.920   2.072   9.241
13197WAT     H239834   8.997   1.976   9.133
13198WAT      O39835   0.593   4.841   7.644
13198WAT     H139836   0.550   4.832   7.554
13198WAT     H239837   0.525   4.826   7.715
13199WAT      O39838   5.267   9.042   7.497
13199WAT     H139839   5.339   8.972   7.503
13199WAT     H239840   5.263   9.093   7.583
13200WAT      O39841   3.022   7.811   1.314
13200WAT     H139842   3.090   7.756   1.266
13200WAT     H239843   2.934   7.764   1.313
13201WAT      O39844   4.604   6.687   5.087
13201WAT     H139845   4.577   6.592   5.100
13201WAT     H239846   4.699   6.691   5.055
13202WAT      O39847   5.918   0.484   0.780
13202WAT     H139848   5.863   0.568   0.773
13202WAT     H239849   6.015   0.506   0.768
13203WAT      O39850   3.682   8.851   9.652
13203WAT     H139851   3.611   8.841   9.583
13203WAT     H239852   3.645   8.828   9.742
13204WAT      O39853   0.298   1.574   1.377
13204WAT     H139854   0.245   1.491   1.395
13204WAT     H239855   0.285   1.603   1.283
13205WAT      O39856   5.599   5.792   9.311
13205WAT     H139857   5.513   5.778   9.361
13205WAT     H239858   5.579   5.833   9.222
13206WAT      O39859   5.916   4.448   7.456
13206WAT     H139860   5.861   4.371   7.489
13206WAT     H239861   5.864   4.533   7.467
13207WAT      O39862   0.186   9.385   5.938
13207WAT     H139863   0.177   9.459   6.005
13207WAT     H239864   0.264   9.404   5.878
13208WAT      O39865   8.039   0.187   1.530
13208WAT     H139866   8.134   0.165   1.508
13208WAT     H239867   8.003   0.118   1.593
13209WAT      O39868   9.646   3.649   4.740
13209WAT     H139869   9.552   3.663   4.772
13209WAT     H239870   9.700   3.606   4.812
13210WAT      O39871   7.193   9.276   8.609
13210WAT     H139872   7.214   9.352   8.548
13210WAT     H239873   7.146   9.310   8.690
13211WAT      O39874   9.617   0.791   1.852
13211WAT     H139875   9.598   0.886   1.830
13211WAT     H239876   9.534   0.747   1.886
13212WAT      O39877   8.409   6.290   3.289
13212WAT     H139878   8.369   6.199   3.281
13212WAT     H239879   8.415   6.315   3.385
13213WAT      O39880   0.439   3.766   1.328
13213WAT     H139881   0.513   3.730   1.386
13213WAT     H239882   0.470   3.851   1.285
13214WAT      O39883   6.900   5.027   9.455
13214WAT     H139884   6.876   5.031   9.358
13214WAT     H239885   6.921   4.932   9.480
13215WAT      O39886   5.050   5.734   0.604
13215WAT     H139887   4.962   5.740   0.652
13215WAT     H239888   5.102   5.657   0.641
13216WAT      O39889   8.326   1.492   3.323
13216WAT     H139890   8.356   1.420   3.261
13216WAT     H239891   8.335   1.581   3.278
13217WAT      O39892   3.947   4.356   4.880
13217WAT     H139893   3.947   4.456   4.882
13217WAT     H239894   3.890   4.322   4.954
13218WAT      O39895   7.094   3.785   0.886
13218WAT     H139896   7.126   3.835   0.805
13218WAT     H239897   7.150   3.704   0.900
13219WAT      O39898   8.318   8.578   6.238
13219WAT     H139899   8.339   8.587   6.140
13219WAT     H239900   8.345   8.487   6.270
13220WAT      O39901   1.620   7.419   0.157
13220WAT     H139902   1.666   7.489   0.102
13220WAT     H239903   1.673   7.402   0.240
13221WAT      O39904   0.981   2.500   7.484
13221WAT     H139905   0.974   2.475   7.387
13221WAT     H239906   1.076   2.490   7.514
13222WAT      O39907   5.530   1.999   7.007
13222WAT     H139908   5.493   2.092   6.999
13222WAT     H239909   5.622   1.996   6.968
13223WAT      O39910   7.464   4.875   5.760
13223WAT     H139911   7.456   4.822   5.675
13223WAT     H239912   7.373   4.907   5.788
13224WAT      O39913   5.844   0.516   0.207
13224WAT     H139914   5.805   0.585   0.268
13224WAT     H239915   5.800   0.427   0.224
13225WAT      O39916   2.626   0.155   9.218
13225WAT     H139917   2.613   0.251   9.243
13225WAT     H239918   2.621   0.098   9.301
13226WAT      O39919   6.859   0.508   4.674
13226WAT     H139920   6.954   0.536   4.691
13226WAT     H239921   6.806   0.518   4.758
13227WAT      O39922   2.359   2.874   0.861
13227WAT     H139923   2.312   2.806   0.917
13227WAT     H239924   2.308   2.959   0.862
13228WAT      O39925   0.079   3.831   1.023
13228WAT     H139926   0.047   3.836   0.929
13228WAT     H239927   0.165   3.781   1.027
13229WAT      O39928   2.575   4.786   8.507
13229WAT     H139929   2.667   4.818   8.530
13229WAT     H239930   2.511   4.862   8.517
13230WAT      O39931   0.127   2.398   5.681
13230WAT     H139932   0.138   2.299   5.691
13230WAT     H239933   0.140   2.423   5.585
13231WAT      O39934   1.536   7.793   6.327
13231WAT     H139935   1.635   7.808   6.317
13231WAT     H239936   1.514   7.700   6.295
13232WAT      O39937   7.011   9.160   8.942
13232WAT     H139938   7.024   9.177   9.039
13232WAT     H239939   6.922   9.115   8.928
13233WAT      O39940   4.009   2.293   5.750
13233WAT     H139941   4.013   2.256   5.657
13233WAT     H239942   3.915   2.291   5.782
13234WAT      O39943   3.827   9.314   0.340
13234WAT     H139944   3.819   9.227   0.292
13234WAT     H239945   3.899   9.369   0.298
13235WAT      O39946   3.194   2.713   2.348
13235WAT     H139947   3.147   2.628   2.324
13235WAT     H239948   3.152   2.789   2.300
13236WAT      O39949   5.568   9.193   5.135
13236WAT     H139950   5.538   9.267   5.195
13236WAT     H239951   5.543   9.105   5.175
13237WAT      O39952   1.175   3.194   0.342
13237WAT     H139953   1.129   3.110   0.370
13237WAT     H239954   1.268   3.173   0.312
13238WAT      O39955   2.530   1.724   4.313
13238WAT     H139956   2.613   1.730   4.368
13238WAT     H239957   2.547   1.666   4.233
13239WAT      O39958   2.683   4.016   9.037
13239WAT     H139959   2.625   3.937   9.055
13239WAT     H239960   2.665   4.086   9.106
13240WAT      O39961   4.397   6.460   9.750
13240WAT     H139962   4.410   6.539   9.689
13240WAT     H239963   4.481   6.407   9.753
13241WAT      O39964   3.882   7.768   2.346
13241WAT     H139965   3.898   7.720   2.260
13241WAT     H239966   3.926   7.717   2.421
13242WAT      O39967   3.234   1.053   7.273
13242WAT     H139968   3.311   1.112   7.296
13242WAT     H239969   3.161   1.066   7.341
13243WAT      O39970   1.911   9.030   5.794
13243WAT     H139971   1.933   9.121   5.757
13243WAT     H239972   1.984   9.002   5.856
13244WAT      O39973   5.140   3.089   8.621
13244WAT     H139974   5.042   3.068   8.615
13244WAT     H239975   5.177   3.050   8.705
13245WAT      O39976   5.243   0.486   0.613
13245WAT     H139977   5.221   0.401   0.660
13245WAT     H239978   5.328   0.523   0.650
13246WAT      O39979   4.522   8.799   8.247
13246WAT     H139980   4.452   8.771   8.182
13246WAT     H239981   4.594   8.730   8.252
13247WAT      O39982   2.873   6.768   0.316
13247WAT     H139983   2.966   6.742   0.343
13247WAT     H239984   2.846   6.715   0.235
13248WAT      O39985   2.509   8.519   6.626
13248WAT     H139986   2.480   8.423   6.622
13248WAT     H239987   2.438   8.573   6.671
13249WAT      O39988   5.956   4.734   6.532
13249WAT     H139989   5.911   4.746   6.443
13249WAT     H239990   6.048   4.773   6.528
13250WAT      O39991   2.707   3.678   7.212
13250WAT     H139992   2.681   3.742   7.139
13250WAT     H239993   2.729   3.589   7.172
13251WAT      O39994   3.436   0.791   6.638
13251WAT     H139995   3.447   0.751   6.546
13251WAT     H239996   3.439   0.718   6.706
13252WAT      O39997   7.816   3.378   6.669
13252WAT     H139998   7.912   3.380   6.642
13252WAT     H239999   7.809   3.366   6.768
13253WAT      O40000   8.952   4.853   1.260
13253WAT     H140001   9.043   4.884   1.287
13253WAT     H240002   8.960   4.773   1.200
13254WAT      O40003   6.904   2.284   0.263
13254WAT     H140004   7.000   2.286   0.288
13254WAT     H240005   6.895   2.252   0.168
13255WAT      O40006   2.072   8.826   4.316
13255WAT     H140007   2.095   8.732   4.288
13255WAT     H240008   2.118   8.890   4.254
13256WAT      O40009   7.075   6.475   5.445
13256WAT     H140010   7.132   6.545   5.401
13256WAT     H240011   7.127   6.430   5.517
13257WAT      O40012   4.912   0.113   0.094
13257WAT     H140013   4.923   0.026   0.142
13257WAT     H240014   4.876   0.096   0.002
13258WAT      O40015   7.665   8.622   3.864
13258WAT     H140016   7.721   8.564   3.806
13258WAT     H240017   7.618   8.690   3.808
13259WAT      O40018   3.878   5.274   4.250
13259WAT     H140019   3.957   5.285   4.310
13259WAT     H240020   3.811   5.213   4.294
13260WAT      O40021   0.559   4.369   7.967
13260WAT     H140022   0.637   4.307   7.960
13260WAT     H240023   0.478   4.326   7.928
13261WAT      O40024   2.465   6.703   0.291
13261WAT     H140025   2.382   6.719   0.345
13261WAT     H240026   2.525   6.640   0.340
13262WAT      O40027   6.039   7.873   0.396
13262WAT     H140028   5.970   7.917   0.339
13262WAT     H240029   6.101   7.942   0.433
13263WAT      O40030   4.263   0.787   3.929
13263WAT     H140031   4.282   0.711   3.867
13263WAT     H240032   4.345   0.842   3.941
13264WAT      O40033   8.644   8.344   6.413
13264WAT     H140034   8.668   8.343   6.316
13264WAT     H240035   8.670   8.256   6.454
13265WAT      O40036   7.322   8.471   4.890
13265WAT     H140037   7.288   8.528   4.964
13265WAT     H240038   7.246   8.427   4.844
13266WAT      O40039   2.758   4.403   0.998
13266WAT     H140040   2.785   4.431   0.906
13266WAT     H240041   2.728   4.483   1.050
13267WAT      O40042   1.387   7.240   6.730
13267WAT     H140043   1.376   7.291   6.816
13267WAT     H240044   1.412   7.303   6.657
13268WAT      O40045   6.719   1.181   4.529
13268WAT     H140046   6.671   1.247   4.587
13268WAT     H240047   6.806   1.220   4.499
13269WAT      O40048   9.266   8.280   5.619
13269WAT     H140049   9.358   8.256   5.652
13269WAT     H240050   9.273   8.338   5.539
13270WAT      O40051   8.453   8.972   8.985
13270WAT     H140052   8.399   9.008   8.909
13270WAT     H240053   8.415   9.004   9.071
13271WAT      O40054   0.532   7.037   1.260
13271WAT     H140055   0.591   6.957   1.260
13271WAT     H240056   0.524   7.073   1.167
13272WAT      O40057   5.916   4.468   1.475
13272WAT     H140058   5.854   4.488   1.550
13272WAT     H240059   5.997   4.526   1.481
13273WAT      O40060   0.773   0.504   7.497
13273WAT     H140061   0.840   0.551   7.439
13273WAT     H240062   0.791   0.527   7.593
13274WAT      O40063   4.494   6.034   1.818
13274WAT     H140064   4.453   6.013   1.729
13274WAT     H240065   4.515   6.132   1.823
13275WAT      O40066   5.759   8.956   0.292
13275WAT     H140067   5.744   8.865   0.329
13275WAT     H240068   5.739   8.957   0.194
13276WAT      O40069   1.212   3.919   3.777
13276WAT     H140070   1.157   4.002   3.785
13276WAT     H240071   1.235   3.884   3.868
13277WAT      O40072   2.736   5.245   5.807
13277WAT     H140073   2.692   5.158   5.833
13277WAT     H240074   2.668   5.318   5.810
13278WAT      O40075   8.359   3.766   9.018
13278WAT     H140076   8.454   3.744   8.996
13278WAT     H240077   8.356   3.852   9.068
13279WAT      O40078   0.464   3.461   3.076
13279WAT     H140079   0.484   3.374   3.030
13279WAT     H240080   0.394   3.446   3.146
13280WAT      O40081   2.358   2.677   6.818
13280WAT     H140082   2.346   2.668   6.917
13280WAT     H240083   2.280   2.636   6.771
13281WAT      O40084   8.729   8.961   6.345
13281WAT     H140085   8.804   8.906   6.309
13281WAT     H240086   8.641   8.920   6.317
13282WAT      O40087   4.649   5.530   8.456
13282WAT     H140088   4.638   5.492   8.364
13282WAT     H240089   4.561   5.566   8.487
13283WAT      O40090   8.197   5.975   2.267
13283WAT     H140091   8.107   5.937   2.246
13283WAT     H240092   8.253   5.904   2.312
13284WAT      O40093   8.999   0.548   8.435
13284WAT     H140094   8.952   0.636   8.427
13284WAT     H240095   8.998   0.502   8.347
13285WAT      O40096   6.230   1.424   2.614
13285WAT     H140097   6.227   1.470   2.703
13285WAT     H240098   6.242   1.492   2.541
13286WAT      O40099   7.827   8.561   5.363
13286WAT     H140100   7.796   8.639   5.417
13286WAT     H240101   7.759   8.541   5.292
13287WAT      O40102   7.683   9.725   6.109
13287WAT     H140103   7.634   9.779   6.177
13287WAT     H240104   7.686   9.629   6.138
13288WAT      O40105   4.196   1.731   2.495
13288WAT     H140106   4.262   1.803   2.474
13288WAT     H240107   4.104   1.771   2.497
13289WAT      O40108   6.854   8.157   6.692
13289WAT     H140109   6.800   8.087   6.739
13289WAT     H240110   6.831   8.247   6.729
13290WAT      O40111   2.973   8.855   7.216
13290WAT     H140112   2.953   8.942   7.261
13290WAT     H240113   3.057   8.817   7.253
13291WAT      O40114   6.895   9.525   4.895
13291WAT     H140115   6.897   9.508   4.993
13291WAT     H240116   6.830   9.462   4.851
13292WAT      O40117   5.144   6.228   1.593
13292WAT     H140118   5.114   6.137   1.621
13292WAT     H240119   5.071   6.273   1.541
13293WAT      O40120   0.725   4.625   9.584
13293WAT     H140121   0.627   4.629   9.565
13293WAT     H240122   0.774   4.594   9.502
13294WAT      O40123   7.371   8.437   9.475
13294WAT     H140124   7.347   8.449   9.379
13294WAT     H240125   7.290   8.409   9.527
13295WAT      O40126   9.079   6.765   5.915
13295WAT     H140127   9.020   6.843   5.894
13295WAT     H240128   9.084   6.753   6.014
13296WAT      O40129   4.185   2.546   6.732
13296WAT     H140130   4.095   2.552   6.689
13296WAT     H240131   4.181   2.587   6.823
13297WAT      O40132   7.233   5.154   4.821
13297WAT     H140133   7.157   5.178   4.882
13297WAT     H240134   7.224   5.059   4.793
13298WAT      O40135   5.956   8.331   4.538
13298WAT     H140136   5.985   8.425   4.552
13298WAT     H240137   6.033   8.277   4.505
13299WAT      O40138   5.139   3.347   1.656
13299WAT     H140139   5.060   3.407   1.653
13299WAT     H240140   5.220   3.399   1.680
13300WAT      O40141   8.612   9.766   5.741
13300WAT     H140142   8.677   9.772   5.666
13300WAT     H240143   8.526   9.728   5.709
13301WAT      O40144   5.896   5.345   6.121
13301WAT     H140145   5.876   5.411   6.048
13301WAT     H240146   5.842   5.262   6.108
13302WAT      O40147   7.668   5.097   3.070
13302WAT     H140148   7.757   5.143   3.082
13302WAT     H240149   7.625   5.130   2.986
13303WAT      O40150   2.788   2.421   2.723
13303WAT     H140151   2.868   2.471   2.689
13303WAT     H240152   2.705   2.461   2.684
13304WAT      O40153   8.227   0.744   4.044
13304WAT     H140154   8.304   0.683   4.032
13304WAT     H240155   8.235   0.822   3.981
13305WAT      O40156   9.056   0.298   3.213
13305WAT     H140157   9.127   0.230   3.233
13305WAT     H240158   9.099   0.388   3.206
13306WAT      O40159   0.666   7.060   1.566
13306WAT     H140160   0.586   7.116   1.547
13306WAT     H240161   0.677   6.991   1.494
13307WAT      O40162   7.401   7.702   4.754
13307WAT     H140163   7.346   7.691   4.837
13307WAT     H240164   7.474   7.768   4.771
13308WAT      O40165   2.992   8.466   1.942
13308WAT     H140166   2.910   8.437   1.991
13308WAT     H240167   3.056   8.389   1.937
13309WAT      O40168   4.072   6.496   1.897
13309WAT     H140169   4.118   6.536   1.817
13309WAT     H240170   4.004   6.560   1.931
13310WAT      O40171   7.646   2.645   5.767
13310WAT     H140172   7.549   2.620   5.773
13310WAT     H240173   7.667   2.670   5.672
13311WAT      O40174   8.179   3.310   9.887
13311WAT     H140175   8.131   3.222   9.879
13311WAT     H240176   8.175   3.342   9.982
13312WAT      O40177   0.568   0.378   6.485
13312WAT     H140178   0.503   0.363   6.411
13312WAT     H240179   0.591   0.476   6.489
13313WAT      O40180   6.422   4.377   9.341
13313WAT     H140181   6.372   4.308   9.394
13313WAT     H240182   6.507   4.400   9.389
13314WAT      O40183   6.143   7.526   0.954
13314WAT     H140184   6.105   7.435   0.966
13314WAT     H240185   6.108   7.567   0.870
13315WAT      O40186   6.286   5.789   7.106
13315WAT     H140187   6.300   5.861   7.038
13315WAT     H240188   6.326   5.704   7.072
13316WAT      O40189   0.793   0.718   9.244
13316WAT     H140190   0.751   0.803   9.213
13316WAT     H240191   0.890   0.734   9.265
13317WAT      O40192   1.592   7.475   6.772
13317WAT     H140193   1.497   7.485   6.802
13317WAT     H240194   1.652   7.529   6.831
13318WAT      O40195   2.049   6.185   1.975
13318WAT     H140196   1.956   6.149   1.975
13318WAT     H240197   2.075   6.209   1.881
13319WAT      O40198   4.458   6.157   8.750
13319WAT     H140199   4.491   6.245   8.715
13319WAT     H240200   4.374   6.172   8.802
13320WAT      O40201   8.113   1.273   0.542
13320WAT     H140202   8.180   1.198   0.547
13320WAT     H240203   8.133   1.331   0.463
13321WAT      O40204   6.385   4.449   2.258
13321WAT     H140205   6.349   4.422   2.348
13321WAT     H240206   6.463   4.510   2.270
13322WAT      O40207   9.320   2.546   4.754
13322WAT     H140208   9.330   2.566   4.852
13322WAT     H240209   9.404   2.572   4.706
13323WAT      O40210   3.011   7.489   5.955
13323WAT     H140211   3.097   7.477   6.005
13323WAT     H240212   2.934   7.482   6.019
13324WAT      O40213   5.181   1.972   6.065
13324WAT     H140214   5.108   2.031   6.031
13324WAT     H240215   5.208   1.907   5.993
13325WAT      O40216   0.581   2.040   9.292
13325WAT     H140217   0.671   1.998   9.293
13325WAT     H240218   0.534   2.021   9.378
13326WAT      O40219   7.134   2.458   5.294
13326WAT     H140220   7.203   2.490   5.359
13326WAT     H240221   7.045   2.497   5.317
13327WAT      O40222   6.162   9.842   8.966
13327WAT     H140223   6.248   9.826   9.014
13327WAT     H240224   6.108   9.757   8.965
13328WAT      O40225   0.045   8.765   4.804
13328WAT     H140226   0.138   8.803   4.809
13328WAT     H240227   0.046   8.672   4.841
13329WAT      O40228   3.351   0.415   7.081
13329WAT     H140229   3.331   0.512   7.062
13329WAT     H240230   3.385   0.371   6.998
13330WAT      O40231   3.544   9.178   1.993
13330WAT     H140232   3.483   9.117   2.043
13330WAT     H240233   3.583   9.245   2.056
13331WAT      O40234   3.694   7.759   7.808
13331WAT     H140235   3.633   7.810   7.747
13331WAT     H240236   3.787   7.793   7.796
13332WAT      O40237   0.441   6.500   4.807
13332WAT     H140238   0.418   6.410   4.767
13332WAT     H240239   0.427   6.571   4.738
13333WAT      O40240   7.405   3.697   9.112
13333WAT     H140241   7.492   3.649   9.101
13333WAT     H240242   7.401   3.739   9.202
13334WAT      O40243   2.263   0.180   6.889
13334WAT     H140244   2.299   0.265   6.927
13334WAT     H240245   2.181   0.153   6.939
13335WAT      O40246   8.822   6.103   4.473
13335WAT     H140247   8.746   6.064   4.526
13335WAT     H240248   8.806   6.200   4.459
13336WAT      O40249   9.618   0.903   2.969
13336WAT     H140250   9.605   0.888   3.067
13336WAT     H240251   9.716   0.900   2.947
13337WAT      O40252   2.089   5.294   8.575
13337WAT     H140253   2.016   5.361   8.592
13337WAT     H240254   2.071   5.211   8.628
13338WAT      O40255   3.905   8.369   3.798
13338WAT     H140256   3.857   8.288   3.763
13338WAT     H240257   3.840   8.429   3.844
13339WAT      O40258   7.779   0.573   2.366
13339WAT     H140259   7.848   0.602   2.300
13339WAT     H240260   7.781   0.635   2.445
13340WAT      O40261   0.122   3.797   0.389
13340WAT     H140262   0.164   3.709   0.368
13340WAT     H240263   0.185   3.870   0.363
13341WAT      O40264   3.023   4.383   2.111
13341WAT     H140265   3.071   4.469   2.093
13341WAT     H240266   2.950   4.371   2.044
13342WAT      O40267   4.145   3.674   2.002
13342WAT     H140268   4.155   3.676   2.102
13342WAT     H240269   4.229   3.706   1.959
13343WAT      O40270   0.097   7.295   6.974
13343WAT     H140271   0.105   7.220   7.039
13343WAT     H240272   0.035   7.270   6.900
13344WAT      O40273   3.674   7.516   6.914
13344WAT     H140274   3.666   7.420   6.940
13344WAT     H240275   3.758   7.529   6.861
13345WAT      O40276   2.659   8.533   3.124
13345WAT     H140277   2.727   8.595   3.086
13345WAT     H240278   2.594   8.585   3.180
13346WAT      O40279   0.775   1.367   2.425
13346WAT     H140280   0.794   1.451   2.476
13346WAT     H240281   0.849   1.349   2.362
13347WAT      O40282   1.396   9.819   4.130
13347WAT     H140283   1.312   9.860   4.092
13347WAT     H240284   1.455   9.791   4.055
13348WAT      O40285   2.736   3.845   8.386
13348WAT     H140286   2.669   3.911   8.421
13348WAT     H240287   2.695   3.796   8.309
13349WAT      O40288   0.355   6.771   4.084
13349WAT     H140289   0.381   6.865   4.107
13349WAT     H240290   0.395   6.746   3.995
13350WAT      O40291   6.230   2.474   2.535
13350WAT     H140292   6.310   2.514   2.491
13350WAT     H240293   6.250   2.380   2.562
13351WAT      O40294   8.683   7.784   6.936
13351WAT     H140295   8.638   7.873   6.942
13351WAT     H240296   8.625   7.714   6.979
13352WAT      O40297   5.508   5.877   3.749
13352WAT     H140298   5.550   5.804   3.802
13352WAT     H240299   5.445   5.838   3.682
13353WAT      O40300   2.865   3.682   5.555
13353WAT     H140301   2.829   3.594   5.523
13353WAT     H240302   2.933   3.666   5.627
13354WAT      O40303   3.625   1.731   4.396
13354WAT     H140304   3.610   1.656   4.461
13354WAT     H240305   3.650   1.813   4.446
13355WAT      O40306   3.630   8.812   7.027
13355WAT     H140307   3.689   8.736   7.053
13355WAT     H240308   3.683   8.897   7.030
13356WAT      O40309   5.225   1.358   3.565
13356WAT     H140310   5.240   1.430   3.497
13356WAT     H240311   5.297   1.289   3.558
13357WAT      O40312   8.075   1.582   3.571
13357WAT     H140313   8.150   1.597   3.635
13357WAT     H240314   8.101   1.511   3.505
13358WAT      O40315   8.712   3.320   5.130
13358WAT     H140316   8.632   3.287   5.180
13358WAT     H240317   8.791   3.264   5.155
13359WAT      O40318   1.890   7.958   2.042
13359WAT     H140319   1.797   7.982   2.014
13359WAT     H240320   1.886   7.894   2.119
13360WAT      O40321   5.089   0.241   3.596
13360WAT     H140322   5.131   0.159   3.557
13360WAT     H240323   4.997   0.252   3.560
13361WAT      O40324   5.778   2.165   9.401
13361WAT     H140325   5.870   2.196   9.423
13361WAT     H240326   5.743   2.109   9.476
13362WAT      O40327   0.058   3.143   7.932
13362WAT     H140328   0.142   3.195   7.920
13362WAT     H240329   0.079   3.046   7.936
13363WAT      O40330   6.871   8.480   0.994
13363WAT     H140331   6.928   8.547   0.947
13363WAT     H240332   6.872   8.394   0.943
13364WAT      O40333   9.475   6.540   8.930
13364WAT     H140334   9.397   6.485   8.959
13364WAT     H240335   9.447   6.636   8.921
13365WAT      O40336   7.112   8.172   0.222
13365WAT     H140337   7.103   8.136   0.316
13365WAT     H240338   7.179   8.246   0.221
13366WAT      O40339   5.701   8.112   8.007
13366WAT     H140340   5.784   8.068   7.973
13366WAT     H240341   5.640   8.043   8.048
13367WAT      O40342   7.168   3.466   4.939
13367WAT     H140343   7.193   3.372   4.920
13367WAT     H240344   7.075   3.470   4.975
13368WAT      O40345   8.656   4.292   0.601
13368WAT     H140346   8.594   4.241   0.660
13368WAT     H240347   8.750   4.283   0.634
13369WAT      O40348   5.337   6.159   4.823
13369WAT     H140349   5.328   6.254   4.854
13369WAT     H240350   5.404   6.112   4.880
13370WAT      O40351   2.696   3.273   7.920
13370WAT     H140352   2.768   3.270   7.989
13370WAT     H240353   2.720   3.214   7.843
13371WAT      O40354   2.150   2.388   4.714
13371WAT     H140355   2.167   2.292   4.690
13371WAT     H240356   2.129   2.440   4.632
13372WAT      O40357   3.807   8.751   4.621
13372WAT     H140358   3.830   8.841   4.586
13372WAT     H240359   3.824   8.682   4.551
13373WAT      O40360   2.129   9.466   1.063
13373WAT     H140361   2.085   9.385   1.022
13373WAT     H240362   2.197   9.502   1.000
13374WAT      O40363   3.405   9.047   4.300
13374WAT     H140364   3.352   9.044   4.385
13374WAT     H240365   3.500   9.071   4.320
13375WAT      O40366   2.783   6.003   4.247
13375WAT     H140367   2.799   5.916   4.200
13375WAT     H240368   2.773   5.986   4.345
13376WAT      O40369   2.982   6.030   2.853
13376WAT     H140370   2.910   5.960   2.845
13376WAT     H240371   2.994   6.054   2.949
13377WAT      O40372   8.315   8.719   7.725
13377WAT     H140373   8.350   8.626   7.735
13377WAT     H240374   8.244   8.721   7.655
13378WAT      O40375   0.127   7.597   5.902
13378WAT     H140376   0.119   7.499   5.880
13378WAT     H240377   0.196   7.638   5.843
13379WAT      O40378   5.992   1.804   2.805
13379WAT     H140379   6.052   1.869   2.758
13379WAT     H240380   5.925   1.767   2.741
13380WAT      O40381   9.363   4.190   4.807
13380WAT     H140382   9.282   4.176   4.750
13380WAT     H240383   9.348   4.268   4.868
13381WAT      O40384   8.408   5.959   8.656
13381WAT     H140385   8.458   6.041   8.686
13381WAT     H240386   8.344   5.985   8.583
13382WAT      O40387   4.363   0.836   3.056
13382WAT     H140388   4.444   0.879   3.095
13382WAT     H240389   4.362   0.739   3.080
13383WAT      O40390   9.438   7.983   5.661
13383WAT     H140391   9.530   8.021   5.650
13383WAT     H240392   9.443   7.883   5.661
13384WAT      O40393   3.789   8.847   0.831
13384WAT     H140394   3.858   8.826   0.900
13384WAT     H240395   3.728   8.768   0.820
13385WAT      O40396   5.580   1.574   8.414
13385WAT     H140397   5.614   1.483   8.392
13385WAT     H240398   5.570   1.627   8.329
13386WAT      O40399   5.684   9.034   2.312
13386WAT     H140400   5.661   9.120   2.267
13386WAT     H240401   5.749   8.983   2.257
13387WAT      O40402   1.202   0.877   5.847
13387WAT     H140403   1.189   0.931   5.764
13387WAT     H240404   1.189   0.936   5.927
13388WAT      O40405   3.150   7.901   7.154
13388WAT     H140406   3.149   8.001   7.150
13388WAT     H240407   3.215   7.866   7.087
13389WAT      O40408   7.111   1.617   2.980
13389WAT     H140409   7.193   1.674   2.974
13389WAT     H240410   7.029   1.676   2.973
13390WAT      O40411   1.073   3.955   7.300
13390WAT     H140412   1.101   4.045   7.266
13390WAT     H240413   1.088   3.952   7.399
13391WAT      O40414   0.879   3.142   8.261
13391WAT     H140415   0.892   3.182   8.351
13391WAT     H240416   0.870   3.042   8.270
13392WAT      O40417   2.173   5.483   9.529
13392WAT     H140418   2.248   5.517   9.586
13392WAT     H240419   2.136   5.400   9.570
13393WAT      O40420   1.936   7.408   4.706
13393WAT     H140421   1.923   7.444   4.614
13393WAT     H240422   1.848   7.408   4.754
13394WAT      O40423   6.443   7.215   8.029
13394WAT     H140424   6.408   7.188   7.939
13394WAT     H240425   6.368   7.252   8.085
13395WAT      O40426   5.813   0.503   2.474
13395WAT     H140427   5.871   0.460   2.544
13395WAT     H240428   5.869   0.559   2.414
13396WAT      O40429   1.338   8.464   5.866
13396WAT     H140430   1.357   8.538   5.930
13396WAT     H240431   1.420   8.408   5.853
13397WAT      O40432   2.758   8.315   3.336
13397WAT     H140433   2.856   8.313   3.351
13397WAT     H240434   2.736   8.389   3.271
13398WAT      O40435   7.627   0.488   0.359
13398WAT     H140436   7.671   0.467   0.446
13398WAT     H240437   7.689   0.467   0.283
13399WAT      O40438   2.368   7.033   8.056
13399WAT     H140439   2.382   6.968   8.131
13399WAT     H240440   2.431   7.012   7.982
13400WAT      O40441   6.914   9.092   6.190
13400WAT     H140442   6.877   9.043   6.270
13400WAT     H240443   6.860   9.174   6.174
13401WAT      O40444   2.071   1.343   1.547
13401WAT     H140445   2.038   1.438   1.550
13401WAT     H240446   2.167   1.341   1.575
13402WAT      O40447   4.163   9.595   6.818
13402WAT     H140448   4.080   9.559   6.861
13402WAT     H240449   4.159   9.695   6.819
13403WAT      O40450   3.787   7.133   2.699
13403WAT     H140451   3.849   7.054   2.699
13403WAT     H240452   3.814   7.196   2.772
13404WAT      O40453   0.741   5.586   2.327
13404WAT     H140454   0.828   5.561   2.284
13404WAT     H240455   0.757   5.619   2.420
13405WAT      O40456   5.355   8.247   1.798
13405WAT     H140457   5.345   8.332   1.850
13405WAT     H240458   5.267   8.201   1.793
13406WAT      O40459   8.251   1.888   4.685
13406WAT     H140460   8.243   1.790   4.698
13406WAT     H240461   8.328   1.908   4.624
13407WAT      O40462   9.475   6.351   0.126
13407WAT     H140463   9.575   6.347   0.117
13407WAT     H240464   9.434   6.284   0.064
13408WAT      O40465   3.313   5.733   9.055
13408WAT     H140466   3.408   5.702   9.048
13408WAT     H240467   3.270   5.690   9.134
13409WAT      O40468   8.895   9.726   2.562
13409WAT     H140469   8.974   9.751   2.506
13409WAT     H240470   8.828   9.677   2.506
13410WAT      O40471   0.703   0.708   5.995
13410WAT     H140472   0.747   0.798   5.992
13410WAT     H240473   0.764   0.642   6.037
13411WAT      O40474   5.024   9.780   7.422
13411WAT     H140475   5.039   9.841   7.499
13411WAT     H240476   4.938   9.803   7.376
13412WAT      O40477   8.448   7.070   5.752
13412WAT     H140478   8.444   6.971   5.765
13412WAT     H240479   8.511   7.110   5.818
13413WAT      O40480   4.338   7.237   3.264
13413WAT     H140481   4.307   7.329   3.239
13413WAT     H240482   4.266   7.190   3.316
13414WAT      O40483   9.745   0.381   8.517
13414WAT     H140484   9.815   0.451   8.508
13414WAT     H240485   9.694   0.373   8.430
13415WAT      O40486   1.792   3.486   7.762
13415WAT     H140487   1.812   3.582   7.740
13415WAT     H240488   1.756   3.480   7.855
13416WAT      O40489   5.378   8.300   5.886
13416WAT     H140490   5.444   8.306   5.961
13416WAT     H240491   5.420   8.251   5.809
13417WAT      O40492   4.959   2.858   2.351
13417WAT     H140493   4.878   2.834   2.297
13417WAT     H240494   5.018   2.919   2.297
13418WAT      O40495   8.094   7.188   6.693
13418WAT     H140496   8.133   7.279   6.708
13418WAT     H240497   8.158   7.119   6.727
13419WAT      O40498   8.264   5.133   5.706
13419WAT     H140499   8.215   5.213   5.672
13419WAT     H240500   8.304   5.154   5.796
13420WAT      O40501   5.752   0.673   5.699
13420WAT     H140502   5.661   0.655   5.736
13420WAT     H240503   5.757   0.768   5.667
13421WAT      O40504   2.781   5.419   3.963
13421WAT     H140505   2.802   5.405   3.866
13421WAT     H240506   2.767   5.517   3.980
13422WAT      O40507   9.681   5.598   8.492
13422WAT     H140508   9.677   5.698   8.503
13422WAT     H240509   9.776   5.568   8.504
13423WAT      O40510   4.918   4.174   9.474
13423WAT     H140511   4.967   4.098   9.432
13423WAT     H240512   4.977   4.219   9.540
13424WAT      O40513   8.173   6.316   2.668
13424WAT     H140514   8.153   6.410   2.642
13424WAT     H240515   8.176   6.309   2.768
13425WAT      O40516   4.119   5.882   0.694
13425WAT     H140517   4.130   5.962   0.754
13425WAT     H240518   4.207   5.861   0.651
13426WAT      O40519   6.710   3.753   7.669
13426WAT     H140520   6.659   3.701   7.737
13426WAT     H240521   6.804   3.767   7.701
13427WAT      O40522   2.384   5.225   5.311
13427WAT     H140523   2.361   5.202   5.405
13427WAT     H240524   2.390   5.140   5.257
13428WAT      O40525   3.636   5.844   1.780
13428WAT     H140526   3.624   5.746   1.789
13428WAT     H240527   3.703   5.876   1.848
13429WAT      O40528   9.750   1.241   2.760
13429WAT     H140529   9.790   1.305   2.825
13429WAT     H240530   9.737   1.152   2.805
13430WAT      O40531   7.951   2.779   4.558
13430WAT     H140532   8.000   2.807   4.475
13430WAT     H240533   7.976   2.840   4.633
13431WAT      O40534   7.400   0.027   8.105
13431WAT     H140535   7.492  -0.013   8.107
13431WAT     H240536   7.370   0.035   8.010
13432WAT      O40537   1.363   4.454   6.037
13432WAT     H140538   1.352   4.482   5.942
13432WAT     H240539   1.393   4.532   6.092
13433WAT      O40540   2.885   6.908   7.881
13433WAT     H140541   2.832   6.991   7.898
13433WAT     H240542   2.838   6.830   7.923
13434WAT      O40543   8.738   1.653   2.911
13434WAT     H140544   8.678   1.729   2.886
13434WAT     H240545   8.833   1.686   2.914
13435WAT      O40546   7.675   8.781   5.461
13435WAT     H140547   7.581   8.802   5.484
13435WAT     H240548   7.714   8.856   5.406
13436WAT      O40549   4.584   8.826   2.585
13436WAT     H140550   4.633   8.742   2.606
13436WAT     H240551   4.648   8.894   2.547
13437WAT      O40552   4.246   4.635   1.487
13437WAT     H140553   4.342   4.663   1.497
13437WAT     H240554   4.193   4.710   1.448
13438WAT      O40555   2.020   0.935   7.957
13438WAT     H140556   1.968   1.008   7.912
13438WAT     H240557   2.118   0.957   7.953
13439WAT      O40558   6.388   5.593   4.716
13439WAT     H140559   6.334   5.535   4.777
13439WAT     H240560   6.442   5.535   4.654
13440WAT      O40561   3.942   9.157   8.222
13440WAT     H140562   3.843   9.164   8.205
13440WAT     H240563   3.986   9.242   8.191
13441WAT      O40564   1.900   9.777   6.663
13441WAT     H140565   1.856   9.715   6.597
13441WAT     H240566   1.997   9.783   6.642
13442WAT      O40567   9.374   0.502   6.152
13442WAT     H140568   9.469   0.473   6.138
13442WAT     H240569   9.373   0.594   6.192
13443WAT      O40570   0.868   1.580   2.168
13443WAT     H140571   0.941   1.602   2.232
13443WAT     H240572   0.860   1.480   2.159
13444WAT      O40573   9.096   5.019   8.631
13444WAT     H140574   9.013   4.963   8.636
13444WAT     H240575   9.082   5.103   8.682
13445WAT      O40576   3.629   9.578   7.010
13445WAT     H140577   3.556   9.647   7.011
13445WAT     H240578   3.592   9.489   7.033
13446WAT      O40579   6.386   7.998   3.060
13446WAT     H140580   6.445   7.981   2.981
13446WAT     H240581   6.440   8.036   3.135
13447WAT      O40582   6.371   5.463   3.617
13447WAT     H140583   6.324   5.376   3.627
13447WAT     H240584   6.309   5.530   3.575
13448WAT      O40585   3.232   8.588   1.623
13448WAT     H140586   3.182   8.662   1.578
13448WAT     H240587   3.296   8.546   1.558
13449WAT      O40588   6.598   8.220   5.772
13449WAT     H140589   6.680   8.277   5.787
13449WAT     H240590   6.626   8.129   5.742
13450WAT      O40591   2.715   0.071   7.985
13450WAT     H140592   2.617   0.052   7.993
13450WAT     H240593   2.755   0.077   8.076
13451WAT      O40594   1.150   8.469   6.234
13451WAT     H140595   1.146   8.414   6.318
13451WAT     H240596   1.112   8.417   6.158
13452WAT      O40597   1.121   8.963   3.182
13452WAT     H140598   1.155   8.962   3.276
13452WAT     H240599   1.137   9.053   3.142
13453WAT      O40600   2.292   6.323   0.995
13453WAT     H140601   2.314   6.246   0.935
13453WAT     H240602   2.203   6.308   1.038
13454WAT      O40603   9.140   0.875   5.319
13454WAT     H140604   9.227   0.874   5.368
13454WAT     H240605   9.112   0.782   5.298
13455WAT      O40606   5.420   3.527   4.117
13455WAT     H140607   5.322   3.528   4.095
13455WAT     H240608   5.469   3.591   4.058
13456WAT      O40609   6.699   9.718   9.850
13456WAT     H140610   6.781   9.774   9.860
13456WAT     H240611   6.676   9.708   9.753
13457WAT      O40612   0.738   2.951   7.633
13457WAT     H140613   0.711   2.880   7.567
13457WAT     H240614   0.799   2.911   7.701
13458WAT      O40615   4.914   6.503   6.745
13458WAT     H140616   4.830   6.452   6.724
13458WAT     H240617   4.978   6.443   6.793
13459WAT      O40618   6.460   9.036   8.094
13459WAT     H140619   6.411   9.020   8.179
13459WAT     H240620   6.543   9.089   8.112
13460WAT      O40621   5.916   0.578   6.523
13460WAT     H140622   5.910   0.629   6.438
13460WAT     H240623   6.013   0.567   6.549
13461WAT      O40624   9.415   7.103   4.406
13461WAT     H140625   9.316   7.095   4.397
13461WAT     H240626   9.437   7.188   4.455
13462WAT      O40627   8.397   4.336   4.780
13462WAT     H140628   8.332   4.384   4.839
13462WAT     H240629   8.403   4.240   4.808
13463WAT      O40630   0.739   2.165   0.324
13463WAT     H140631   0.687   2.092   0.279
13463WAT     H240632   0.685   2.249   0.324
13464WAT      O40633   2.749   5.819   0.725
13464WAT     H140634   2.846   5.822   0.699
13464WAT     H240635   2.720   5.723   0.733
13465WAT      O40636   1.278   8.913   1.045
13465WAT     H140637   1.320   8.825   1.025
13465WAT     H240638   1.208   8.933   0.976
13466WAT      O40639   3.456   5.583   0.324
13466WAT     H140640   3.430   5.617   0.414
13466WAT     H240641   3.446   5.483   0.322
13467WAT      O40642   0.809   3.771   2.331
13467WAT     H140643   0.830   3.714   2.251
13467WAT     H240644   0.726   3.737   2.375
13468WAT      O40645   6.483   9.820   9.599
13468WAT     H140646   6.422   9.740   9.599
13468WAT     H240647   6.578   9.790   9.595
13469WAT      O40648   9.527   3.846   0.795
13469WAT     H140649   9.602   3.905   0.823
13469WAT     H240650   9.506   3.782   0.869
13470WAT      O40651   0.203   6.242   2.113
13470WAT     H140652   0.238   6.205   2.199
13470WAT     H240653   0.273   6.300   2.071
13471WAT      O40654   0.055   8.788   6.418
13471WAT     H140655   0.029   8.870   6.469
13471WAT     H240656  -0.014   8.717   6.432
13472WAT      O40657   9.455   7.930   2.686
13472WAT     H140658   9.519   7.856   2.667
13472WAT     H240659   9.504   8.018   2.681
13473WAT      O40660   7.364   4.404   0.447
13473WAT     H140661   7.458   4.431   0.429
13473WAT     H240662   7.359   4.358   0.536
13474WAT      O40663   0.326   7.467   2.879
13474WAT     H140664   0.280   7.458   2.790
13474WAT     H240665   0.348   7.375   2.914
13475WAT      O40666   2.687   6.964   1.411
13475WAT     H140667   2.703   6.868   1.388
13475WAT     H240668   2.724   7.022   1.338
13476WAT      O40669   4.071   7.994   0.002
13476WAT     H140670   4.095   7.974  -0.093
13476WAT     H240671   4.115   7.928   0.063
13477WAT      O40672   2.770   8.138   6.961
13477WAT     H140673   2.809   8.151   6.870
13477WAT     H240674   2.720   8.220   6.988
13478WAT      O40675   2.898   5.064   4.329
13478WAT     H140676   2.926   5.049   4.423
13478WAT     H240677   2.955   5.009   4.268
13479WAT      O40678   7.398   3.534   1.434
13479WAT     H140679   7.409   3.593   1.513
13479WAT     H240680   7.391   3.439   1.464
13480WAT      O40681   2.703   7.464   7.793
13480WAT     H140682   2.745   7.434   7.707
13480WAT     H240683   2.774   7.498   7.854
13481WAT      O40684   8.981   9.345   5.839
13481WAT     H140685   8.893   9.391   5.842
13481WAT     H240686   8.967   9.247   5.825
13482WAT      O40687   8.034   5.506   4.907
13482WAT     H140688   8.074   5.596   4.893
13482WAT     H240689   8.038   5.454   4.821
13483WAT      O40690   6.911   8.195   3.616
13483WAT     H140691   7.006   8.183   3.642
13483WAT     H240692   6.858   8.115   3.646
13484WAT      O40693   8.040   7.626   3.452
13484WAT     H140694   8.093   7.604   3.533
13484WAT     H240695   7.978   7.549   3.431
13485WAT      O40696   7.361   0.682   2.521
13485WAT     H140697   7.398   0.615   2.585
13485WAT     H240698   7.416   0.765   2.523
13486WAT      O40699   7.051   0.807   2.769
13486WAT     H140700   7.025   0.827   2.864
13486WAT     H240701   6.972   0.822   2.709
13487WAT      O40702   8.356   8.779   6.989
13487WAT     H140703   8.277   8.730   7.026
13487WAT     H240704   8.339   8.801   6.893
13488WAT      O40705   3.481   2.559   2.743
13488WAT     H140706   3.509   2.615   2.821
13488WAT     H240707   3.391   2.519   2.761
13489WAT      O40708   2.685   1.388   2.993
13489WAT     H140709   2.654   1.355   3.082
13489WAT     H240710   2.667   1.319   2.923
13490WAT      O40711   8.088   2.988   0.981
13490WAT     H140712   8.147   2.925   1.032
13490WAT     H240713   8.058   2.944   0.896
13491WAT      O40714   7.278   2.970   0.789
13491WAT     H140715   7.327   2.948   0.705
13491WAT     H240716   7.228   3.056   0.777
13492WAT      O40717   8.314   9.465   5.151
13492WAT     H140718   8.387   9.404   5.122
13492WAT     H240719   8.294   9.530   5.078
13493WAT      O40720   1.969   1.087   0.857
13493WAT     H140721   1.988   1.172   0.808
13493WAT     H240722   2.028   1.081   0.938
13494WAT      O40723   5.074   4.662   5.330
13494WAT     H140724   5.147   4.644   5.265
13494WAT     H240725   5.041   4.755   5.319
13495WAT      O40726   3.183   7.268   5.650
13495WAT     H140727   3.231   7.348   5.685
13495WAT     H240728   3.084   7.281   5.661
13496WAT      O40729   8.206   3.586   7.106
13496WAT     H140730   8.272   3.519   7.072
13496WAT     H240731   8.175   3.644   7.031
13497WAT      O40732   5.644   7.473   7.655
13497WAT     H140733   5.620   7.504   7.563
13497WAT     H240734   5.681   7.380   7.651
13498WAT      O40735   2.279   8.964   4.155
13498WAT     H140736   2.230   8.898   4.097
13498WAT     H240737   2.357   8.919   4.198
13499WAT      O40738   6.819   7.026   8.019
13499WAT     H140739   6.748   7.028   8.090
13499WAT     H240740   6.873   7.110   8.024
13500WAT      O40741   4.265   0.491   8.855
13500WAT     H140742   4.337   0.555   8.827
13500WAT     H240743   4.218   0.526   8.935
13501WAT      O40744   5.474   1.724   3.082
13501WAT     H140745   5.512   1.794   3.021
13501WAT     H240746   5.392   1.759   3.126
13502WAT      O40747   3.114   3.028   0.747
13502WAT     H140748   3.097   3.115   0.702
13502WAT     H240749   3.072   2.954   0.693
13503WAT      O40750   6.568   3.202   8.650
13503WAT     H140751   6.643   3.265   8.629
13503WAT     H240752   6.594   3.109   8.625
13504WAT      O40753   4.682   9.433   1.957
13504WAT     H140754   4.646   9.339   1.959
13504WAT     H240755   4.752   9.440   1.886
13505WAT      O40756   2.209   8.036   3.846
13505WAT     H140757   2.280   8.045   3.916
13505WAT     H240758   2.243   8.074   3.760
13506WAT      O40759   8.214   9.064   5.349
13506WAT     H140760   8.157   9.097   5.274
13506WAT     H240761   8.157   9.014   5.414
13507WAT      O40762   7.073   8.740   8.655
13507WAT     H140763   7.120   8.663   8.611
13507WAT     H240764   7.059   8.813   8.589
13508WAT      O40765   9.335   4.186   1.100
13508WAT     H140766   9.424   4.149   1.073
13508WAT     H240767   9.337   4.285   1.094
13509WAT      O40768   0.407   8.600   4.005
13509WAT     H140769   0.332   8.572   3.945
13509WAT     H240770   0.478   8.530   4.003
13510WAT      O40771   8.850   1.209   7.885
13510WAT     H140772   8.835   1.277   7.813
13510WAT     H240773   8.948   1.187   7.889
13511WAT      O40774   1.853   0.638   5.572
13511WAT     H140775   1.866   0.553   5.522
13511WAT     H240776   1.871   0.624   5.669
13512WAT      O40777   4.284   7.366   8.240
13512WAT     H140778   4.268   7.416   8.155
13512WAT     H240779   4.203   7.371   8.298
13513WAT      O40780   0.194   6.414   0.116
13513WAT     H140781   0.284   6.380   0.087
13513WAT     H240782   0.169   6.494   0.061
13514WAT      O40783   4.583   3.197   3.635
13514WAT     H140784   4.645   3.166   3.708
13514WAT     H240785   4.494   3.219   3.675
13515WAT      O40786   3.321   4.023   2.277
13515WAT     H140787   3.281   4.093   2.217
13515WAT     H240788   3.414   4.050   2.303
13516WAT      O40789   7.444   3.620   6.148
13516WAT     H140790   7.514   3.645   6.215
13516WAT     H240791   7.487   3.578   6.069
13517WAT      O40792   7.219   2.814   5.303
13517WAT     H140793   7.281   2.772   5.236
13517WAT     H240794   7.209   2.911   5.283
13518WAT      O40795   9.444   8.373   5.934
13518WAT     H140796   9.464   8.378   5.837
13518WAT     H240797   9.394   8.456   5.962
13519WAT      O40798   3.723   7.739   7.083
13519WAT     H140799   3.810   7.741   7.133
13519WAT     H240800   3.716   7.653   7.032
13520WAT      O40801   1.696   3.300   8.258
13520WAT     H140802   1.774   3.238   8.252
13520WAT     H240803   1.638   3.274   8.335
13521WAT      O40804   8.839   0.431   2.430
13521WAT     H140805   8.778   0.353   2.414
13521WAT     H240806   8.795   0.514   2.397
13522WAT      O40807   8.714   7.059   5.114
13522WAT     H140808   8.795   7.015   5.076
13522WAT     H240809   8.640   6.991   5.123
13523WAT      O40810   3.381   3.591   7.023
13523WAT     H140811   3.452   3.580   7.093
13523WAT     H240812   3.378   3.686   6.993
13524WAT      O40813   2.175   0.008   6.375
13524WAT     H140814   2.155  -0.054   6.299
13524WAT     H240815   2.105   0.080   6.379
13525WAT      O40816   2.430   8.955   7.364
13525WAT     H140817   2.474   8.920   7.282
13525WAT     H240818   2.491   8.941   7.443
13526WAT      O40819   7.674   3.784   3.155
13526WAT     H140820   7.765   3.756   3.126
13526WAT     H240821   7.643   3.725   3.230
13527WAT      O40822   2.074   6.844   2.146
13527WAT     H140823   2.119   6.770   2.197
13527WAT     H240824   2.104   6.932   2.183
13528WAT      O40825   8.680   2.867   3.807
13528WAT     H140826   8.759   2.920   3.839
13528WAT     H240827   8.652   2.804   3.879
13529WAT      O40828   2.040   1.805   0.261
13529WAT     H140829   2.059   1.758   0.348
13529WAT     H240830   1.946   1.783   0.233
13530WAT      O40831   2.701   5.223   2.696
13530WAT     H140832   2.626   5.280   2.729
13530WAT     H240833   2.702   5.223   2.596
13531WAT      O40834   0.663   6.700   8.366
13531WAT     H140835   0.719   6.728   8.444
13531WAT     H240836   0.719   6.700   8.283
13532WAT      O40837   2.709   6.144   6.500
13532WAT     H140838   2.716   6.227   6.445
13532WAT     H240839   2.776   6.076   6.468
13533WAT      O40840   3.614   7.941   3.111
13533WAT     H140841   3.531   7.998   3.111
13533WAT     H240842   3.681   7.981   3.048
13534WAT      O40843   9.566   8.895   2.516
13534WAT     H140844   9.548   8.980   2.565
13534WAT     H240845   9.633   8.841   2.566
13535WAT      O40846   7.385   6.454   1.469
13535WAT     H140847   7.376   6.552   1.486
13535WAT     H240848   7.482   6.430   1.462
13536WAT      O40849   5.529   3.177   6.573
13536WAT     H140850   5.577   3.216   6.652
13536WAT     H240851   5.494   3.251   6.516
13537WAT      O40852   8.010   1.401   6.179
13537WAT     H140853   7.914   1.416   6.158
13537WAT     H240854   8.053   1.351   6.104
13538WAT      O40855   2.986   2.814   8.118
13538WAT     H140856   2.991   2.714   8.123
13538WAT     H240857   3.076   2.853   8.137
13539WAT      O40858   2.042   6.047   3.677
13539WAT     H140859   2.018   6.005   3.590
13539WAT     H240860   2.141   6.066   3.679
13540WAT      O40861   1.741   0.033   7.454
13540WAT     H140862   1.743   0.121   7.406
13540WAT     H240863   1.663   0.032   7.516
13541WAT      O40864   6.419   6.456   2.554
13541WAT     H140865   6.500   6.403   2.528
13541WAT     H240866   6.435   6.553   2.535
13542WAT      O40867   1.548   3.055   9.484
13542WAT     H140868   1.595   2.990   9.424
13542WAT     H240869   1.614   3.097   9.546
13543WAT      O40870   7.263   1.206   2.472
13543WAT     H140871   7.294   1.267   2.545
13543WAT     H240872   7.240   1.117   2.510
13544WAT      O40873   6.250   2.341   6.613
13544WAT     H140874   6.265   2.254   6.661
13544WAT     H240875   6.200   2.404   6.672
13545WAT      O40876   5.627   0.017   7.907
13545WAT     H140877   5.586  -0.065   7.865
13545WAT     H240878   5.681   0.066   7.839
13546WAT      O40879   1.129   2.835   7.544
13546WAT     H140880   1.132   2.934   7.533
13546WAT     H240881   1.208   2.805   7.597
13547WAT      O40882   8.127   8.459   7.294
13547WAT     H140883   8.141   8.385   7.227
13547WAT     H240884   8.205   8.462   7.356
13548WAT      O40885   8.607   4.337   0.033
13548WAT     H140886   8.642   4.337   0.127
13548WAT     H240887   8.542   4.262   0.022
13549WAT      O40888   4.975   8.225   0.211
13549WAT     H140889   4.990   8.317   0.175
13549WAT     H240890   4.965   8.161   0.134
13550WAT      O40891   4.746   6.910   1.796
13550WAT     H140892   4.674   6.881   1.859
13550WAT     H240893   4.799   6.984   1.838
13551WAT      O40894   7.526   3.716   5.848
13551WAT     H140895   7.523   3.808   5.888
13551WAT     H240896   7.436   3.692   5.813
13552WAT      O40897   9.458   8.102   0.567
13552WAT     H140898   9.461   8.002   0.558
13552WAT     H240899   9.546   8.135   0.599
13553WAT      O40900   9.633   9.509   9.595
13553WAT     H140901   9.698   9.557   9.653
13553WAT     H240902   9.624   9.414   9.626
13554WAT      O40903   1.191   1.406   7.633
13554WAT     H140904   1.245   1.343   7.689
13554WAT     H240905   1.221   1.400   7.538
13555WAT      O40906   5.532   2.858   1.611
13555WAT     H140907   5.551   2.891   1.519
13555WAT     H240908   5.510   2.760   1.608
13556WAT      O40909   0.811   5.241   5.960
13556WAT     H140910   0.836   5.183   5.882
13556WAT     H240911   0.714   5.226   5.982
13557WAT      O40912   7.204   3.761   4.326
13557WAT     H140913   7.300   3.731   4.325
13557WAT     H240914   7.144   3.682   4.314
13558WAT      O40915   8.452   6.066   2.656
13558WAT     H140916   8.463   5.977   2.700
13558WAT     H240917   8.471   6.139   2.721
13559WAT      O40918   7.571   6.508   2.467
13559WAT     H140919   7.527   6.441   2.528
13559WAT     H240920   7.667   6.520   2.494
13560WAT      O40921   8.080   1.359   3.340
13560WAT     H140922   8.049   1.398   3.253
13560WAT     H240923   8.174   1.387   3.358
13561WAT      O40924   4.550   8.242   9.359
13561WAT     H140925   4.581   8.236   9.264
13561WAT     H240926   4.606   8.182   9.416
13562WAT      O40927   8.360   0.185   7.113
13562WAT     H140928   8.337   0.120   7.184
13562WAT     H240929   8.298   0.172   7.034
13563WAT      O40930   3.409   1.531   8.572
13563WAT     H140931   3.348   1.528   8.651
13563WAT     H240932   3.464   1.448   8.569
13564WAT      O40933   7.327   0.712   2.175
13564WAT     H140934   7.256   0.649   2.144
13564WAT     H240935   7.298   0.757   2.259
13565WAT      O40936   2.556   4.171   3.773
13565WAT     H140937   2.549   4.077   3.808
13565WAT     H240938   2.475   4.192   3.718
13566WAT      O40939   8.070   4.930   8.588
13566WAT     H140940   8.129   4.876   8.649
13566WAT     H240941   7.975   4.903   8.603
13567WAT      O40942   8.004   9.160   4.431
13567WAT     H140943   8.040   9.213   4.508
13567WAT     H240944   8.039   9.067   4.436
13568WAT      O40945   9.243   1.061   7.178
13568WAT     H140946   9.308   0.986   7.193
13568WAT     H240947   9.166   1.051   7.240
13569WAT      O40948   7.005   4.493   8.547
13569WAT     H140949   7.015   4.574   8.489
13569WAT     H240950   7.095   4.451   8.560
13570WAT      O40951   6.957   1.224   7.504
13570WAT     H140952   7.056   1.225   7.517
13570WAT     H240953   6.931   1.144   7.450
13571WAT      O40954   6.030   9.255   9.712
13571WAT     H140955   6.077   9.167   9.713
13571WAT     H240956   5.949   9.251   9.770
13572WAT      O40957   9.732   1.308   7.049
13572WAT     H140958   9.705   1.401   7.075
13572WAT     H240959   9.705   1.244   7.121
13573WAT      O40960   9.077   1.302   1.873
13573WAT     H140961   9.027   1.218   1.851
13573WAT     H240962   9.012   1.375   1.892
13574WAT      O40963   7.531   8.057   2.575
13574WAT     H140964   7.520   7.998   2.655
13574WAT     H240965   7.613   8.114   2.586
13575WAT      O40966   5.637   6.959   1.569
13575WAT     H140967   5.701   7.015   1.514
13575WAT     H240968   5.611   6.878   1.517
13576WAT      O40969   2.529   3.758   7.380
13576WAT     H140970   2.503   3.855   7.389
13576WAT     H240971   2.603   3.749   7.314
13577WAT      O40972   8.508   7.869   9.420
13577WAT     H140973   8.564   7.952   9.426
13577WAT     H240974   8.519   7.830   9.328
13578WAT      O40975   7.974   1.063   2.984
13578WAT     H140976   7.992   1.159   2.961
13578WAT     H240977   8.058   1.021   3.019
13579WAT      O40978   7.388   9.597   0.495
13579WAT     H140979   7.472   9.651   0.499
13579WAT     H240980   7.406   9.504   0.526
13580WAT      O40981   2.818   4.546   6.225
13580WAT     H140982   2.866   4.552   6.313
13580WAT     H240983   2.719   4.547   6.241
13581WAT      O40984   9.362   6.577   0.797
13581WAT     H140985   9.427   6.615   0.864
13581WAT     H240986   9.318   6.651   0.748
13582WAT      O40987   2.897   7.288   3.726
13582WAT     H140988   2.862   7.301   3.819
13582WAT     H240989   2.820   7.285   3.662
13583WAT      O40990   4.635   4.172   0.414
13583WAT     H140991   4.623   4.272   0.410
13583WAT     H240992   4.647   4.137   0.321
13584WAT      O40993   4.134   3.479   5.687
13584WAT     H140994   4.223   3.433   5.681
13584WAT     H240995   4.122   3.516   5.779
13585WAT      O40996   2.879   7.862   8.570
13585WAT     H140997   2.891   7.764   8.553
13585WAT     H240998   2.897   7.882   8.666
13586WAT      O40999   6.697   0.215   3.354
13586WAT     H141000   6.627   0.157   3.396
13586WAT     H241001   6.690   0.308   3.392
13587WAT      O41002   9.424   7.446   3.627
13587WAT     H141003   9.349   7.435   3.561
13587WAT     H241004   9.391   7.499   3.706
13588WAT      O41005   0.118   1.361   8.705
13588WAT     H141006   0.135   1.283   8.644
13588WAT     H241007   0.030   1.402   8.682
13589WAT      O41008   9.039   2.355   1.379
13589WAT     H141009   9.087   2.273   1.347
13589WAT     H241010   9.101   2.409   1.437
13590WAT      O41011   4.419   5.810   8.196
13590WAT     H141012   4.452   5.720   8.223
13590WAT     H241013   4.321   5.806   8.178
13591WAT      O41014   2.219   1.512   4.550
13591WAT     H141015   2.223   1.434   4.613
13591WAT     H241016   2.161   1.488   4.472
13592WAT      O41017   2.142   3.475   0.028
13592WAT     H141018   2.167   3.378   0.039
13592WAT     H241019   2.047   3.488   0.055
13593WAT      O41020   0.986   4.389   2.353
13593WAT     H141021   0.975   4.419   2.448
13593WAT     H241022   0.901   4.348   2.321
13594WAT      O41023   3.695   8.196   7.677
13594WAT     H141024   3.707   8.291   7.649
13594WAT     H241025   3.599   8.179   7.698
13595WAT      O41026   7.797   8.664   8.437
13595WAT     H141027   7.760   8.757   8.447
13595WAT     H241028   7.833   8.633   8.525
13596WAT      O41029   9.239   3.817   1.796
13596WAT     H141030   9.217   3.811   1.893
13596WAT     H241031   9.278   3.907   1.776
13597WAT      O41032   7.109   6.284   8.763
13597WAT     H141033   7.147   6.200   8.725
13597WAT     H241034   7.067   6.265   8.852
13598WAT      O41035   6.117   4.480   2.182
13598WAT     H141036   6.068   4.434   2.256
13598WAT     H241037   6.214   4.488   2.205
13599WAT      O41038   3.790   2.683   2.004
13599WAT     H141039   3.802   2.713   1.909
13599WAT     H241040   3.713   2.731   2.045
13600WAT      O41041   4.046   2.611   5.106
13600WAT     H141042   4.098   2.588   5.024
13600WAT     H241043   3.977   2.541   5.123
13601WAT      O41044   5.025   4.740   5.997
13601WAT     H141045   5.063   4.820   5.951
13601WAT     H241046   4.933   4.760   6.029
13602WAT      O41047   5.085   2.558   3.528
13602WAT     H141048   5.142   2.478   3.508
13602WAT     H241049   5.096   2.584   3.624
13603WAT      O41050   8.241   2.609   9.575
13603WAT     H141051   8.298   2.651   9.505
13603WAT     H241052   8.209   2.678   9.639
13604WAT      O41053   6.100   2.514   8.448
13604WAT     H141054   6.114   2.415   8.444
13604WAT     H241055   6.150   2.552   8.527
13605WAT      O41056   0.994   3.132   1.140
13605WAT     H141057   1.072   3.188   1.166
13605WAT     H241058   0.921   3.143   1.208
13606WAT      O41059   2.424   0.091   3.173
13606WAT     H141060   2.440   0.003   3.129
13606WAT     H241061   2.368   0.077   3.255
13607WAT      O41062   5.205   0.722   7.350
13607WAT     H141063   5.244   0.702   7.261
13607WAT     H241064   5.254   0.798   7.392
13608WAT      O41065   7.330   2.094   6.811
13608WAT     H141066   7.275   2.144   6.744
13608WAT     H241067   7.363   2.009   6.769
13609WAT      O41068   8.874   8.264   5.237
13609WAT     H141069   8.967   8.299   5.227
13609WAT     H241070   8.876   8.178   5.288
13610WAT      O41071   8.011   9.489   7.233
13610WAT     H141072   8.065   9.445   7.161
13610WAT     H241073   8.012   9.432   7.315
13611WAT      O41074   0.054   3.206   7.656
13611WAT     H141075  -0.039   3.209   7.618
13611WAT     H241076   0.052   3.164   7.746
13612WAT      O41077   8.037   4.248   2.178
13612WAT     H141078   8.088   4.295   2.106
13612WAT     H241079   8.035   4.307   2.260
13613WAT      O41080   2.472   9.736   1.224
13613WAT     H141081   2.431   9.806   1.166
13613WAT     H241082   2.528   9.780   1.294
13614WAT      O41083   6.784   6.741   7.409
13614WAT     H141084   6.867   6.779   7.367
13614WAT     H241085   6.806   6.704   7.499
13615WAT      O41086   0.710   3.838   4.268
13615WAT     H141087   0.720   3.904   4.342
13615WAT     H241088   0.800   3.817   4.230
13616WAT      O41089   0.456   5.270   7.225
13616WAT     H141090   0.504   5.197   7.273
13616WAT     H241091   0.480   5.358   7.266
13617WAT      O41092   2.584   1.004   7.348
13617WAT     H141093   2.664   0.979   7.295
13617WAT     H241094   2.610   1.069   7.419
13618WAT      O41095   2.842   1.054   5.981
13618WAT     H141096   2.877   0.963   5.955
13618WAT     H241097   2.833   1.110   5.898
13619WAT      O41098   6.091   7.995   3.606
13619WAT     H141099   6.171   7.938   3.629
13619WAT     H241100   6.081   8.067   3.675
13620WAT      O41101   4.296   0.068   9.483
13620WAT     H141102   4.237   0.080   9.402
13620WAT     H241103   4.240   0.067   9.565
13621WAT      O41104   2.351   5.720   4.253
13621WAT     H141105   2.422   5.675   4.198
13621WAT     H241106   2.282   5.759   4.192
13622WAT      O41107   5.173   1.533   6.309
13622WAT     H141108   5.096   1.490   6.261
13622WAT     H241109   5.184   1.627   6.278
13623WAT      O41110   1.480   6.437   4.495
13623WAT     H141111   1.425   6.434   4.578
13623WAT     H241112   1.544   6.514   4.500
13624WAT      O41113   9.077   2.514   1.138
13624WAT     H141114   9.045   2.470   1.222
13624WAT     H241115   9.175   2.532   1.145
13625WAT      O41116   7.314   1.509   1.447
13625WAT     H141117   7.323   1.491   1.545
13625WAT     H241118   7.404   1.512   1.405
13626WAT      O41119   0.250   2.153   4.062
13626WAT     H141120   0.249   2.149   4.162
13626WAT     H241121   0.208   2.238   4.031
13627WAT      O41122   0.543   9.049   3.843
13627WAT     H141123   0.478   9.070   3.769
13627WAT     H241124   0.501   8.985   3.907
13628WAT      O41125   1.111   4.550   4.926
13628WAT     H141126   1.168   4.475   4.892
13628WAT     H241127   1.144   4.636   4.889
13629WAT      O41128   3.247   8.370   4.911
13629WAT     H141129   3.316   8.359   4.982
13629WAT     H241130   3.287   8.345   4.822
13630WAT      O41131   1.970   5.060   8.704
13630WAT     H141132   1.942   4.986   8.764
13630WAT     H241133   1.889   5.107   8.669
13631WAT      O41134   3.152   6.744   0.358
13631WAT     H141135   3.159   6.706   0.451
13631WAT     H241136   3.237   6.725   0.309
13632WAT      O41137   3.211   9.036   4.047
13632WAT     H141138   3.206   9.043   3.947
13632WAT     H241139   3.307   9.035   4.075
13633WAT      O41140   2.179   1.793   4.151
13633WAT     H141141   2.263   1.846   4.138
13633WAT     H241142   2.111   1.848   4.200
13634WAT      O41143   6.922   4.177   5.596
13634WAT     H141144   6.943   4.273   5.579
13634WAT     H241145   6.864   4.170   5.678
13635WAT      O41146   7.077   8.048   1.485
13635WAT     H141147   6.986   8.089   1.477
13635WAT     H241148   7.145   8.120   1.495
13636WAT      O41149   3.228   8.117   4.536
13636WAT     H141150   3.142   8.085   4.577
13636WAT     H241151   3.281   8.039   4.503
13637WAT      O41152   3.535   7.739   6.609
13637WAT     H141153   3.589   7.819   6.581
13637WAT     H241154   3.595   7.659   6.612
13638WAT      O41155   6.773   8.623   8.209
13638WAT     H141156   6.823   8.698   8.166
13638WAT     H241157   6.770   8.545   8.147
13639WAT      O41158   1.529   6.300   1.967
13639WAT     H141159   1.567   6.258   2.049
13639WAT     H241160   1.583   6.273   1.888
13640WAT      O41161   8.395   3.350   1.587
13640WAT     H141162   8.342   3.324   1.667
13640WAT     H241163   8.489   3.319   1.596
13641WAT      O41164   3.431   7.724   3.665
13641WAT     H141165   3.459   7.629   3.651
13641WAT     H241166   3.497   7.786   3.622
13642WAT      O41167   4.118   6.675   7.724
13642WAT     H141168   4.172   6.606   7.677
13642WAT     H241169   4.097   6.750   7.661
13643WAT      O41170   0.088   9.598   4.849
13643WAT     H141171   0.029   9.561   4.777
13643WAT     H241172   0.160   9.654   4.808
13644WAT      O41173   5.446   7.203   8.585
13644WAT     H141174   5.359   7.243   8.617
13644WAT     H241175   5.478   7.136   8.651
13645WAT      O41176   3.212   0.125   3.446
13645WAT     H141177   3.171   0.057   3.507
13645WAT     H241178   3.222   0.086   3.354
13646WAT      O41179   0.882   3.155   0.872
13646WAT     H141180   0.809   3.088   0.872
13646WAT     H241181   0.923   3.160   0.963
13647WAT      O41182   7.433   7.954   7.639
13647WAT     H141183   7.362   7.886   7.656
13647WAT     H241184   7.513   7.932   7.694
13648WAT      O41185   2.786   9.089   1.364
13648WAT     H141186   2.819   9.018   1.302
13648WAT     H241187   2.714   9.052   1.423
13649WAT      O41188   0.817   1.839   0.206
13649WAT     H141189   0.907   1.809   0.173
13649WAT     H241190   0.789   1.781   0.282
13650WAT      O41191   6.864   9.597   8.081
13650WAT     H141192   6.899   9.512   8.119
13650WAT     H241193   6.779   9.578   8.031
13651WAT      O41194   4.867   6.061   0.348
13651WAT     H141195   4.913   6.084   0.262
13651WAT     H241196   4.935   6.051   0.420
13652WAT      O41197   1.675   8.075   1.006
13652WAT     H141198   1.680   8.163   0.959
13652WAT     H241199   1.673   8.091   1.105
13653WAT      O41200   5.598   6.355   3.884
13653WAT     H141201   5.673   6.366   3.819
13653WAT     H241202   5.634   6.320   3.971
13654WAT      O41203   9.565   6.495   5.275
13654WAT     H141204   9.628   6.573   5.272
13654WAT     H241205   9.472   6.528   5.295
13655WAT      O41206   3.987   3.401   3.484
13655WAT     H141207   3.955   3.441   3.570
13655WAT     H241208   4.021   3.473   3.424
13656WAT      O41209   5.035   2.379   1.089
13656WAT     H141210   4.972   2.374   1.167
13656WAT     H241211   5.008   2.453   1.028
13657WAT      O41212   9.472   5.860   6.151
13657WAT     H141213   9.451   5.766   6.179
13657WAT     H241214   9.388   5.913   6.147
13658WAT      O41215   7.584   8.825   7.713
13658WAT     H141216   7.504   8.884   7.709
13658WAT     H241217   7.667   8.880   7.705
13659WAT      O41218   9.658   2.102   1.051
13659WAT     H141219   9.567   2.066   1.027
13659WAT     H241220   9.726   2.065   0.989
13660WAT      O41221   4.619   2.740   7.616
13660WAT     H141222   4.673   2.753   7.699
13660WAT     H241223   4.540   2.682   7.636
13661WAT      O41224   8.531   0.507   3.485
13661WAT     H141225   8.578   0.466   3.563
13661WAT     H241226   8.476   0.584   3.516
13662WAT      O41227   4.589   8.947   3.910
13662WAT     H141228   4.506   8.903   3.876
13662WAT     H241229   4.635   8.886   3.976
13663WAT      O41230   3.598   0.686   7.361
13663WAT     H141231   3.611   0.608   7.422
13663WAT     H241232   3.687   0.715   7.325
13664WAT      O41233   0.354   0.989   1.456
13664WAT     H141234   0.332   1.073   1.405
13664WAT     H241235   0.401   0.925   1.396
13665WAT      O41236   7.216   6.109   1.520
13665WAT     H141237   7.178   6.137   1.432
13665WAT     H241238   7.313   6.135   1.524
13666WAT      O41239   8.093   6.338   4.830
13666WAT     H141240   8.102   6.321   4.928
13666WAT     H241241   8.136   6.263   4.779
13667WAT      O41242   9.477   1.549   1.926
13667WAT     H141243   9.383   1.549   1.962
13667WAT     H241244   9.490   1.630   1.868
13668WAT      O41245   7.777   6.072   5.754
13668WAT     H141246   7.750   6.096   5.847
13668WAT     H241247   7.703   6.097   5.691
13669WAT      O41248   7.211   1.431   2.212
13669WAT     H141249   7.253   1.408   2.125
13669WAT     H241250   7.279   1.473   2.272
13670WAT      O41251   2.034   6.292   1.048
13670WAT     H141252   1.992   6.201   1.042
13670WAT     H241253   1.975   6.358   1.001
13671WAT      O41254   4.659   6.832   9.232
13671WAT     H141255   4.680   6.860   9.326
13671WAT     H241256   4.562   6.848   9.213
13672WAT      O41257   0.445   5.386   9.300
13672WAT     H141258   0.375   5.455   9.321
13672WAT     H241259   0.516   5.427   9.243
13673WAT      O41260   1.311   9.834   3.256
13673WAT     H141261   1.270   9.744   3.248
13673WAT     H241262   1.305   9.865   3.351
13674WAT      O41263   5.214   0.297   0.335
13674WAT     H141264   5.210   0.277   0.237
13674WAT     H241265   5.284   0.239   0.378
13675WAT      O41266   7.882   6.920   2.871
13675WAT     H141267   7.959   6.967   2.828
13675WAT     H241268   7.800   6.929   2.814
13676WAT      O41269   7.869   5.622   5.589
13676WAT     H141270   7.935   5.697   5.585
13676WAT     H241271   7.851   5.588   5.497
13677WAT      O41272   1.257   4.006   8.253
13677WAT     H141273   1.323   3.930   8.253
13677WAT     H241274   1.174   3.977   8.300
13678WAT      O41275   0.991   2.439   5.133
13678WAT     H141276   0.908   2.428   5.078
13678WAT     H241277   1.041   2.353   5.135
13679WAT      O41278   8.630   8.674   4.655
13679WAT     H141279   8.658   8.585   4.620
13679WAT     H241280   8.667   8.746   4.596
13680WAT      O41281   7.294   2.988   2.100
13680WAT     H141282   7.247   2.953   2.181
13680WAT     H241283   7.387   2.950   2.096
13681WAT      O41284   2.233   0.786   4.823
13681WAT     H141285   2.259   0.828   4.910
13681WAT     H241286   2.148   0.735   4.836
13682WAT      O41287   3.215   5.119   8.692
13682WAT     H141288   3.244   5.087   8.782
13682WAT     H241289   3.187   5.215   8.698
13683WAT      O41290   5.535   7.866   7.668
13683WAT     H141291   5.502   7.952   7.629
13683WAT     H241292   5.628   7.849   7.635
13684WAT      O41293   1.075   0.163   7.963
13684WAT     H141294   1.130   0.232   8.011
13684WAT     H241295   1.038   0.202   7.879
13685WAT      O41296   9.878   5.399   9.784
13685WAT     H141297   9.838   5.353   9.864
13685WAT     H241298   9.966   5.357   9.762
13686WAT      O41299   9.834   8.872   6.159
13686WAT     H141300   9.885   8.935   6.217
13686WAT     H241301   9.806   8.793   6.212
13687WAT      O41302   6.136   6.467   0.439
13687WAT     H141303   6.043   6.439   0.414
13687WAT     H241304   6.136   6.565   0.462
13688WAT      O41305   2.628   4.518   4.536
13688WAT     H141306   2.670   4.428   4.553
13688WAT     H241307   2.608   4.562   4.623
13689WAT      O41308   0.671   2.707   4.817
13689WAT     H141309   0.577   2.671   4.816
13689WAT     H241310   0.691   2.747   4.727
13690WAT      O41311   0.014   8.326   8.425
13690WAT     H141312  -0.072   8.364   8.459
13690WAT     H241313   0.013   8.227   8.437
13691WAT      O41314   9.448   0.452   5.538
13691WAT     H141315   9.482   0.462   5.444
13691WAT     H241316   9.348   0.456   5.538
13692WAT      O41317   9.495   4.236   0.634
13692WAT     H141318   9.440   4.316   0.656
13692WAT     H241319   9.585   4.245   0.678
13693WAT      O41320   4.480   5.015   9.086
13693WAT     H141321   4.575   4.993   9.105
13693WAT     H241322   4.432   4.932   9.055
13694WAT      O41323   2.353   5.385   9.042
13694WAT     H141324   2.343   5.315   9.112
13694WAT     H241325   2.450   5.396   9.019
13695WAT      O41326   8.831   8.020   8.937
13695WAT     H141327   8.917   8.071   8.949
13695WAT     H241328   8.848   7.939   8.882
13696WAT      O41329   9.677   8.572   4.908
13696WAT     H141330   9.605   8.598   4.844
13696WAT     H241331   9.646   8.494   4.962
13697WAT      O41332   1.709   4.548   6.876
13697WAT     H141333   1.617   4.572   6.906
13697WAT     H241334   1.747   4.621   6.820
13698WAT      O41335   7.521   2.383   6.163
13698WAT     H141336   7.591   2.453   6.146
13698WAT     H241337   7.430   2.424   6.149
13699WAT      O41338   0.621   6.801   6.534
13699WAT     H141339   0.655   6.846   6.617
13699WAT     H241340   0.644   6.856   6.454
13700WAT      O41341   1.934   3.118   3.079
13700WAT     H141342   1.907   3.027   3.112
13700WAT     H241343   1.967   3.111   2.985
13701WAT      O41344   0.396   8.569   4.291
13701WAT     H141345   0.480   8.554   4.343
13701WAT     H241346   0.417   8.565   4.193
13702WAT      O41347   4.214   1.093   2.574
13702WAT     H141348   4.293   1.101   2.514
13702WAT     H241349   4.242   1.051   2.661
13703WAT      O41350   0.479   0.898   4.858
13703WAT     H141351   0.529   0.980   4.888
13703WAT     H241352   0.381   0.912   4.875
13704WAT      O41353   5.299   5.573   2.216
13704WAT     H141354   5.326   5.480   2.242
13704WAT     H241355   5.239   5.611   2.286
13705WAT      O41356   0.307   6.958   6.173
13705WAT     H141357   0.272   7.038   6.220
13705WAT     H241358   0.291   6.877   6.229
13706WAT      O41359   5.087   9.227   8.598
13706WAT     H141360   5.029   9.156   8.558
13706WAT     H241361   5.162   9.185   8.649
13707WAT      O41362   6.351   5.044   6.681
13707WAT     H141363   6.356   5.138   6.712
13707WAT     H241364   6.430   4.993   6.716
13708WAT      O41365   0.401   9.323   9.473
13708WAT     H141366   0.486   9.290   9.432
13708WAT     H241367   0.343   9.245   9.498
13709WAT      O41368   7.809   9.178   0.595
13709WAT     H141369   7.869   9.254   0.619
13709WAT     H241370   7.833   9.098   0.650
13710WAT      O41371   1.025   9.120   5.560
13710WAT     H141372   0.947   9.118   5.497
13710WAT     H241373   1.050   9.026   5.584
13711WAT      O41374   4.566   8.539   1.364
13711WAT     H141375   4.542   8.507   1.456
13711WAT     H241376   4.558   8.463   1.300
13712WAT      O41377   1.891   6.502   3.601
13712WAT     H141378   1.979   6.506   3.553
13712WAT     H241379   1.886   6.418   3.654
13713WAT      O41380   7.803   2.646   9.672
13713WAT     H141381   7.745   2.635   9.591
13713WAT     H241382   7.745   2.661   9.752
13714WAT      O41383   2.675   8.041   5.697
13714WAT     H141384   2.739   8.001   5.631
13714WAT     H241385   2.722   8.057   5.783
13715WAT      O41386   6.555   0.086   2.934
13715WAT     H141387   6.527   0.030   2.856
13715WAT     H241388   6.535   0.037   3.019
13716WAT      O41389   9.819   0.143   1.301
13716WAT     H141390   9.906   0.118   1.259
13716WAT     H241391   9.744   0.123   1.238
13717WAT      O41392   0.704   6.754   1.155
13717WAT     H141393   0.797   6.723   1.134
13717WAT     H241394   0.684   6.737   1.251
13718WAT      O41395   0.144   5.374   4.864
13718WAT     H141396   0.123   5.374   4.962
13718WAT     H241397   0.098   5.297   4.820
13719WAT      O41398   6.128   4.475   0.271
13719WAT     H141399   6.061   4.505   0.338
13719WAT     H241400   6.085   4.413   0.206
13720WAT      O41401   4.936   1.331   1.262
13720WAT     H141402   4.895   1.419   1.238
13720WAT     H241403   5.001   1.344   1.338
13721WAT      O41404   3.694   4.513   4.551
13721WAT     H141405   3.745   4.427   4.546
13721WAT     H241406   3.694   4.557   4.461
13722WAT      O41407   3.502   0.623   2.741
13722WAT     H141408   3.485   0.671   2.655
13722WAT     H241409   3.565   0.676   2.797
13723WAT      O41410   1.007   0.250   3.327
13723WAT     H141411   1.039   0.251   3.422
13723WAT     H241412   0.938   0.179   3.315
13724WAT      O41413   6.834   3.944   3.379
13724WAT     H141414   6.870   3.851   3.382
13724WAT     H241415   6.766   3.952   3.306
13725WAT      O41416   7.028   5.421   5.735
13725WAT     H141417   7.020   5.487   5.809
13725WAT     H241418   6.993   5.461   5.650
13726WAT      O41419   4.081   4.249   5.337
13726WAT     H141420   4.018   4.316   5.377
13726WAT     H241421   4.166   4.295   5.310
13727WAT      O41422   1.086   5.125   4.339
13727WAT     H141423   1.031   5.120   4.256
13727WAT     H241424   1.071   5.214   4.383
13728WAT      O41425   5.411   5.246   2.017
13728WAT     H141426   5.409   5.285   2.109
13728WAT     H241427   5.496   5.194   2.005
13729WAT      O41428   6.462   7.293   9.058
13729WAT     H141429   6.371   7.321   9.088
13729WAT     H241430   6.454   7.213   8.998
13730WAT      O41431   5.207   3.203   8.385
13730WAT     H141432   5.185   3.124   8.327
13730WAT     H241433   5.184   3.181   8.480
13731WAT      O41434   4.312   8.834   3.703
13731WAT     H141435   4.294   8.769   3.777
13731WAT     H241436   4.233   8.894   3.692
13732WAT      O41437   6.139   3.870   2.593
13732WAT     H141438   6.221   3.839   2.544
13732WAT     H241439   6.075   3.910   2.527
13733WAT      O41440   5.591   5.897   5.458
13733WAT     H141441   5.582   5.989   5.419
13733WAT     H241442   5.686   5.881   5.486
13734WAT      O41443   9.755   8.881   0.327
13734WAT     H141444   9.724   8.975   0.309
13734WAT     H241445   9.697   8.841   0.398
13735WAT      O41446   4.393   0.789   0.509
13735WAT     H141447   4.402   0.827   0.417
13735WAT     H241448   4.332   0.847   0.563
13736WAT      O41449   4.971   4.472   8.686
13736WAT     H141450   4.951   4.437   8.777
13736WAT     H241451   5.054   4.429   8.650
13737WAT      O41452   0.506   7.773   6.669
13737WAT     H141453   0.431   7.744   6.728
13737WAT     H241454   0.489   7.743   6.575
13738WAT      O41455   1.138   3.779   6.708
13738WAT     H141456   1.233   3.800   6.731
13738WAT     H241457   1.118   3.811   6.615
13739WAT      O41458   3.643   3.405   3.685
13739WAT     H141459   3.564   3.355   3.723
13739WAT     H241460   3.718   3.341   3.670
13740WAT      O41461   5.377   7.668   9.421
13740WAT     H141462   5.293   7.638   9.467
13740WAT     H241463   5.383   7.768   9.424
13741WAT      O41464   3.937   2.580   6.612
13741WAT     H141465   3.900   2.647   6.548
13741WAT     H241466   3.881   2.578   6.695
13742WAT      O41467   4.443   2.309   8.842
13742WAT     H141468   4.488   2.280   8.927
13742WAT     H241469   4.443   2.409   8.837
13743WAT      O41470   0.592   9.052   2.930
13743WAT     H141471   0.551   9.067   2.839
13743WAT     H241472   0.649   8.969   2.927
13744WAT      O41473   9.225   3.787   8.487
13744WAT     H141474   9.306   3.769   8.542
13744WAT     H241475   9.158   3.714   8.501
13745WAT      O41476   4.495   0.378   4.019
13745WAT     H141477   4.460   0.376   3.925
13745WAT     H241478   4.595   0.373   4.018
13746WAT      O41479   2.643   4.960   9.654
13746WAT     H141480   2.590   4.996   9.577
13746WAT     H241481   2.639   5.024   9.731
13747WAT      O41482   2.110   6.546   3.437
13747WAT     H141483   2.178   6.618   3.455
13747WAT     H241484   2.156   6.458   3.431
13748WAT      O41485   1.604   4.590   3.562
13748WAT     H141486   1.647   4.661   3.617
13748WAT     H241487   1.644   4.502   3.584
13749WAT      O41488   4.580   3.119   0.976
13749WAT     H141489   4.663   3.112   1.031
13749WAT     H241490   4.538   3.029   0.967
13750WAT      O41491   8.700   8.534   8.639
13750WAT     H141492   8.644   8.453   8.621
13750WAT     H241493   8.795   8.516   8.612
13751WAT      O41494   2.196   9.287   5.520
13751WAT     H141495   2.206   9.369   5.463
13751WAT     H241496   2.215   9.206   5.464
13752WAT      O41497   1.052   1.232   9.100
13752WAT     H141498   0.996   1.264   9.023
13752WAT     H241499   1.141   1.275   9.096
13753WAT      O41500   9.168   9.736   1.654
13753WAT     H141501   9.230   9.732   1.575
13753WAT     H241502   9.084   9.784   1.628
13754WAT      O41503   8.601   7.491   6.664
13754WAT     H141504   8.659   7.423   6.709
13754WAT     H241505   8.557   7.548   6.733
13755WAT      O41506   2.516   1.314   5.880
13755WAT     H141507   2.561   1.235   5.838
13755WAT     H241508   2.481   1.375   5.809
13756WAT      O41509   7.159   5.175   8.354
13756WAT     H141510   7.125   5.270   8.355
13756WAT     H241511   7.194   5.154   8.263
13757WAT      O41512   6.716   5.882   7.785
13757WAT     H141513   6.632   5.867   7.838
13757WAT     H241514   6.732   5.803   7.725
13758WAT      O41515   9.589   9.115   1.503
13758WAT     H141516   9.578   9.016   1.504
13758WAT     H241517   9.502   9.158   1.477
13759WAT      O41518   1.854   2.754   8.846
13759WAT     H141519   1.935   2.713   8.804
13759WAT     H241520   1.882   2.816   8.918
13760WAT      O41521   7.583   1.826   3.825
13760WAT     H141522   7.628   1.883   3.755
13760WAT     H241523   7.490   1.857   3.839
13761WAT      O41524   8.616   5.707   4.431
13761WAT     H141525   8.707   5.737   4.405
13761WAT     H241526   8.590   5.626   4.378
13762WAT      O41527   2.845   9.393   5.676
13762WAT     H141528   2.803   9.411   5.588
13762WAT     H241529   2.824   9.467   5.739
13763WAT      O41530   7.377   5.588   7.442
13763WAT     H141531   7.402   5.501   7.484
13763WAT     H241532   7.301   5.629   7.493
13764WAT      O41533   2.226   0.387   4.033
13764WAT     H141534   2.144   0.332   4.016
13764WAT     H241535   2.304   0.326   4.045
13765WAT      O41536   2.581   0.474   7.368
13765WAT     H141537   2.638   0.423   7.303
13765WAT     H241538   2.569   0.567   7.335
13766WAT      O41539   3.489   4.167   3.863
13766WAT     H141540   3.475   4.120   3.775
13766WAT     H241541   3.580   4.146   3.897
13767WAT      O41542   8.235   4.346   3.481
13767WAT     H141543   8.260   4.391   3.396
13767WAT     H241544   8.217   4.415   3.552
13768WAT      O41545   9.080   5.737   2.547
13768WAT     H141546   9.103   5.648   2.585
13768WAT     H241547   8.995   5.730   2.493
13769WAT      O41548   4.975   2.213   3.354
13769WAT     H141549   5.014   2.305   3.350
13769WAT     H241550   4.927   2.201   3.441
13770WAT      O41551   6.121   7.733   9.721
13770WAT     H141552   6.217   7.724   9.747
13770WAT     H241553   6.089   7.825   9.744
13771WAT      O41554   0.416   0.400   3.175
13771WAT     H141555   0.363   0.336   3.230
13771WAT     H241556   0.447   0.354   3.092
13772WAT      O41557   2.376   5.516   3.918
13772WAT     H141558   2.332   5.602   3.893
13772WAT     H241559   2.446   5.493   3.850
13773WAT      O41560   5.385   2.970   3.797
13773WAT     H141561   5.430   3.044   3.746
13773WAT     H241562   5.290   2.996   3.814
13774WAT      O41563   9.432   3.810   0.471
13774WAT     H141564   9.461   3.836   0.563
13774WAT     H241565   9.347   3.758   0.477
13775WAT      O41566   0.754   1.405   6.768
13775WAT     H141567   0.797   1.460   6.839
13775WAT     H241568   0.655   1.402   6.784
13776WAT      O41569   3.346   0.521   1.842
13776WAT     H141570   3.294   0.467   1.777
13776WAT     H241571   3.400   0.590   1.793
13777WAT      O41572   8.631   0.327   6.655
13777WAT     H141573   8.611   0.419   6.619
13777WAT     H241574   8.697   0.334   6.730
13778WAT      O41575   8.487   6.728   1.662
13778WAT     H141576   8.484   6.825   1.685
13778WAT     H241577   8.396   6.697   1.636
13779WAT      O41578   1.286   7.965   5.294
13779WAT     H141579   1.294   8.003   5.202
13779WAT     H241580   1.304   8.036   5.362
13780WAT      O41581   3.817   0.667   1.821
13780WAT     H141582   3.759   0.721   1.883
13780WAT     H241583   3.898   0.719   1.797
13781WAT      O41584   7.584   0.790   0.317
13781WAT     H141585   7.600   0.838   0.403
13781WAT     H241586   7.590   0.691   0.333
13782WAT      O41587   3.567   7.574   9.765
13782WAT     H141588   3.594   7.608   9.855
13782WAT     H241589   3.467   7.569   9.759
13783WAT      O41590   6.116   6.865   2.253
13783WAT     H141591   6.157   6.956   2.261
13783WAT     H241592   6.145   6.809   2.330
13784WAT      O41593   0.032   0.770   1.878
13784WAT     H141594  -0.003   0.682   1.847
13784WAT     H241595   0.132   0.767   1.879
13785WAT      O41596   1.238   9.625   4.832
13785WAT     H141597   1.307   9.553   4.833
13785WAT     H241598   1.278   9.708   4.793
13786WAT      O41599   3.029   2.817   7.090
13786WAT     H141600   2.989   2.892   7.038
13786WAT     H241601   3.092   2.855   7.158
13787WAT      O41602   3.596   9.028   7.763
13787WAT     H141603   3.695   9.039   7.756
13787WAT     H241604   3.568   8.945   7.715
13788WAT      O41605   5.580   2.962   1.371
13788WAT     H141606   5.677   2.968   1.345
13788WAT     H241607   5.531   2.906   1.304
13789WAT      O41608   2.731   4.053   5.112
13789WAT     H141609   2.663   4.116   5.148
13789WAT     H241610   2.792   4.101   5.049
13790WAT      O41611   6.200   8.283   4.769
13790WAT     H141612   6.178   8.203   4.825
13790WAT     H241613   6.246   8.253   4.685
13791WAT      O41614   5.371   8.527   5.116
13791WAT     H141615   5.371   8.466   5.037
13791WAT     H241616   5.366   8.622   5.086
13792WAT      O41617   7.092   9.017   8.600
13792WAT     H141618   7.174   9.066   8.568
13792WAT     H241619   7.105   8.990   8.695
13793WAT      O41620   1.708   2.546   0.664
13793WAT     H141621   1.790   2.490   0.675
13793WAT     H241622   1.721   2.608   0.587
13794WAT      O41623   1.854   4.224   1.806
13794WAT     H141624   1.757   4.243   1.817
13794WAT     H241625   1.901   4.238   1.894
13795WAT      O41626   0.048   4.034   5.287
13795WAT     H141627   0.041   3.937   5.264
13795WAT     H241628   0.131   4.050   5.342
13796WAT      O41629   8.897   7.781   3.705
13796WAT     H141630   8.913   7.706   3.641
13796WAT     H241631   8.895   7.745   3.798
13797WAT      O41632   2.303   5.870   1.165
13797WAT     H141633   2.277   5.917   1.249
13797WAT     H241634   2.397   5.837   1.172
13798WAT      O41635   4.230   6.083   0.862
13798WAT     H141636   4.310   6.105   0.807
13798WAT     H241637   4.257   6.025   0.939
13799WAT      O41638   5.957   3.482   1.341
13799WAT     H141639   5.997   3.458   1.429
13799WAT     H241640   5.971   3.579   1.324
13800WAT      O41641   5.134   5.728   6.441
13800WAT     H141642   5.185   5.653   6.397
13800WAT     H241643   5.193   5.772   6.509
13801WAT      O41644   1.848   5.679   1.801
13801WAT     H141645   1.819   5.678   1.896
13801WAT     H241646   1.901   5.597   1.781
13802WAT      O41647   7.768   9.616   2.276
13802WAT     H141648   7.696   9.668   2.323
13802WAT     H241649   7.784   9.655   2.186
13803WAT      O41650   6.338   3.453   7.048
13803WAT     H141651   6.317   3.355   7.054
13803WAT     H241652   6.437   3.465   7.041
13804WAT      O41653   6.654   3.936   9.642
13804WAT     H141654   6.670   3.993   9.561
13804WAT     H241655   6.717   3.963   9.715
13805WAT      O41656   0.353   4.719   4.075
13805WAT     H141657   0.334   4.812   4.044
13805WAT     H241658   0.452   4.704   4.075
13806WAT      O41659   3.422   8.062   6.967
13806WAT     H141660   3.399   8.012   6.884
13806WAT     H241661   3.419   8.160   6.950
13807WAT      O41662   8.734   7.183   4.246
13807WAT     H141663   8.653   7.127   4.263
13807WAT     H241664   8.803   7.129   4.198
13808WAT      O41665   1.354   4.242   7.909
13808WAT     H141666   1.413   4.205   7.981
13808WAT     H241667   1.389   4.215   7.820
13809WAT      O41668   6.039   5.877   3.097
13809WAT     H141669   6.070   5.935   3.172
13809WAT     H241670   5.997   5.934   3.026
13810WAT      O41671   6.135   6.984   7.718
13810WAT     H141672   6.178   6.894   7.711
13810WAT     H241673   6.047   6.983   7.672
13811WAT      O41674   5.611   2.267   8.478
13811WAT     H141675   5.620   2.322   8.561
13811WAT     H241676   5.559   2.318   8.409
13812WAT      O41677   1.906   4.764   6.115
13812WAT     H141678   1.845   4.687   6.131
13812WAT     H241679   1.863   4.830   6.053
13813WAT      O41680   9.352   9.069   6.532
13813WAT     H141681   9.291   9.009   6.480
13813WAT     H241682   9.410   9.014   6.591
13814WAT      O41683   3.593   3.253   0.927
13814WAT     H141684   3.540   3.181   0.882
13814WAT     H241685   3.535   3.303   0.990
13815WAT      O41686   1.174   2.193   3.454
13815WAT     H141687   1.200   2.098   3.465
13815WAT     H241688   1.107   2.202   3.379
13816WAT      O41689   3.107   0.313   3.608
13816WAT     H141690   3.140   0.402   3.577
13816WAT     H241691   3.138   0.242   3.545
13817WAT      O41692   7.731   2.537   7.326
13817WAT     H141693   7.683   2.473   7.386
13817WAT     H241694   7.790   2.487   7.263
13818WAT      O41695   3.505   0.993   1.730
13818WAT     H141696   3.568   0.985   1.653
13818WAT     H241697   3.530   1.072   1.786
13819WAT      O41698   8.030   6.643   6.116
13819WAT     H141699   8.013   6.741   6.128
13819WAT     H241700   7.946   6.592   6.137
13820WAT      O41701   2.619   3.792   6.478
13820WAT     H141702   2.643   3.873   6.424
13820WAT     H241703   2.667   3.795   6.566
13821WAT      O41704   1.371   6.266   7.135
13821WAT     H141705   1.458   6.281   7.182
13821WAT     H241706   1.332   6.179   7.163
13822WAT      O41707   6.011   4.950   7.911
13822WAT     H141708   6.007   4.989   7.819
13822WAT     H241709   6.088   4.888   7.918
13823WAT      O41710   2.260   2.205   7.420
13823WAT     H141711   2.238   2.181   7.515
13823WAT     H241712   2.254   2.304   7.408
13824WAT      O41713   1.934   4.541   4.160
13824WAT     H141714   1.870   4.615   4.140
13824WAT     H241715   2.016   4.579   4.204
13825WAT      O41716   8.583   4.324   2.706
13825WAT     H141717   8.518   4.254   2.675
13825WAT     H241718   8.666   4.279   2.739
13826WAT      O41719   5.145   5.242   0.900
13826WAT     H141720   5.241   5.224   0.880
13826WAT     H241721   5.096   5.258   0.814
13827WAT      O41722   6.918   7.760   2.606
13827WAT     H141723   6.830   7.721   2.635
13827WAT     H241724   6.948   7.828   2.673
13828WAT      O41725   0.938   2.470   3.034
13828WAT     H141726   0.949   2.570   3.031
13828WAT     H241727   0.881   2.441   2.957
13829WAT      O41728   7.240   0.254   2.847
13829WAT     H141729   7.149   0.292   2.829
13829WAT     H241730   7.254   0.245   2.945
13830WAT      O41731   4.121   1.821   6.216
13830WAT     H141732   4.127   1.722   6.199
13830WAT     H241733   4.053   1.838   6.288
13831WAT      O41734   0.751   9.271   2.691
13831WAT     H141735   0.831   9.329   2.708
13831WAT     H241736   0.667   9.323   2.710
13832WAT      O41737   9.756   5.806   4.641
13832WAT     H141738   9.812   5.880   4.605
13832WAT     H241739   9.785   5.719   4.600
13833WAT      O41740   7.781   1.728   4.035
13833WAT     H141741   7.721   1.742   3.956
13833WAT     H241742   7.757   1.642   4.079
13834WAT      O41743   8.502   1.588   3.499
13834WAT     H141744   8.442   1.537   3.437
13834WAT     H241745   8.480   1.685   3.492
13835WAT      O41746   2.007   0.013   1.300
13835WAT     H141747   2.028   0.058   1.214
13835WAT     H241748   2.021  -0.086   1.290
13836WAT      O41749   8.046   6.168   7.703
13836WAT     H141750   8.054   6.217   7.789
13836WAT     H241751   8.025   6.232   7.630
13837WAT      O41752   2.150   0.963   8.759
13837WAT     H141753   2.066   0.912   8.740
13837WAT     H241754   2.169   0.960   8.857
13838WAT      O41755   4.186   2.462   6.301
13838WAT     H141756   4.090   2.484   6.283
13838WAT     H241757   4.242   2.543   6.284
13839WAT      O41758   0.081   6.853   7.755
13839WAT     H141759   0.131   6.870   7.670
13839WAT     H241760   0.106   6.923   7.822
13840WAT      O41761   0.510   0.123   7.857
13840WAT     H141762   0.607   0.147   7.857
13840WAT     H241763   0.461   0.180   7.791
13841WAT      O41764   1.236   3.237   1.158
13841WAT     H141765   1.267   3.143   1.173
13841WAT     H241766   1.263   3.267   1.067
13842WAT      O41767   6.092   1.485   5.869
13842WAT     H141768   6.135   1.564   5.912
13842WAT     H241769   6.154   1.406   5.876
13843WAT      O41770   5.638   0.875   6.382
13843WAT     H141771   5.615   0.925   6.465
13843WAT     H241772   5.563   0.882   6.316
13844WAT      O41773   9.596   0.013   4.746
13844WAT     H141774   9.694   0.003   4.729
13844WAT     H241775   9.562   0.095   4.700
13845WAT      O41776   4.157   2.813   4.741
13845WAT     H141777   4.224   2.787   4.810
13845WAT     H241778   4.156   2.913   4.731
13846WAT      O41779   5.651   4.974   8.100
13846WAT     H141780   5.744   4.992   8.132
13846WAT     H241781   5.630   4.877   8.108
13847WAT      O41782   5.517   3.369   1.549
13847WAT     H141783   5.497   3.290   1.491
13847WAT     H241784   5.433   3.400   1.594
13848WAT      O41785   6.632   7.489   8.740
13848WAT     H141786   6.534   7.505   8.755
13848WAT     H241787   6.644   7.429   8.661
13849WAT      O41788   5.832   4.650   8.850
13849WAT     H141789   5.779   4.729   8.821
13849WAT     H241790   5.810   4.629   8.945
13850WAT      O41791   4.262   7.792   2.761
13850WAT     H141792   4.265   7.873   2.819
13850WAT     H241793   4.174   7.746   2.771
13851WAT      O41794   1.070   3.474   6.680
13851WAT     H141795   1.043   3.457   6.775
13851WAT     H241796   1.113   3.563   6.673
13852WAT      O41797   2.605   3.053   6.744
13852WAT     H141798   2.542   3.060   6.822
13852WAT     H241799   2.619   3.145   6.706
13853WAT      O41800   9.587   2.051   9.706
13853WAT     H141801   9.566   2.142   9.672
13853WAT     H241802   9.628   2.057   9.796
13854WAT      O41803   7.455   6.183   5.320
13854WAT     H141804   7.522   6.155   5.252
13854WAT     H241805   7.442   6.109   5.386
13855WAT      O41806   7.553   5.487   0.969
13855WAT     H141807   7.568   5.457   1.063
13855WAT     H241808   7.634   5.467   0.914
13856WAT      O41809   4.851   2.901   3.762
13856WAT     H141810   4.937   2.851   3.764
13856WAT     H241811   4.868   2.999   3.757
13857WAT      O41812   4.098   7.177   7.203
13857WAT     H141813   4.128   7.083   7.187
13857WAT     H241814   4.107   7.199   7.301
13858WAT      O41815   0.680   7.027   8.183
13858WAT     H141816   0.692   7.069   8.274
13858WAT     H241817   0.588   7.046   8.150
13859WAT      O41818   2.563   4.844   3.509
13859WAT     H141819   2.498   4.892   3.568
13859WAT     H241820   2.642   4.903   3.490
13860WAT      O41821   0.273   5.730   8.525
13860WAT     H141822   0.179   5.761   8.513
13860WAT     H241823   0.316   5.720   8.435
13861WAT      O41824   6.302   3.943   3.304
13861WAT     H141825   6.206   3.972   3.310
13861WAT     H241826   6.347   3.960   3.391
13862WAT      O41827   5.520   7.053   3.226
13862WAT     H141828   5.577   7.039   3.306
13862WAT     H241829   5.573   7.035   3.143
13863WAT      O41830   9.322   9.230   1.516
13863WAT     H141831   9.254   9.273   1.457
13863WAT     H241832   9.284   9.147   1.555
13864WAT      O41833   0.826   8.916   0.665
13864WAT     H141834   0.879   8.959   0.591
13864WAT     H241835   0.841   8.966   0.750
13865WAT      O41836   1.349   0.922   5.054
13865WAT     H141837   1.441   0.885   5.068
13865WAT     H241838   1.355   1.016   5.022
13866WAT      O41839   5.994   6.178   8.391
13866WAT     H141840   6.051   6.099   8.371
13866WAT     H241841   6.050   6.261   8.385
13867WAT      O41842   6.454   6.845   3.189
13867WAT     H141843   6.531   6.891   3.146
13867WAT     H241844   6.401   6.911   3.242
13868WAT      O41845   4.684   1.226   5.614
13868WAT     H141846   4.597   1.181   5.592
13868WAT     H241847   4.698   1.303   5.553
13869WAT      O41848   1.954   2.749   9.218
13869WAT     H141849   2.016   2.678   9.252
13869WAT     H241850   2.006   2.831   9.195
13870WAT      O41851   4.883   2.467   1.581
13870WAT     H141852   4.954   2.415   1.533
13870WAT     H241853   4.803   2.408   1.595
13871WAT      O41854   3.553   8.336   7.352
13871WAT     H141855   3.545   8.251   7.405
13871WAT     H241856   3.611   8.400   7.402
13872WAT      O41857   5.020   6.094   3.476
13872WAT     H141858   5.000   6.018   3.538
13872WAT     H241859   5.022   6.179   3.528
13873WAT      O41860   8.834   6.175   6.368
13873WAT     H141861   8.777   6.139   6.442
13873WAT     H241862   8.869   6.265   6.393
13874WAT      O41863   5.318   7.209   6.806
13874WAT     H141864   5.271   7.180   6.890
13874WAT     H241865   5.253   7.250   6.743
13875WAT      O41866   3.367   2.646   1.063
13875WAT     H141867   3.325   2.628   0.974
13875WAT     H241868   3.295   2.655   1.132
13876WAT      O41869   5.797   3.829   3.319
13876WAT     H141870   5.728   3.781   3.372
13876WAT     H241871   5.780   3.816   3.222
13877WAT      O41872   2.848   2.164   8.549
13877WAT     H141873   2.913   2.223   8.598
13877WAT     H241874   2.795   2.111   8.616
13878WAT      O41875   1.532   5.599   2.844
13878WAT     H141876   1.629   5.621   2.855
13878WAT     H241877   1.494   5.654   2.770
13879WAT      O41878   3.388   0.481   5.760
13879WAT     H141879   3.401   0.543   5.683
13879WAT     H241880   3.372   0.389   5.726
13880WAT      O41881   0.673   5.356   0.389
13880WAT     H141882   0.579   5.390   0.395
13880WAT     H241883   0.735   5.426   0.426
13881WAT      O41884   3.959   8.593   2.321
13881WAT     H141885   3.958   8.670   2.386
13881WAT     H241886   4.029   8.609   2.251
13882WAT      O41887   4.459   6.828   3.808
13882WAT     H141888   4.515   6.746   3.795
13882WAT     H241889   4.485   6.873   3.894
13883WAT      O41890   9.777   9.765   9.096
13883WAT     H141891   9.681   9.791   9.095
13883WAT     H241892   9.795   9.707   9.176
13884WAT      O41893   5.592   7.630   1.710
13884WAT     H141894   5.678   7.617   1.759
13884WAT     H241895   5.561   7.542   1.673
13885WAT      O41896   4.419   5.419   5.861
13885WAT     H141897   4.367   5.425   5.776
13885WAT     H241898   4.462   5.507   5.880
13886WAT      O41899   4.697   0.893   5.862
13886WAT     H141900   4.726   0.916   5.956
13886WAT     H241901   4.611   0.841   5.866
13887WAT      O41902   8.404   4.942   1.338
13887WAT     H141903   8.504   4.936   1.342
13887WAT     H241904   8.369   4.868   1.280
13888WAT      O41905   8.169   0.059   4.126
13888WAT     H141906   8.131   0.024   4.040
13888WAT     H241907   8.267   0.041   4.128
13889WAT      O41908   8.137   0.901   3.155
13889WAT     H141909   8.103   0.929   3.245
13889WAT     H241910   8.235   0.922   3.149
13890WAT      O41911   1.562   4.175   0.928
13890WAT     H141912   1.496   4.101   0.914
13890WAT     H241913   1.514   4.263   0.930
13891WAT      O41914   1.251   8.914   9.870
13891WAT     H141915   1.264   9.013   9.869
13891WAT     H241916   1.207   8.887   9.955
13892WAT      O41917   0.795   3.848   8.644
13892WAT     H141918   0.824   3.825   8.737
13892WAT     H241919   0.757   3.767   8.600
13893WAT      O41920   9.560   2.426   0.810
13893WAT     H141921   9.579   2.472   0.723
13893WAT     H241922   9.609   2.472   0.884
13894WAT      O41923   1.131   1.618   2.305
13894WAT     H141924   1.159   1.526   2.330
13894WAT     H241925   1.178   1.646   2.221
13895WAT      O41926   7.144   4.655   9.797
13895WAT     H141927   7.173   4.689   9.708
13895WAT     H241928   7.090   4.725   9.844
13896WAT      O41929   5.224   0.568   3.166
13896WAT     H141930   5.155   0.507   3.128
13896WAT     H241931   5.206   0.662   3.135
13897WAT      O41932   9.216   5.052   0.772
13897WAT     H141933   9.244   5.091   0.684
13897WAT     H241934   9.117   5.063   0.783
13898WAT      O41935   6.386   7.627   8.872
13898WAT     H141936   6.438   7.639   8.957
13898WAT     H241937   6.431   7.675   8.797
13899WAT      O41938   0.074   4.439   9.511
13899WAT     H141939   0.130   4.391   9.578
13899WAT     H241940   0.077   4.390   9.424
13900WAT      O41941   7.228   4.171   2.415
13900WAT     H141942   7.286   4.170   2.333
13900WAT     H241943   7.284   4.196   2.495
13901WAT      O41944   4.550   3.280   8.756
13901WAT     H141945   4.501   3.253   8.673
13901WAT     H241946   4.575   3.377   8.750
13902WAT      O41947   2.792   5.718   1.037
13902WAT     H141948   2.868   5.728   1.101
13902WAT     H241949   2.705   5.731   1.085
13903WAT      O41950   8.281   1.597   0.253
13903WAT     H141951   8.248   1.682   0.213
13903WAT     H241952   8.380   1.591   0.242
13904WAT      O41953   5.396   0.667   5.231
13904WAT     H141954   5.360   0.760   5.231
13904WAT     H241955   5.468   0.658   5.299
13905WAT      O41956   2.332   4.932   6.325
13905WAT     H141957   2.301   5.023   6.354
13905WAT     H241958   2.257   4.883   6.282
13906WAT      O41959   9.677   8.763   9.577
13906WAT     H141960   9.664   8.694   9.648
13906WAT     H241961   9.602   8.829   9.581
13907WAT      O41962   8.142   7.513   3.680
13907WAT     H141963   8.239   7.513   3.658
13907WAT     H241964   8.113   7.421   3.706
13908WAT      O41965   4.228   6.515   8.197
13908WAT     H141966   4.221   6.500   8.098
13908WAT     H241967   4.299   6.455   8.234
13909WAT      O41968   8.841   8.471   2.848
13909WAT     H141969   8.810   8.566   2.853
13909WAT     H241970   8.761   8.412   2.836
13910WAT      O41971   7.979   6.243   7.965
13910WAT     H141972   7.905   6.309   7.981
13910WAT     H241973   7.939   6.155   7.939
13911WAT      O41974   5.015   2.971   6.212
13911WAT     H141975   5.114   2.962   6.223
13911WAT     H241976   4.975   3.008   6.296
13912WAT      O41977   0.741   7.400   8.276
13912WAT     H141978   0.681   7.453   8.217
13912WAT     H241979   0.687   7.333   8.327
13913WAT      O41980   8.091   0.777   4.522
13913WAT     H141981   8.133   0.692   4.553
13913WAT     H241982   8.121   0.797   4.429
13914WAT      O41983   1.079   7.228   6.652
13914WAT     H141984   1.176   7.210   6.668
13914WAT     H241985   1.063   7.327   6.653
13915WAT      O41986   7.550   5.787   0.790
13915WAT     H141987   7.510   5.741   0.710
13915WAT     H241988   7.482   5.846   0.833
13916WAT      O41989   3.429   5.868   1.964
13916WAT     H141990   3.504   5.873   1.898
13916WAT     H241991   3.461   5.821   2.047
13917WAT      O41992   7.641   9.593   5.199
13917WAT     H141993   7.730   9.598   5.244
13917WAT     H241994   7.609   9.685   5.178
13918WAT      O41995   3.894   9.599   6.939
13918WAT     H141996   3.951   9.574   7.017
13918WAT     H241997   3.801   9.616   6.970
13919WAT      O41998   1.078   8.596   9.452
13919WAT     H141999   1.052   8.500   9.464
13919WAT     H242000   1.164   8.614   9.499
13920WAT      O42001   9.814   5.885   2.882
13920WAT     H142002   9.790   5.892   2.785
13920WAT     H242003   9.868   5.964   2.909
13921WAT      O42004   1.063   9.641   9.657
13921WAT     H142005   1.083   9.739   9.658
13921WAT     H242006   1.000   9.621   9.581
13922WAT      O42007   5.914   8.181   1.418
13922WAT     H142008   5.827   8.131   1.420
13922WAT     H242009   5.969   8.155   1.497
13923WAT      O42010   2.415   9.240   8.284
13923WAT     H142011   2.324   9.263   8.250
13923WAT     H242012   2.464   9.324   8.308
13924WAT      O42013   2.891   8.536   7.359
13924WAT     H142014   2.940   8.589   7.428
13924WAT     H242015   2.856   8.598   7.289
13925WAT      O42016   7.715   5.755   6.534
13925WAT     H142017   7.794   5.694   6.534
13925WAT     H242018   7.642   5.715   6.589
13926WAT      O42019   4.446   4.010   8.326
13926WAT     H142020   4.389   4.091   8.339
13926WAT     H242021   4.528   4.018   8.383
13927WAT      O42022   8.894   6.861   6.457
13927WAT     H142023   8.979   6.888   6.412
13927WAT     H242024   8.906   6.772   6.500
13928WAT      O42025   4.421   2.736   5.347
13928WAT     H142026   4.354   2.696   5.410
13928WAT     H242027   4.508   2.686   5.355
13929WAT      O42028   4.066   2.755   8.200
13929WAT     H142029   3.975   2.796   8.210
13929WAT     H242030   4.133   2.808   8.253
13930WAT      O42031   0.071   8.304   2.757
13930WAT     H142032   0.062   8.402   2.776
13930WAT     H242033   0.024   8.281   2.672
13931WAT      O42034   3.327   3.042   9.557
13931WAT     H142035   3.296   2.948   9.539
13931WAT     H242036   3.412   3.039   9.610
13932WAT      O42037   8.985   2.031   6.435
13932WAT     H142038   8.967   2.022   6.533
13932WAT     H242039   8.936   2.110   6.399
13933WAT      O42040   9.547   0.083   1.942
13933WAT     H142041   9.598   0.088   1.856
13933WAT     H242042   9.454   0.052   1.923
13934WAT      O42043   1.921   4.108   5.171
13934WAT     H142044   1.918   4.203   5.200
13934WAT     H242045   1.935   4.049   5.251
13935WAT      O42046   0.847   7.543   9.673
13935WAT     H142047   0.856   7.446   9.651
13935WAT     H242048   0.821   7.554   9.769
13936WAT      O42049   6.851   2.850   6.020
13936WAT     H142050   6.857   2.914   5.944
13936WAT     H242051   6.930   2.862   6.080
13937WAT      O42052   5.284   1.272   5.803
13937WAT     H142053   5.251   1.197   5.746
13937WAT     H242054   5.383   1.269   5.810
13938WAT      O42055   8.101   2.832   5.467
13938WAT     H142056   8.063   2.908   5.413
13938WAT     H242057   8.121   2.755   5.406
13939WAT      O42058   5.903   9.161   4.171
13939WAT     H142059   5.990   9.211   4.172
13939WAT     H242060   5.849   9.188   4.251
13940WAT      O42061   1.105   8.239   2.302
13940WAT     H142062   1.124   8.249   2.400
13940WAT     H242063   1.099   8.329   2.260
13941WAT      O42064   6.338   8.449   4.403
13941WAT     H142065   6.316   8.527   4.462
13941WAT     H242066   6.411   8.395   4.444
13942WAT      O42067   3.628   3.863   7.410
13942WAT     H142068   3.545   3.911   7.382
13942WAT     H242069   3.623   3.768   7.380
13943WAT      O42070   0.795   0.225   1.801
13943WAT     H142071   0.876   0.167   1.810
13943WAT     H242072   0.823   0.320   1.784
13944WAT      O42073   9.103   0.546   7.517
13944WAT     H142074   9.177   0.578   7.458
13944WAT     H242075   9.081   0.617   7.584
13945WAT      O42076   8.601   3.710   7.107
13945WAT     H142077   8.619   3.627   7.053
13945WAT     H242078   8.625   3.693   7.203
13946WAT      O42079   2.820   5.015   4.014
13946WAT     H142080   2.750   4.944   4.002
13946WAT     H242081   2.897   4.976   4.065
13947WAT      O42082   0.596   8.248   3.721
13947WAT     H142083   0.608   8.217   3.815
13947WAT     H242084   0.626   8.344   3.714
13948WAT      O42085   9.611   3.313   4.721
13948WAT     H142086   9.653   3.355   4.801
13948WAT     H242087   9.521   3.353   4.705
13949WAT      O42088   5.520   4.386   3.653
13949WAT     H142089   5.563   4.442   3.582
13949WAT     H242090   5.443   4.435   3.692
13950WAT      O42091   3.288   8.912   6.240
13950WAT     H142092   3.278   8.961   6.326
13950WAT     H242093   3.198   8.898   6.198
13951WAT      O42094   1.878   0.099   2.749
13951WAT     H142095   1.892   0.035   2.674
13951WAT     H242096   1.780   0.106   2.770
13952WAT      O42097   9.592   0.455   3.484
13952WAT     H142098   9.676   0.406   3.463
13952WAT     H242099   9.562   0.432   3.577
13953WAT      O42100   1.039   7.508   4.603
13953WAT     H142101   1.001   7.520   4.694
13953WAT     H242102   1.091   7.589   4.577
13954WAT      O42103   8.666   0.703   6.639
13954WAT     H142104   8.714   0.763   6.575
13954WAT     H242105   8.596   0.652   6.590
13955WAT      O42106   2.712   6.266   4.560
13955WAT     H142107   2.612   6.263   4.559
13955WAT     H242108   2.742   6.343   4.616
13956WAT      O42109   0.430   1.861   3.458
13956WAT     H142110   0.415   1.818   3.547
13956WAT     H242111   0.527   1.852   3.433
13957WAT      O42112   7.187   2.908   3.729
13957WAT     H142113   7.127   2.913   3.809
13957WAT     H242114   7.202   3.001   3.694
13958WAT      O42115   8.726   9.316   8.979
13958WAT     H142116   8.815   9.343   9.015
13958WAT     H242117   8.658   9.317   9.053
13959WAT      O42118   7.120   9.149   5.957
13959WAT     H142119   7.101   9.097   5.873
13959WAT     H242120   7.104   9.090   6.036
13960WAT      O42121   1.183   9.319   0.520
13960WAT     H142122   1.212   9.248   0.584
13960WAT     H242123   1.227   9.405   0.542
13961WAT      O42124   3.923   6.667   4.486
13961WAT     H142125   3.891   6.628   4.400
13961WAT     H242126   3.910   6.766   4.484
13962WAT      O42127   7.080   6.268   2.799
13962WAT     H142128   7.042   6.216   2.875
13962WAT     H242129   7.149   6.214   2.752
13963WAT      O42130   5.107   4.863   7.686
13963WAT     H142131   5.058   4.917   7.755
13963WAT     H242132   5.201   4.848   7.717
13964WAT      O42133   8.172   5.127   0.821
13964WAT     H142134   8.142   5.204   0.877
13964WAT     H242135   8.125   5.044   0.850
13965WAT      O42136   9.161   6.277   6.064
13965WAT     H142137   9.145   6.191   6.110
13965WAT     H242138   9.104   6.349   6.104
13966WAT      O42139   9.876   7.832   4.909
13966WAT     H142140   9.804   7.762   4.906
13966WAT     H242141   9.887   7.873   4.819
13967WAT      O42142   9.367   0.715   6.980
13967WAT     H142143   9.388   0.807   6.947
13967WAT     H242144   9.334   0.720   7.075
13968WAT      O42145   8.788   7.372   8.319
13968WAT     H142146   8.811   7.417   8.233
13968WAT     H242147   8.740   7.286   8.301
13969WAT      O42148   4.588   6.918   7.166
13969WAT     H142149   4.633   6.945   7.251
13969WAT     H242150   4.509   6.978   7.149
13970WAT      O42151   6.462   2.581   8.020
13970WAT     H142152   6.460   2.487   8.054
13970WAT     H242153   6.408   2.588   7.936
13971WAT      O42154   3.290   2.942   0.941
13971WAT     H142155   3.210   2.966   0.885
13971WAT     H242156   3.304   2.843   0.937
13972WAT      O42157   8.015   0.329   2.637
13972WAT     H142158   7.971   0.263   2.577
13972WAT     H242159   8.082   0.282   2.695
13973WAT      O42160   7.238   7.921   4.736
13973WAT     H142161   7.154   7.899   4.687
13973WAT     H242162   7.294   7.839   4.744
13974WAT      O42163   1.865   8.422   9.743
13974WAT     H142164   1.826   8.469   9.822
13974WAT     H242165   1.965   8.418   9.753
13975WAT      O42166   9.670   2.358   3.447
13975WAT     H142167   9.592   2.324   3.394
13975WAT     H242168   9.755   2.326   3.404
13976WAT      O42169   5.179   1.305   1.007
13976WAT     H142170   5.124   1.244   1.064
13976WAT     H242171   5.120   1.352   0.941
13977WAT      O42172   4.803   1.273   9.626
13977WAT     H142173   4.794   1.372   9.618
13977WAT     H242174   4.824   1.250   9.721
13978WAT      O42175   5.892   2.741   6.559
13978WAT     H142176   5.893   2.708   6.653
13978WAT     H242177   5.975   2.796   6.543
13979WAT      O42178   8.401   0.454   8.857
13979WAT     H142179   8.463   0.530   8.838
13979WAT     H242180   8.390   0.399   8.774
13980WAT      O42181   6.941   3.924   8.236
13980WAT     H142182   7.033   3.902   8.271
13980WAT     H242183   6.936   3.899   8.140
13981WAT      O42184   2.841   9.712   3.754
13981WAT     H142185   2.938   9.719   3.733
13981WAT     H242186   2.816   9.615   3.762
13982WAT      O42187   1.302   6.987   3.742
13982WAT     H142188   1.309   6.890   3.716
13982WAT     H242189   1.227   6.999   3.806
13983WAT      O42190   3.099   9.632   3.932
13983WAT     H142191   3.131   9.625   3.837
13983WAT     H242192   3.060   9.723   3.947
13984WAT      O42193   1.948   1.928   7.814
13984WAT     H142194   1.859   1.883   7.807
13984WAT     H242195   1.949   2.010   7.756
13985WAT      O42196   8.351   9.786   2.758
13985WAT     H142197   8.435   9.743   2.791
13985WAT     H242198   8.273   9.729   2.781
13986WAT      O42199   9.173   1.607   5.814
13986WAT     H142200   9.174   1.540   5.888
13986WAT     H242201   9.267   1.626   5.786
13987WAT      O42202   8.518   3.062   3.226
13987WAT     H142203   8.509   3.075   3.127
13987WAT     H242204   8.487   2.969   3.249
13988WAT      O42205   9.517   2.633   9.704
13988WAT     H142206   9.542   2.588   9.790
13988WAT     H242207   9.538   2.572   9.627
13989WAT      O42208   8.081   0.636   3.074
13989WAT     H142209   8.119   0.728   3.080
13989WAT     H242210   8.048   0.608   3.165
13990WAT      O42211   6.652   3.555   2.976
13990WAT     H142212   6.693   3.464   2.973
13990WAT     H242213   6.574   3.555   3.038
13991WAT      O42214   3.875   7.352   8.967
13991WAT     H142215   3.789   7.341   9.018
13991WAT     H242216   3.947   7.380   9.030
13992WAT      O42217   2.032   0.284   8.617
13992WAT     H142218   1.934   0.298   8.630
13992WAT     H242219   2.056   0.192   8.648
13993WAT      O42220   2.468   2.338   0.279
13993WAT     H142221   2.416   2.342   0.194
13993WAT     H242222   2.408   2.353   0.357
13994WAT      O42223   3.138   6.013   2.630
13994WAT     H142224   3.088   6.026   2.715
13994WAT     H242225   3.220   6.070   2.630
13995WAT      O42226   7.537   3.269   7.668
13995WAT     H142227   7.598   3.348   7.662
13995WAT     H242228   7.569   3.209   7.742
13996WAT      O42229   3.446   2.988   2.833
13996WAT     H142230   3.386   2.909   2.845
13996WAT     H242231   3.392   3.068   2.807
13997WAT      O42232   2.936   8.338   7.156
13997WAT     H142233   2.849   8.337   7.107
13997WAT     H242234   2.924   8.381   7.245
13998WAT      O42235   1.223   2.477   3.538
13998WAT     H142236   1.184   2.442   3.623
13998WAT     H242237   1.152   2.483   3.468
13999WAT      O42238   7.273   8.642   6.255
13999WAT     H142239   7.178   8.651   6.227
13999WAT     H242240   7.312   8.732   6.270
14000WAT      O42241   0.407   1.207   2.148
14000WAT     H142242   0.360   1.161   2.224
14000WAT     H242243   0.437   1.298   2.177
14001WAT      O42244   8.562   8.337   8.395
14001WAT     H142245   8.511   8.361   8.313
14001WAT     H242246   8.510   8.271   8.449
14002WAT      O42247   6.341   9.341   3.850
14002WAT     H142248   6.417   9.312   3.908
14002WAT     H242249   6.274   9.390   3.905
14003WAT      O42250   3.780   6.039   2.574
14003WAT     H142251   3.726   6.015   2.655
14003WAT     H242252   3.856   5.975   2.565
14004WAT      O42253   3.553   7.863   9.847
14004WAT     H142254   3.547   7.815   9.934
14004WAT     H242255   3.649   7.881   9.826
14005WAT      O42256   4.631   2.284   4.880
14005WAT     H142257   4.710   2.274   4.941
14005WAT     H242258   4.655   2.345   4.804
14006WAT      O42259   2.338   6.131   9.008
14006WAT     H142260   2.287   6.141   9.093
14006WAT     H242261   2.435   6.151   9.025
14007WAT      O42262   0.353   4.188   9.407
14007WAT     H142263   0.254   4.184   9.401
14007WAT     H242264   0.393   4.152   9.323
14008WAT      O42265   4.876   2.646   4.335
14008WAT     H142266   4.859   2.575   4.267
14008WAT     H242267   4.856   2.611   4.426
14009WAT      O42268   1.932   1.681   9.508
14009WAT     H142269   1.912   1.614   9.436
14009WAT     H242270   1.894   1.650   9.595
14010WAT      O42271   9.751   0.128   2.362
14010WAT     H142272   9.690   0.055   2.394
14010WAT     H242273   9.798   0.169   2.440
14011WAT      O42274   9.123   4.163   4.681
14011WAT     H142275   9.082   4.246   4.643
14011WAT     H242276   9.138   4.097   4.608
14012WAT      O42277   9.765   0.478   4.132
14012WAT     H142278   9.680   0.522   4.159
14012WAT     H242279   9.807   0.435   4.212
14013WAT      O42280   1.197   8.688   4.322
14013WAT     H142281   1.251   8.632   4.385
14013WAT     H242282   1.114   8.720   4.368
14014WAT      O42283   6.320   9.189   5.544
14014WAT     H142284   6.255   9.113   5.548
14014WAT     H242285   6.358   9.196   5.452
14015WAT      O42286   8.965   7.980   1.316
14015WAT     H142287   8.928   7.925   1.241
14015WAT     H242288   8.952   7.931   1.402
14016WAT      O42289   9.757   5.306   5.439
14016WAT     H142290   9.840   5.360   5.442
14016WAT     H242291   9.695   5.342   5.370
14017WAT      O42292   3.039   0.117   9.834
14017WAT     H142293   2.980   0.055   9.885
14017WAT     H242294   3.085   0.067   9.761
14018WAT      O42295   4.626   4.089   2.442
14018WAT     H142296   4.694   4.079   2.514
14018WAT     H242297   4.664   4.057   2.356
14019WAT      O42298   6.710   7.608   6.764
14019WAT     H142299   6.672   7.582   6.675
14019WAT     H242300   6.798   7.562   6.778
14020WAT      O42301   2.064   7.958   7.809
14020WAT     H142302   2.097   8.048   7.838
14020WAT     H242303   2.031   7.908   7.888
14021WAT      O42304   8.172   7.430   6.740
14021WAT     H142305   8.118   7.462   6.663
14021WAT     H242306   8.259   7.479   6.744
14022WAT      O42307   6.922   2.570   0.135
14022WAT     H142308   6.966   2.501   0.192
14022WAT     H242309   6.880   2.640   0.194
14023WAT      O42310   2.742   6.235   6.767
14023WAT     H142311   2.740   6.197   6.674
14023WAT     H242312   2.692   6.322   6.768
14024WAT      O42313   8.747   2.025   9.886
14024WAT     H142314   8.668   2.085   9.869
14024WAT     H242315   8.753   2.005   9.983
14025WAT      O42316   6.752   2.704   0.291
14025WAT     H142317   6.684   2.730   0.222
14025WAT     H242318   6.752   2.771   0.365
14026WAT      O42319   1.305   4.825   5.716
14026WAT     H142320   1.225   4.769   5.734
14026WAT     H242321   1.305   4.853   5.620
14027WAT      O42322   0.193   9.451   5.045
14027WAT     H142323   0.138   9.503   4.979
14027WAT     H242324   0.227   9.368   5.001
14028WAT      O42325   9.385   5.176   0.197
14028WAT     H142326   9.311   5.241   0.180
14028WAT     H242327   9.464   5.201   0.141
14029WAT      O42328   8.993   6.323   7.771
14029WAT     H142329   8.988   6.228   7.804
14029WAT     H242330   8.967   6.326   7.675
14030WAT      O42331   6.363   0.471   3.228
14030WAT     H142332   6.310   0.450   3.147
14030WAT     H242333   6.454   0.502   3.201
14031WAT      O42334   7.052   4.562   1.546
14031WAT     H142335   7.044   4.463   1.536
14031WAT     H242336   7.123   4.583   1.612
14032WAT      O42337   3.490   6.502   7.835
14032WAT     H142338   3.485   6.590   7.788
14032WAT     H242339   3.503   6.517   7.933
14033WAT      O42340   3.125   5.494   3.208
14033WAT     H142341   3.160   5.587   3.196
14033WAT     H242342   3.066   5.471   3.131
14034WAT      O42343   4.835   0.503   4.166
14034WAT     H142344   4.813   0.601   4.164
14034WAT     H242345   4.819   0.464   4.076
14035WAT      O42346   5.923   9.309   0.514
14035WAT     H142347   6.019   9.306   0.486
14035WAT     H242348   5.911   9.378   0.586
14036WAT      O42349   7.516   7.186   8.737
14036WAT     H142350   7.487   7.250   8.808
14036WAT     H242351   7.534   7.236   8.653
14037WAT      O42352   0.185   5.098   0.036
14037WAT     H142353   0.257   5.028   0.032
14037WAT     H242354   0.126   5.080   0.115
14038WAT      O42355   3.096   5.884   5.019
14038WAT     H142356   3.044   5.916   5.098
14038WAT     H242357   3.108   5.959   4.954
14039WAT      O42358   4.519   6.333   1.883
14039WAT     H142359   4.591   6.366   1.944
14039WAT     H242360   4.430   6.367   1.915
14040WAT      O42361   0.615   9.691   7.928
14040WAT     H142362   0.658   9.753   7.863
14040WAT     H242363   0.522   9.669   7.897
14041WAT      O42364   1.388   8.216   8.416
14041WAT     H142365   1.295   8.252   8.416
14041WAT     H242366   1.391   8.132   8.362
14042WAT      O42367   0.124   8.246   6.169
14042WAT     H142368   0.117   8.286   6.078
14042WAT     H242369   0.179   8.305   6.227
14043WAT      O42370   0.104   2.101   2.545
14043WAT     H142371   0.171   2.115   2.472
14043WAT     H242372   0.027   2.163   2.532
14044WAT      O42373   8.561   1.508   1.844
14044WAT     H142374   8.535   1.415   1.871
14044WAT     H242375   8.632   1.503   1.773
14045WAT      O42376   2.741   2.384   7.729
14045WAT     H142377   2.669   2.391   7.661
14045WAT     H242378   2.718   2.311   7.794
14046WAT      O42379   1.545   1.773   1.970
14046WAT     H142380   1.545   1.835   1.891
14046WAT     H242381   1.630   1.719   1.970
14047WAT      O42382   5.412   5.687   8.511
14047WAT     H142383   5.427   5.784   8.527
14047WAT     H242384   5.496   5.647   8.473
14048WAT      O42385   0.520   3.491   0.340
14048WAT     H142386   0.551   3.583   0.316
14048WAT     H242387   0.598   3.430   0.345
14049WAT      O42388   4.720   3.368   2.625
14049WAT     H142389   4.625   3.344   2.606
14049WAT     H242390   4.742   3.342   2.719
14050WAT      O42391   3.743   3.879   7.797
14050WAT     H142392   3.685   3.954   7.765
14050WAT     H242393   3.700   3.792   7.775
14051WAT      O42394   1.388   3.523   5.599
14051WAT     H142395   1.386   3.554   5.694
14051WAT     H242396   1.343   3.434   5.592
14052WAT      O42397   7.411   6.860   5.255
14052WAT     H142398   7.490   6.838   5.198
14052WAT     H242399   7.441   6.905   5.338
14053WAT      O42400   7.117   4.828   7.481
14053WAT     H142401   7.203   4.879   7.479
14053WAT     H242402   7.061   4.861   7.557
14054WAT      O42403   8.761   3.311   8.470
14054WAT     H142404   8.835   3.249   8.495
14054WAT     H242405   8.694   3.263   8.414
14055WAT      O42406   7.349   9.391   1.012
14055WAT     H142407   7.398   9.416   0.929
14055WAT     H242408   7.408   9.404   1.092
14056WAT      O42409   2.968   7.212   7.223
14056WAT     H142410   2.965   7.312   7.219
14056WAT     H242411   2.878   7.175   7.199
14057WAT      O42412   8.947   2.089   6.975
14057WAT     H142413   8.859   2.063   7.013
14057WAT     H242414   9.007   2.124   7.047
14058WAT      O42415   7.626   6.540   6.517
14058WAT     H142416   7.581   6.552   6.428
14058WAT     H242417   7.557   6.544   6.589
14059WAT      O42418   8.392   3.053   4.528
14059WAT     H142419   8.342   3.100   4.455
14059WAT     H242420   8.490   3.062   4.512
14060WAT      O42421   3.944   3.550   0.816
14060WAT     H142422   3.947   3.495   0.899
14060WAT     H242423   4.038   3.569   0.785
14061WAT      O42424   2.239   9.060   6.758
14061WAT     H142425   2.178   9.054   6.837
14061WAT     H242426   2.256   8.969   6.722
14062WAT      O42427   4.778   8.474   9.289
14062WAT     H142428   4.864   8.517   9.260
14062WAT     H242429   4.735   8.431   9.210
14063WAT      O42430   9.275   2.034   2.254
14063WAT     H142431   9.310   1.955   2.306
14063WAT     H242432   9.339   2.110   2.264
14064WAT      O42433   4.962   2.665   7.859
14064WAT     H142434   5.053   2.703   7.876
14064WAT     H242435   4.952   2.580   7.911
14065WAT      O42436   7.534   5.618   8.605
14065WAT     H142437   7.567   5.692   8.665
14065WAT     H242438   7.536   5.649   8.510
14066WAT      O42439   6.754   6.409   1.125
14066WAT     H142440   6.784   6.490   1.074
14066WAT     H242441   6.826   6.382   1.189
14067WAT      O42442   2.050   7.001   8.832
14067WAT     H142443   1.972   7.054   8.799
14067WAT     H242444   2.046   6.994   8.932
14068WAT      O42445   2.551   3.021   4.352
14068WAT     H142446   2.467   3.047   4.304
14068WAT     H242447   2.559   2.921   4.354
14069WAT      O42448   0.679   0.175   1.447
14069WAT     H142449   0.777   0.176   1.463
14069WAT     H242450   0.631   0.158   1.533
14070WAT      O42451   0.127   2.052   1.655
14070WAT     H142452   0.210   2.063   1.600
14070WAT     H242453   0.144   2.085   1.748
14071WAT      O42454   4.658   4.851   8.641
14071WAT     H142455   4.697   4.762   8.617
14071WAT     H242456   4.663   4.911   8.562
14072WAT      O42457   9.838   8.523   2.071
14072WAT     H142458   9.831   8.503   1.973
14072WAT     H242459   9.841   8.622   2.085
14073WAT      O42460   4.052   7.738   0.293
14073WAT     H142461   4.074   7.648   0.331
14073WAT     H242462   4.124   7.766   0.229
14074WAT      O42463   0.593   4.919   8.919
14074WAT     H142464   0.601   5.015   8.892
14074WAT     H242465   0.677   4.891   8.966
14075WAT      O42466   0.810   6.601   3.969
14075WAT     H142467   0.716   6.622   3.941
14075WAT     H242468   0.829   6.504   3.950
14076WAT      O42469   8.643   1.574   2.487
14076WAT     H142470   8.652   1.499   2.552
14076WAT     H242471   8.568   1.634   2.515
14077WAT      O42472   2.585   1.660   3.803
14077WAT     H142473   2.679   1.691   3.790
14077WAT     H242474   2.572   1.572   3.758
14078WAT      O42475   3.703   7.252   4.613
14078WAT     H142476   3.789   7.287   4.650
14078WAT     H242477   3.694   7.155   4.638
14079WAT      O42478   4.462   6.844   5.938
14079WAT     H142479   4.558   6.820   5.927
14079WAT     H242480   4.422   6.788   6.011
14080WAT      O42481   8.100   7.670   4.048
14080WAT     H142482   8.094   7.712   3.958
14080WAT     H242483   8.196   7.654   4.071
14081WAT      O42484   6.662   3.974   2.642
14081WAT     H142485   6.665   3.913   2.563
14081WAT     H242486   6.589   4.041   2.629
14082WAT      O42487   1.823   5.070   9.345
14082WAT     H142488   1.815   5.082   9.246
14082WAT     H242489   1.759   4.998   9.375
14083WAT      O42490   4.769   0.332   5.294
14083WAT     H142491   4.807   0.410   5.344
14083WAT     H242492   4.826   0.311   5.215
14084WAT      O42493   9.205   4.197   2.150
14084WAT     H142494   9.162   4.150   2.227
14084WAT     H242495   9.189   4.295   2.157
14085WAT      O42496   5.469   7.613   5.701
14085WAT     H142497   5.560   7.638   5.733
14085WAT     H242498   5.467   7.516   5.677
14086WAT      O42499   8.370   9.460   1.570
14086WAT     H142500   8.439   9.389   1.556
14086WAT     H242501   8.321   9.443   1.655
14087WAT      O42502   8.692   7.432   5.413
14087WAT     H142503   8.675   7.336   5.391
14087WAT     H242504   8.624   7.489   5.368
14088WAT      O42505   1.862   4.646   7.640
14088WAT     H142506   1.776   4.688   7.668
14088WAT     H242507   1.935   4.714   7.646
14089WAT      O42508   8.282   1.207   2.868
14089WAT     H142509   8.253   1.183   2.776
14089WAT     H242510   8.381   1.193   2.876
14090WAT      O42511   1.276   9.436   2.666
14090WAT     H142512   1.291   9.459   2.570
14090WAT     H242513   1.301   9.514   2.724
14091WAT      O42514   8.920   1.110   7.040
14091WAT     H142515   8.987   1.052   6.993
14091WAT     H242516   8.935   1.104   7.139
14092WAT      O42517   9.036   4.137   9.596
14092WAT     H142518   9.072   4.055   9.640
14092WAT     H242519   9.105   4.209   9.598
14093WAT      O42520   5.280   9.625   1.952
14093WAT     H142521   5.332   9.629   2.037
14093WAT     H242522   5.273   9.717   1.913
14094WAT      O42523   1.343   4.791   4.003
14094WAT     H142524   1.268   4.726   3.990
14094WAT     H242525   1.429   4.751   3.970
14095WAT      O42526   4.926   9.203   0.278
14095WAT     H142527   4.985   9.224   0.356
14095WAT     H242528   4.902   9.288   0.230
14096WAT      O42529   7.133   0.077   1.198
14096WAT     H142530   7.167   0.110   1.110
14096WAT     H242531   7.198   0.101   1.270
14097WAT      O42532   4.635   8.151   8.753
14097WAT     H142533   4.722   8.100   8.753
14097WAT     H242534   4.604   8.164   8.659
14098WAT      O42535   2.415   2.903   7.225
14098WAT     H142536   2.355   2.979   7.250
14098WAT     H242537   2.501   2.911   7.275
14099WAT      O42538   6.167   9.523   6.157
14099WAT     H142539   6.097   9.561   6.096
14099WAT     H242540   6.216   9.450   6.110
14100WAT      O42541   6.187   3.166   8.853
14100WAT     H142542   6.155   3.169   8.948
14100WAT     H242543   6.121   3.213   8.795
14101WAT      O42544   2.686   5.413   6.192
14101WAT     H142545   2.772   5.363   6.206
14101WAT     H242546   2.707   5.505   6.158
14102WAT      O42547   1.650   3.916   3.645
14102WAT     H142548   1.731   3.864   3.672
14102WAT     H242549   1.672   4.013   3.643
14103WAT      O42550   9.690   6.987   4.268
14103WAT     H142551   9.759   6.938   4.214
14103WAT     H242552   9.603   6.937   4.264
14104WAT      O42553   2.563   0.573   7.721
14104WAT     H142554   2.486   0.601   7.778
14104WAT     H242555   2.557   0.476   7.701
14105WAT      O42556   2.726   9.827   4.853
14105WAT     H142557   2.784   9.750   4.828
14105WAT     H242558   2.657   9.797   4.919
14106WAT      O42559   3.598   1.211   1.889
14106WAT     H142560   3.673   1.261   1.933
14106WAT     H242561   3.531   1.275   1.853
14107WAT      O42562   6.873   7.784   7.673
14107WAT     H142563   6.928   7.710   7.710
14107WAT     H242564   6.925   7.870   7.679
14108WAT      O42565   4.850   4.914   9.575
14108WAT     H142566   4.829   4.954   9.486
14108WAT     H242567   4.796   4.960   9.646
14109WAT      O42568   3.009   2.173   8.296
14109WAT     H142569   3.012   2.111   8.374
14109WAT     H242570   2.918   2.214   8.289
14110WAT      O42571   2.589   8.939   2.470
14110WAT     H142572   2.629   8.918   2.559
14110WAT     H242573   2.609   8.865   2.406
14111WAT      O42574   9.018   9.127   1.759
14111WAT     H142575   8.953   9.198   1.731
14111WAT     H242576   8.968   9.050   1.799
14112WAT      O42577   0.926   5.751   8.781
14112WAT     H142578   0.964   5.715   8.696
14112WAT     H242579   0.831   5.721   8.791
14113WAT      O42580   6.701   2.567   2.376
14113WAT     H142581   6.727   2.649   2.428
14113WAT     H242582   6.700   2.489   2.438
14114WAT      O42583   6.703   6.111   5.588
14114WAT     H142584   6.790   6.102   5.637
14114WAT     H242585   6.655   6.024   5.589
14115WAT      O42586   8.244   9.512   4.721
14115WAT     H142587   8.198   9.591   4.680
14115WAT     H242588   8.324   9.488   4.665
14116WAT      O42589   3.343   5.120   3.090
14116WAT     H142590   3.250   5.125   3.126
14116WAT     H242591   3.377   5.026   3.099
14117WAT      O42592   6.433   1.249   5.073
14117WAT     H142593   6.422   1.156   5.036
14117WAT     H242594   6.390   1.254   5.163
14118WAT      O42595   8.122   7.228   5.135
14118WAT     H142596   8.103   7.240   5.038
14118WAT     H242597   8.221   7.225   5.150
14119WAT      O42598   8.846   9.346   1.759
14119WAT     H142599   8.756   9.311   1.785
14119WAT     H242600   8.843   9.379   1.665
14120WAT      O42601   0.629   3.836   1.975
14120WAT     H142602   0.629   3.865   1.880
14120WAT     H242603   0.560   3.887   2.026
14121WAT      O42604   7.433   8.958   1.522
14121WAT     H142605   7.397   8.932   1.611
14121WAT     H242606   7.360   8.951   1.454
14122WAT      O42607   7.744   2.406   7.985
14122WAT     H142608   7.807   2.465   8.036
14122WAT     H242609   7.663   2.388   8.042
14123WAT      O42610   3.995   5.641   7.016
14123WAT     H142611   3.956   5.677   7.100
14123WAT     H242612   4.063   5.705   6.980
14124WAT      O42613   0.983   7.955   7.302
14124WAT     H142614   0.971   7.863   7.339
14124WAT     H242615   1.035   7.950   7.216
14125WAT      O42616   2.175   9.281   1.289
14125WAT     H142617   2.271   9.254   1.276
14125WAT     H242618   2.149   9.346   1.217
14126WAT      O42619   3.366   1.993   2.935
14126WAT     H142620   3.376   1.989   2.836
14126WAT     H242621   3.349   1.900   2.970
14127WAT      O42622   1.689   1.636   5.964
14127WAT     H142623   1.788   1.632   5.953
14127WAT     H242624   1.660   1.731   5.971
14128WAT      O42625   2.374   8.495   3.474
14128WAT     H142626   2.402   8.591   3.480
14128WAT     H242627   2.283   8.489   3.433
14129WAT      O42628   3.347   3.008   8.355
14129WAT     H142629   3.409   3.082   8.381
14129WAT     H242630   3.263   3.014   8.409
14130WAT      O42631   2.939   0.332   0.478
14130WAT     H142632   2.919   0.386   0.559
14130WAT     H242633   3.035   0.303   0.479
14131WAT      O42634   9.403   3.472   5.901
14131WAT     H142635   9.362   3.556   5.936
14131WAT     H242636   9.473   3.440   5.964
14132WAT      O42637   4.091   8.896   3.098
14132WAT     H142638   4.187   8.897   3.070
14132WAT     H242639   4.072   8.812   3.149
14133WAT      O42640   1.466   5.762   2.272
14133WAT     H142641   1.549   5.755   2.327
14133WAT     H242642   1.422   5.672   2.265
14134WAT      O42643   6.165   7.933   1.919
14134WAT     H142644   6.106   7.948   1.840
14134WAT     H242645   6.200   7.839   1.918
14135WAT      O42646   1.156   1.883   5.412
14135WAT     H142647   1.182   1.890   5.508
14135WAT     H242648   1.155   1.787   5.385
14136WAT      O42649   5.947   7.382   0.559
14136WAT     H142650   5.870   7.429   0.516
14136WAT     H242651   5.996   7.328   0.491
14137WAT      O42652   1.164   8.283   3.892
14137WAT     H142653   1.255   8.251   3.915
14137WAT     H242654   1.101   8.205   3.890
14138WAT      O42655   7.778   8.018   5.826
14138WAT     H142656   7.748   7.990   5.917
14138WAT     H242657   7.709   8.077   5.784
14139WAT      O42658   1.052   0.146   4.911
14139WAT     H142659   1.096   0.134   5.000
14139WAT     H242660   0.954   0.127   4.920
14140WAT      O42661   1.714   6.902   1.016
14140WAT     H142662   1.705   6.829   1.084
14140WAT     H242663   1.787   6.965   1.044
14141WAT      O42664   3.098   3.083   7.978
14141WAT     H142665   3.047   3.131   8.050
14141WAT     H242666   3.154   3.011   8.019
14142WAT      O42667   3.659   0.435   5.586
14142WAT     H142668   3.643   0.342   5.618
14142WAT     H242669   3.718   0.433   5.505
14143WAT      O42670   7.817   1.886   6.038
14143WAT     H142671   7.912   1.909   6.021
14143WAT     H242672   7.766   1.968   6.064
14144WAT      O42673   0.862   6.504   3.380
14144WAT     H142674   0.805   6.576   3.340
14144WAT     H242675   0.804   6.427   3.407
14145WAT      O42676   5.860   5.439   7.971
14145WAT     H142677   5.846   5.341   7.954
14145WAT     H242678   5.817   5.492   7.898
14146WAT      O42679   3.487   6.909   0.068
14146WAT     H142680   3.498   6.971  -0.010
14146WAT     H242681   3.489   6.961   0.153
14147WAT      O42682   1.627   6.257   2.233
14147WAT     H142683   1.637   6.333   2.297
14147WAT     H242684   1.704   6.193   2.245
14148WAT      O42685   2.414   9.431   1.641
14148WAT     H142686   2.390   9.463   1.549
14148WAT     H242687   2.361   9.349   1.663
14149WAT      O42688   9.572   9.616   5.499
14149WAT     H142689   9.647   9.593   5.562
14149WAT     H242690   9.484   9.603   5.545
14150WAT      O42691   9.053   8.102   6.434
14150WAT     H142692   8.971   8.115   6.380
14150WAT     H242693   9.129   8.076   6.374
14151WAT      O42694   4.798   7.424   7.735
14151WAT     H142695   4.745   7.409   7.651
14151WAT     H242696   4.737   7.456   7.807
14152WAT      O42697   3.917   5.634   3.335
14152WAT     H142698   3.994   5.647   3.398
14152WAT     H242699   3.953   5.614   3.244
14153WAT      O42700   2.294   6.772   3.453
14153WAT     H142701   2.291   6.849   3.390
14153WAT     H242702   2.387   6.735   3.457
14154WAT      O42703   4.372   6.147   7.838
14154WAT     H142704   4.407   6.176   7.749
14154WAT     H242705   4.432   6.075   7.875
14155WAT      O42706   3.791   7.247   1.622
14155WAT     H142707   3.709   7.279   1.671
14155WAT     H242708   3.807   7.304   1.542
14156WAT      O42709   4.237   4.896   5.193
14156WAT     H142710   4.283   4.904   5.105
14156WAT     H242711   4.194   4.806   5.200
14157WAT      O42712   1.360   3.324   0.917
14157WAT     H142713   1.439   3.340   0.976
14157WAT     H242714   1.321   3.412   0.887
14158WAT      O42715   9.699   6.847   0.580
14158WAT     H142716   9.612   6.877   0.542
14158WAT     H242717   9.684   6.774   0.646
14159WAT      O42718   3.884   3.312   6.241
14159WAT     H142719   3.901   3.227   6.291
14159WAT     H242720   3.949   3.319   6.166
14160WAT      O42721   6.847   8.424   1.410
14160WAT     H142722   6.842   8.520   1.439
14160WAT     H242723   6.920   8.414   1.343
14161WAT      O42724   6.766   9.033   8.942
14161WAT     H142725   6.685   9.090   8.931
14161WAT     H242726   6.748   8.942   8.904
14162WAT      O42727   8.549   7.898   4.407
14162WAT     H142728   8.649   7.896   4.402
14162WAT     H242729   8.519   7.846   4.487
14163WAT      O42730   4.424   9.705   9.890
14163WAT     H142731   4.447   9.622   9.839
14163WAT     H242732   4.451   9.695   9.986
14164WAT      O42733   8.291   6.092   8.466
14164WAT     H142734   8.256   6.183   8.488
14164WAT     H242735   8.365   6.100   8.399
14165WAT      O42736   7.893   2.583   8.121
14165WAT     H142737   7.862   2.648   8.191
14165WAT     H242738   7.978   2.616   8.080
14166WAT      O42739   5.094   2.844   4.482
14166WAT     H142740   5.138   2.773   4.427
14166WAT     H242741   5.020   2.886   4.430
14167WAT      O42742   0.373   5.624   6.738
14167WAT     H142743   0.369   5.567   6.821
14167WAT     H242744   0.372   5.720   6.764
14168WAT      O42745   3.160   4.315   3.120
14168WAT     H142746   3.212   4.261   3.188
14168WAT     H242747   3.067   4.281   3.115
14169WAT      O42748   3.462   9.527   2.001
14169WAT     H142749   3.507   9.595   1.942
14169WAT     H242750   3.431   9.450   1.945
14170WAT      O42751   3.777   2.276   1.463
14170WAT     H142752   3.697   2.313   1.510
14170WAT     H242753   3.780   2.312   1.370
14171WAT      O42754   7.406   3.735   5.322
14171WAT     H142755   7.448   3.726   5.232
14171WAT     H242756   7.470   3.779   5.385
14172WAT      O42757   1.045   0.794   2.204
14172WAT     H142758   1.093   0.881   2.191
14172WAT     H242759   0.949   0.811   2.223
14173WAT      O42760   1.723   7.066   0.440
14173WAT     H142761   1.685   7.127   0.370
14173WAT     H242762   1.700   6.971   0.417
14174WAT      O42763   7.609   1.286   2.005
14174WAT     H142764   7.635   1.189   2.004
14174WAT     H242765   7.671   1.338   1.947
14175WAT      O42766   5.334   2.389   9.788
14175WAT     H142767   5.264   2.318   9.791
14175WAT     H242768   5.417   2.355   9.833
14176WAT      O42769   2.236   1.165   5.153
14176WAT     H142770   2.192   1.206   5.074
14176WAT     H242771   2.167   1.134   5.218
14177WAT      O42772   4.085   9.134   2.389
14177WAT     H142773   4.117   9.227   2.376
14177WAT     H242774   4.158   9.069   2.366
14178WAT      O42775   1.582   8.846   3.705
14178WAT     H142776   1.578   8.778   3.631
14178WAT     H242777   1.492   8.852   3.749
14179WAT      O42778   0.332   1.743   6.465
14179WAT     H142779   0.367   1.673   6.403
14179WAT     H242780   0.403   1.812   6.481
14180WAT      O42781   5.157   2.214   9.836
14180WAT     H142782   5.114   2.281   9.897
14180WAT     H242783   5.087   2.163   9.787
14181WAT      O42784   1.939   5.615   3.846
14181WAT     H142785   1.968   5.530   3.802
14181WAT     H242786   1.941   5.605   3.945
14182WAT      O42787   1.483   5.094   1.302
14182WAT     H142788   1.479   5.076   1.203
14182WAT     H242789   1.578   5.089   1.333
14183WAT      O42790   3.995   1.472   3.344
14183WAT     H142791   3.906   1.436   3.314
14183WAT     H242792   4.066   1.445   3.280
14184WAT      O42793   8.835   3.451   4.847
14184WAT     H142794   8.917   3.438   4.903
14184WAT     H242795   8.781   3.525   4.884
14185WAT      O42796   1.704   9.559   3.716
14185WAT     H142797   1.635   9.550   3.788
14185WAT     H242798   1.677   9.505   3.637
14186WAT      O42799   1.345   3.490   6.273
14186WAT     H142800   1.317   3.554   6.201
14186WAT     H242801   1.434   3.518   6.310
14187WAT      O42802   3.133   1.375   1.727
14187WAT     H142803   3.230   1.382   1.750
14187WAT     H242804   3.102   1.281   1.740
14188WAT      O42805   7.913   4.713   6.448
14188WAT     H142806   7.846   4.771   6.494
14188WAT     H242807   7.995   4.705   6.505
14189WAT      O42808   6.044   1.556   6.833
14189WAT     H142809   5.979   1.504   6.777
14189WAT     H242810   6.094   1.493   6.892
14190WAT      O42811   6.501   8.242   4.534
14190WAT     H142812   6.535   8.313   4.597
14190WAT     H242813   6.572   8.173   4.521
14191WAT      O42814   7.392   3.787   2.843
14191WAT     H142815   7.429   3.790   2.751
14191WAT     H242816   7.304   3.739   2.842
14192WAT      O42817   3.537   6.117   0.400
14192WAT     H142818   3.503   6.163   0.482
14192WAT     H242819   3.481   6.037   0.381
14193WAT      O42820   1.824   1.685   2.236
14193WAT     H142821   1.880   1.767   2.251
14193WAT     H242822   1.787   1.653   2.323
14194WAT      O42823   1.681   9.365   4.185
14194WAT     H142824   1.686   9.340   4.282
14194WAT     H242825   1.587   9.389   4.162
14195WAT      O42826   5.587   3.102   5.342
14195WAT     H142827   5.572   3.065   5.434
14195WAT     H242828   5.682   3.089   5.316
14196WAT      O42829   5.050   8.196   0.726
14196WAT     H142830   5.025   8.100   0.719
14196WAT     H242831   5.150   8.205   0.719
14197WAT      O42832   3.307   6.091   8.781
14197WAT     H142833   3.365   6.011   8.798
14197WAT     H242834   3.340   6.169   8.834
14198WAT      O42835   9.760   8.252   2.527
14198WAT     H142836   9.782   8.311   2.450
14198WAT     H242837   9.757   8.157   2.497
14199WAT      O42838   9.010   7.317   8.486
14199WAT     H142839   9.017   7.219   8.501
14199WAT     H242840   8.950   7.335   8.408
14200WAT      O42841   6.951   5.976   1.204
14200WAT     H142842   7.024   6.042   1.215
14200WAT     H242843   6.988   5.891   1.166
14201WAT      O42844   9.581   6.249   6.257
14201WAT     H142845   9.588   6.192   6.339
14201WAT     H242846   9.566   6.190   6.177
14202WAT      O42847   6.333   7.169   9.786
14202WAT     H142848   6.285   7.224   9.717
14202WAT     H242849   6.421   7.213   9.808
14203WAT      O42850   3.664   8.895   8.983
14203WAT     H142851   3.748   8.843   8.994
14203WAT     H242852   3.587   8.841   9.016
14204WAT      O42853   8.352   3.273   3.845
14204WAT     H142854   8.361   3.369   3.819
14204WAT     H242855   8.285   3.228   3.785
14205WAT      O42856   0.079   9.776   1.938
14205WAT     H142857   0.060   9.732   2.026
14205WAT     H242858   0.173   9.753   1.909
14206WAT      O42859   7.969   7.855   7.571
14206WAT     H142860   8.061   7.827   7.596
14206WAT     H242861   7.902   7.800   7.622
14207WAT      O42862   8.531   6.249   9.248
14207WAT     H142863   8.584   6.288   9.323
14207WAT     H242864   8.582   6.173   9.207
14208WAT      O42865   8.716   7.231   2.275
14208WAT     H142866   8.718   7.219   2.374
14208WAT     H242867   8.632   7.277   2.248
14209WAT      O42868   7.491   4.600   9.603
14209WAT     H142869   7.552   4.657   9.548
14209WAT     H242870   7.474   4.644   9.691
14210WAT      O42871   7.664   9.328   8.744
14210WAT     H142872   7.597   9.271   8.792
14210WAT     H242873   7.736   9.270   8.706
14211WAT      O42874   6.664   8.918   3.545
14211WAT     H142875   6.673   8.953   3.638
14211WAT     H242876   6.733   8.960   3.487
14212WAT      O42877   3.352   9.152   0.599
14212WAT     H142878   3.332   9.164   0.502
14212WAT     H242879   3.400   9.232   0.634
14213WAT      O42880   3.611   1.364   5.304
14213WAT     H142881   3.582   1.429   5.373
14213WAT     H242882   3.597   1.271   5.338
14214WAT      O42883   3.465   9.803   0.358
14214WAT     H142884   3.432   9.897   0.357
14214WAT     H242885   3.476   9.770   0.264
14215WAT      O42886   0.583   0.971   2.914
14215WAT     H142887   0.512   0.985   2.983
14215WAT     H242888   0.626   0.882   2.928
14216WAT      O42889   8.002   3.805   5.757
14216WAT     H142890   8.060   3.869   5.808
14216WAT     H242891   7.924   3.854   5.720
14217WAT      O42892   1.467   8.642   2.081
14217WAT     H142893   1.492   8.734   2.051
14217WAT     H242894   1.401   8.648   2.155
14218WAT      O42895   4.453   6.546   9.299
14218WAT     H142896   4.449   6.614   9.372
14218WAT     H242897   4.543   6.549   9.255
14219WAT      O42898   7.357   2.016   1.759
14219WAT     H142899   7.303   1.932   1.761
14219WAT     H242900   7.298   2.093   1.736
14220WAT      O42901   9.260   5.817   9.401
14220WAT     H142902   9.233   5.913   9.412
14220WAT     H242903   9.355   5.806   9.429
14221WAT      O42904   7.049   3.020   8.197
14221WAT     H142905   7.025   2.973   8.112
14221WAT     H242906   7.113   2.964   8.249
14222WAT      O42907   7.386   4.408   3.231
14222WAT     H142908   7.329   4.392   3.150
14222WAT     H242909   7.410   4.506   3.236
14223WAT      O42910   9.162   1.134   0.087
14223WAT     H142911   9.103   1.075   0.143
14223WAT     H242912   9.226   1.182   0.146
14224WAT      O42913   0.687   4.875   5.429
14224WAT     H142914   0.658   4.793   5.380
14224WAT     H242915   0.608   4.916   5.474
14225WAT      O42916   9.822   2.619   5.087
14225WAT     H142917   9.864   2.668   5.164
14225WAT     H242918   9.776   2.537   5.122
14226WAT      O42919   6.126   6.567   2.024
14226WAT     H142920   6.168   6.479   2.002
14226WAT     H242921   6.052   6.552   2.090
14227WAT      O42922   6.412   6.782   4.663
14227WAT     H142923   6.407   6.876   4.627
14227WAT     H242924   6.411   6.717   4.587
14228WAT      O42925   0.033   2.569   4.200
14228WAT     H142926  -0.020   2.485   4.198
14228WAT     H242927   0.044   2.605   4.108
14229WAT      O42928   9.685   6.288   3.489
14229WAT     H142929   9.768   6.342   3.475
14229WAT     H242930   9.611   6.347   3.522
14230WAT      O42931   8.707   6.640   9.512
14230WAT     H142932   8.709   6.707   9.587
14230WAT     H242933   8.641   6.669   9.443
14231WAT      O42934   6.795   2.756   6.535
14231WAT     H142935   6.801   2.827   6.605
14231WAT     H242936   6.809   2.666   6.576
14232WAT      O42937   5.014   0.539   6.044
14232WAT     H142938   4.937   0.516   5.983
14232WAT     H242939   5.029   0.463   6.108
14233WAT      O42940   8.465   3.647   4.750
14233WAT     H142941   8.509   3.559   4.736
14233WAT     H242942   8.519   3.719   4.705
14234WAT      O42943   4.392   2.365   5.029
14234WAT     H142944   4.468   2.299   5.028
14234WAT     H242945   4.346   2.362   5.118
14235WAT      O42946   9.401   7.168   8.501
14235WAT     H142947   9.347   7.195   8.580
14235WAT     H242948   9.433   7.249   8.452
14236WAT      O42949   2.907   3.982   5.854
14236WAT     H142950   3.000   4.015   5.841
14236WAT     H242951   2.849   4.017   5.780
14237WAT      O42952   4.496   2.305   4.187
14237WAT     H142953   4.462   2.382   4.133
14237WAT     H242954   4.526   2.232   4.126
14238WAT      O42955   4.140   5.890   1.308
14238WAT     H142956   4.195   5.806   1.307
14238WAT     H242957   4.072   5.884   1.382
14239WAT      O42958   3.970   0.911   2.983
14239WAT     H142959   4.043   0.893   3.049
14239WAT     H242960   4.004   0.897   2.890
14240WAT      O42961   7.041   8.614   1.689
14240WAT     H142962   7.106   8.585   1.619
14240WAT     H242963   6.973   8.675   1.648
14241WAT      O42964   8.689   8.145   4.799
14241WAT     H142965   8.685   8.197   4.883
14241WAT     H242966   8.785   8.126   4.776
14242WAT      O42967   3.897   0.332   1.511
14242WAT     H142968   3.840   0.413   1.525
14242WAT     H242969   3.863   0.257   1.569
14243WAT      O42970   5.272   2.406   9.245
14243WAT     H142971   5.320   2.392   9.158
14243WAT     H242972   5.181   2.444   9.227
14244WAT      O42973   5.902   7.788   0.872
14244WAT     H142974   5.833   7.725   0.910
14244WAT     H242975   5.981   7.736   0.842
14245WAT      O42976   0.039   5.553   7.155
14245WAT     H142977  -0.033   5.595   7.210
14245WAT     H242978   0.028   5.579   7.059
14246WAT      O42979   7.268   9.147   0.933
14246WAT     H142980   7.301   9.237   0.961
14246WAT     H242981   7.171   9.154   0.907
14247WAT      O42982   4.018   8.149   1.608
14247WAT     H142983   4.090   8.176   1.672
14247WAT     H242984   3.932   8.136   1.657
14248WAT      O42985   2.275   7.983   1.533
14248WAT     H142986   2.264   7.899   1.587
14248WAT     H242987   2.262   8.062   1.592
14249WAT      O42988   1.342   6.976   7.324
14249WAT     H142989   1.312   6.897   7.271
14249WAT     H242990   1.318   7.060   7.276
14250WAT      O42991   2.513   1.920   5.826
14250WAT     H142992   2.502   1.821   5.828
14250WAT     H242993   2.461   1.962   5.900
14251WAT      O42994   0.709   4.258   1.363
14251WAT     H142995   0.710   4.177   1.304
14251WAT     H242996   0.702   4.340   1.306
14252WAT      O42997   1.390   0.582   1.078
14252WAT     H142998   1.319   0.550   1.015
14252WAT     H242999   1.392   0.682   1.078
14253WAT      O43000   5.953   3.694   1.791
14253WAT     H143001   5.900   3.734   1.716
14253WAT     H243002   5.985   3.603   1.765
14254WAT      O43003   0.430   2.346   9.796
14254WAT     H143004   0.346   2.299   9.770
14254WAT     H243005   0.501   2.279   9.817
14255WAT      O43006   1.820   3.759   3.779
14255WAT     H143007   1.838   3.687   3.711
14255WAT     H243008   1.906   3.789   3.819
14256WAT      O43009   4.144   6.576   0.477
14256WAT     H143010   4.225   6.604   0.530
14256WAT     H243011   4.115   6.652   0.419
14257WAT      O43012   7.623   4.973   4.600
14257WAT     H143013   7.603   4.956   4.697
14257WAT     H243014   7.715   5.011   4.592
14258WAT      O43015   9.338   7.022   4.977
14258WAT     H143016   9.400   7.096   5.004
14258WAT     H243017   9.248   7.037   5.018
14259WAT      O43018   9.422   3.725   9.445
14259WAT     H143019   9.496   3.754   9.384
14259WAT     H243020   9.448   3.639   9.490
14260WAT      O43021   0.144   3.772   7.144
14260WAT     H143022   0.056   3.727   7.133
14260WAT     H243023   0.217   3.703   7.145
14261WAT      O43024   3.844   2.797   8.789
14261WAT     H143025   3.864   2.726   8.722
14261WAT     H243026   3.768   2.854   8.756
14262WAT      O43027   7.441   3.223   6.790
14262WAT     H143028   7.370   3.157   6.764
14262WAT     H243029   7.503   3.181   6.857
14263WAT      O43030   1.951   4.722   0.269
14263WAT     H143031   1.867   4.706   0.322
14263WAT     H243032   1.987   4.635   0.236
14264WAT      O43033   5.393   0.056   0.372
14264WAT     H143034   5.425   0.023   0.461
14264WAT     H243035   5.322  -0.005   0.338
14265WAT      O43036   8.729   3.646   2.763
14265WAT     H143037   8.765   3.609   2.678
14265WAT     H243038   8.661   3.583   2.801
14266WAT      O43039   4.352   6.946   8.352
14266WAT     H143040   4.288   6.905   8.287
14266WAT     H243041   4.388   6.876   8.413
14267WAT      O43042   2.505   5.956   2.410
14267WAT     H143043   2.442   5.887   2.445
14267WAT     H243044   2.454   6.034   2.374
14268WAT      O43045   6.891   5.264   4.207
14268WAT     H143046   6.987   5.252   4.183
14268WAT     H243047   6.868   5.362   4.204
14269WAT      O43048   1.727   3.791   6.159
14269WAT     H143049   1.746   3.725   6.087
14269WAT     H243050   1.676   3.868   6.121
14270WAT      O43051   2.101   4.246   3.159
14270WAT     H143052   2.018   4.301   3.170
14270WAT     H243053   2.180   4.307   3.153
14271WAT      O43054   6.940   7.801   1.503
14271WAT     H143055   6.845   7.824   1.481
14271WAT     H243056   6.990   7.885   1.526
14272WAT      O43057   3.257   2.749   7.435
14272WAT     H143058   3.308   2.716   7.515
14272WAT     H243059   3.159   2.748   7.456
14273WAT      O43060   0.909   9.716   7.084
14273WAT     H143061   0.981   9.652   7.060
14273WAT     H243062   0.830   9.701   7.024
14274WAT      O43063   6.536   3.614   7.851
14274WAT     H143064   6.584   3.568   7.926
14274WAT     H243065   6.485   3.693   7.887
14275WAT      O43066   7.499   7.282   1.264
14275WAT     H143067   7.459   7.222   1.195
14275WAT     H243068   7.589   7.313   1.233
14276WAT      O43069   6.830   9.815   5.102
14276WAT     H143070   6.855   9.831   5.007
14276WAT     H243071   6.744   9.765   5.106
14277WAT      O43072   2.325   5.667   4.741
14277WAT     H143073   2.344   5.570   4.754
14277WAT     H243074   2.263   5.679   4.664
14278WAT      O43075   6.805   8.911   9.346
14278WAT     H143076   6.707   8.912   9.364
14278WAT     H243077   6.840   8.817   9.357
14279WAT      O43078   4.224   8.165   1.418
14279WAT     H143079   4.158   8.153   1.492
14279WAT     H243080   4.314   8.135   1.449
14280WAT      O43081   4.551   0.647   1.045
14280WAT     H143082   4.563   0.556   1.004
14280WAT     H243083   4.596   0.649   1.134
14281WAT      O43084   1.966   4.215   4.424
14281WAT     H143085   2.014   4.150   4.483
14281WAT     H243086   1.873   4.229   4.459
14282WAT      O43087   2.760   2.798   5.031
14282WAT     H143088   2.801   2.885   5.058
14282WAT     H243089   2.755   2.738   5.111
14283WAT      O43090   4.175   9.440   0.044
14283WAT     H143091   4.176   9.340   0.038
14283WAT     H243092   4.195   9.467   0.138
14284WAT      O43093   0.093   0.855   1.465
14284WAT     H143094   0.038   0.878   1.545
14284WAT     H243095   0.182   0.899   1.472
14285WAT      O43096   4.411   1.133   0.675
14285WAT     H143097   4.393   1.184   0.591
14285WAT     H243098   4.500   1.087   0.668
14286WAT      O43099   4.474   8.314   4.854
14286WAT     H143100   4.375   8.320   4.842
14286WAT     H243101   4.515   8.269   4.775
14287WAT      O43102   9.871   9.591   7.133
14287WAT     H143103   9.910   9.628   7.217
14287WAT     H243104   9.877   9.491   7.134
14288WAT      O43105   6.172   9.485   4.004
14288WAT     H143106   6.209   9.574   4.030
14288WAT     H243107   6.073   9.487   4.009
14289WAT      O43108   0.180   5.444   4.214
14289WAT     H143109   0.264   5.455   4.162
14289WAT     H243110   0.122   5.524   4.202
14290WAT      O43111   6.818   3.738   9.523
14290WAT     H143112   6.773   3.676   9.458
14290WAT     H243113   6.780   3.830   9.512
14291WAT      O43114   8.943   1.489   2.722
14291WAT     H143115   8.872   1.453   2.783
14291WAT     H243116   8.911   1.486   2.628
14292WAT      O43117   9.659   9.355   2.540
14292WAT     H143118   9.676   9.445   2.580
14292WAT     H243119   9.564   9.327   2.559
14293WAT      O43120   0.890   9.276   7.737
14293WAT     H143121   0.949   9.209   7.692
14293WAT     H243122   0.925   9.295   7.829
14294WAT      O43123   7.857   8.690   1.040
14294WAT     H143124   7.797   8.666   0.964
14294WAT     H243125   7.952   8.683   1.012
14295WAT      O43126   2.655   8.624   4.264
14295WAT     H143127   2.659   8.687   4.187
14295WAT     H243128   2.663   8.530   4.232
14296WAT      O43129   0.822   6.544   6.631
14296WAT     H143130   0.827   6.644   6.626
14296WAT     H243131   0.747   6.511   6.574
14297WAT      O43132   8.067   3.196   5.505
14297WAT     H143133   8.091   3.286   5.468
14297WAT     H243134   7.968   3.190   5.515
14298WAT      O43135   3.969   7.414   2.185
14298WAT     H143136   4.011   7.363   2.110
14298WAT     H243137   3.944   7.351   2.259
14299WAT      O43138   3.516   5.323   3.968
14299WAT     H143139   3.511   5.283   4.060
14299WAT     H243140   3.440   5.386   3.955
14300WAT      O43141   0.854   1.001   4.746
14300WAT     H143142   0.838   1.086   4.797
14300WAT     H243143   0.831   1.015   4.650
14301WAT      O43144   5.305   6.585   9.265
14301WAT     H143145   5.320   6.487   9.254
14301WAT     H243146   5.215   6.600   9.306
14302WAT      O43147   3.649   0.953   2.650
14302WAT     H143148   3.671   0.972   2.554
14302WAT     H243149   3.714   0.887   2.687
14303WAT      O43150   0.097   2.503   2.937
14303WAT     H143151   0.080   2.539   2.845
14303WAT     H243152   0.014   2.461   2.973
14304WAT      O43153   2.706   3.541   3.987
14304WAT     H143154   2.675   3.447   4.001
14304WAT     H243155   2.703   3.563   3.889
14305WAT      O43156   0.503   5.991   2.927
14305WAT     H143157   0.575   6.039   2.977
14305WAT     H243158   0.535   5.968   2.835
14306WAT      O43159   1.016   3.565   3.735
14306WAT     H143160   1.092   3.502   3.749
14306WAT     H243161   1.000   3.576   3.637
14307WAT      O43162   4.626   7.621   1.883
14307WAT     H143163   4.626   7.560   1.805
14307WAT     H243164   4.702   7.685   1.876
14308WAT      O43165   8.015   8.292   6.036
14308WAT     H143166   8.047   8.244   5.955
14308WAT     H243167   8.054   8.384   6.038
14309WAT      O43168   5.970   0.269   3.570
14309WAT     H143169   5.977   0.367   3.548
14309WAT     H243170   5.972   0.257   3.669
14310WAT      O43171   4.827   0.310   0.774
14310WAT     H143172   4.867   0.370   0.705
14310WAT     H243173   4.754   0.255   0.732
14311WAT      O43174   9.409   8.568   6.651
14311WAT     H143175   9.363   8.548   6.564
14311WAT     H243176   9.375   8.655   6.687
14312WAT      O43177   8.945   4.943   2.578
14312WAT     H143178   8.987   5.032   2.592
14312WAT     H243179   8.883   4.947   2.500
14313WAT      O43180   3.676   0.442   9.424
14313WAT     H143181   3.611   0.480   9.491
14313WAT     H243182   3.693   0.346   9.445
14314WAT      O43183   2.518   1.152   6.653
14314WAT     H143184   2.585   1.167   6.727
14314WAT     H243185   2.546   1.073   6.598
14315WAT      O43186   6.603   4.648   8.995
14315WAT     H143187   6.632   4.705   8.918
14315WAT     H243188   6.684   4.616   9.044
14316WAT      O43189   1.829   6.680   4.054
14316WAT     H143190   1.798   6.771   4.081
14316WAT     H243191   1.895   6.688   3.980
14317WAT      O43192   7.770   7.526   0.284
14317WAT     H143193   7.861   7.542   0.245
14317WAT     H243194   7.707   7.503   0.210
14318WAT      O43195   4.060   5.668   0.010
14318WAT     H143196   4.134   5.649   0.074
14318WAT     H243197   4.068   5.608  -0.069
14319WAT      O43198   3.447   3.111   9.320
14319WAT     H143199   3.406   3.034   9.270
14319WAT     H243200   3.395   3.126   9.405
14320WAT      O43201   0.575   3.015   5.660
14320WAT     H143202   0.526   2.937   5.699
14320WAT     H243203   0.559   3.019   5.562
14321WAT      O43204   4.206   7.748   7.553
14321WAT     H143205   4.135   7.753   7.623
14321WAT     H243206   4.197   7.827   7.492
14322WAT      O43207   8.685   6.342   0.675
14322WAT     H143208   8.700   6.307   0.767
14322WAT     H243209   8.658   6.268   0.614
14323WAT      O43210   6.906   3.771   5.496
14323WAT     H143211   6.979   3.731   5.440
14323WAT     H243212   6.817   3.747   5.458
14324WAT      O43213   8.379   4.124   3.527
14324WAT     H143214   8.476   4.134   3.550
14324WAT     H243215   8.335   4.214   3.531
14325WAT      O43216   8.882   5.047   4.318
14325WAT     H143217   8.917   4.975   4.258
14325WAT     H243218   8.921   5.135   4.291
14326WAT      O43219   2.694   1.307   6.366
14326WAT     H143220   2.745   1.377   6.314
14326WAT     H243221   2.596   1.323   6.355
14327WAT      O43222   2.023   8.973   7.623
14327WAT     H143223   2.104   8.939   7.575
14327WAT     H243224   1.999   9.063   7.589
14328WAT      O43225   3.007   1.880   6.296
14328WAT     H143226   3.079   1.897   6.363
14328WAT     H243227   2.983   1.966   6.251
14329WAT      O43228   7.071   0.133   9.277
14329WAT     H143229   7.082   0.123   9.376
14329WAT     H243230   7.043   0.045   9.238
14330WAT      O43231   6.160   9.557   5.271
14330WAT     H143232   6.093   9.484   5.257
14330WAT     H243233   6.228   9.554   5.197
14331WAT      O43234   7.744   5.530   2.853
14331WAT     H143235   7.725   5.503   2.759
14331WAT     H243236   7.795   5.458   2.900
14332WAT      O43237   3.819   9.627   6.248
14332WAT     H143238   3.863   9.540   6.225
14332WAT     H243239   3.783   9.622   6.341
14333WAT      O43240   6.632   1.345   5.945
14333WAT     H143241   6.535   1.329   5.927
14333WAT     H243242   6.664   1.280   6.014
14334WAT      O43243   1.714   6.825   2.038
14334WAT     H143244   1.791   6.855   1.981
14334WAT     H243245   1.694   6.729   2.018
14335WAT      O43246   6.053   4.146   4.392
14335WAT     H143247   6.034   4.113   4.484
14335WAT     H243248   5.984   4.110   4.329
14336WAT      O43249   8.266   2.818   0.666
14336WAT     H143250   8.301   2.912   0.661
14336WAT     H243251   8.297   2.767   0.586
14337WAT      O43252   2.726   2.351   8.904
14337WAT     H143253   2.722   2.269   8.961
14337WAT     H243254   2.666   2.340   8.825
14338WAT      O43255   7.865   2.566   5.120
14338WAT     H143256   7.869   2.526   5.028
14338WAT     H243257   7.942   2.629   5.132
14339WAT      O43258   6.556   3.583   8.445
14339WAT     H143259   6.537   3.601   8.542
14339WAT     H243260   6.590   3.666   8.402
14340WAT      O43261   5.237   0.196   8.815
14340WAT     H143262   5.301   0.189   8.891
14340WAT     H243263   5.190   0.284   8.818
14341WAT      O43264   4.746   5.339   2.784
14341WAT     H143265   4.789   5.338   2.874
14341WAT     H243266   4.754   5.248   2.743
14342WAT      O43267   8.993   3.773   4.642
14342WAT     H143268   9.015   3.751   4.737
14342WAT     H243269   9.058   3.728   4.582
14343WAT      O43270   3.680   6.491   6.874
14343WAT     H143271   3.645   6.548   6.949
14343WAT     H243272   3.617   6.414   6.859
14344WAT      O43273   8.683   5.991   3.054
14344WAT     H143274   8.594   5.963   3.088
14344WAT     H243275   8.732   5.912   3.018
14345WAT      O43276   8.065   4.296   0.481
14345WAT     H143277   7.995   4.229   0.507
14345WAT     H243278   8.135   4.301   0.552
14346WAT      O43279   4.792   8.605   3.102
14346WAT     H143280   4.861   8.535   3.079
14346WAT     H243281   4.741   8.576   3.183
14347WAT      O43282   2.149   8.309   4.507
14347WAT     H143283   2.090   8.390   4.511
14347WAT     H243284   2.238   8.331   4.548
14348WAT      O43285   0.387   3.499   0.935
14348WAT     H143286   0.384   3.403   0.909
14348WAT     H243287   0.480   3.524   0.962
14349WAT      O43288   8.986   0.048   3.138
14349WAT     H143289   8.996   0.023   3.042
14349WAT     H243290   9.019   0.142   3.152
14350WAT      O43291   4.896   6.631   0.698
14350WAT     H143292   4.842   6.713   0.677
14350WAT     H243293   4.860   6.553   0.647
14351WAT      O43294   2.657   9.406   9.009
14351WAT     H143295   2.687   9.495   9.043
14351WAT     H243296   2.696   9.391   8.918
14352WAT      O43297   9.613   8.770   0.542
14352WAT     H143298   9.642   8.685   0.584
14352WAT     H243299   9.632   8.846   0.604
14353WAT      O43300   4.643   4.168   8.689
14353WAT     H143301   4.652   4.267   8.697
14353WAT     H243302   4.608   4.130   8.775
14354WAT      O43303   0.720   2.167   6.038
14354WAT     H143304   0.652   2.232   6.002
14354WAT     H243305   0.732   2.092   5.973
14355WAT      O43306   5.249   9.313   5.556
14355WAT     H143307   5.250   9.366   5.641
14355WAT     H243308   5.240   9.216   5.577
14356WAT      O43309   9.434   3.526   4.117
14356WAT     H143310   9.443   3.443   4.062
14356WAT     H243311   9.337   3.548   4.129
14357WAT      O43312   1.846   0.382   7.655
14357WAT     H143313   1.910   0.324   7.705
14357WAT     H243314   1.764   0.397   7.711
14358WAT      O43315   1.296   4.254   8.574
14358WAT     H143316   1.224   4.205   8.526
14358WAT     H243317   1.319   4.205   8.658
14359WAT      O43318   0.717   6.911   7.176
14359WAT     H143319   0.755   6.824   7.145
14359WAT     H243320   0.639   6.893   7.237
14360WAT      O43321   7.565   9.610   5.860
14360WAT     H143322   7.638   9.632   5.795
14360WAT     H243323   7.590   9.642   5.951
14361WAT      O43324   0.083   5.236   0.642
14361WAT     H143325   0.163   5.265   0.694
14361WAT     H243326   0.039   5.316   0.601
14362WAT      O43327   5.082   7.027   4.690
14362WAT     H143328   5.149   7.080   4.742
14362WAT     H243329   5.029   7.088   4.631
14363WAT      O43330   6.627   7.876   8.075
14363WAT     H143331   6.542   7.857   8.125
14363WAT     H243332   6.654   7.794   8.024
14364WAT      O43333   9.008   8.782   2.162
14364WAT     H143334   9.007   8.881   2.171
14364WAT     H243335   8.992   8.739   2.251
14365WAT      O43336   2.148   6.717   5.244
14365WAT     H143337   2.097   6.730   5.159
14365WAT     H243338   2.184   6.624   5.247
14366WAT      O43339   5.993   2.647   3.972
14366WAT     H143340   5.918   2.581   3.966
14366WAT     H243341   5.956   2.737   3.994
14367WAT      O43342   6.374   3.023   4.843
14367WAT     H143343   6.348   3.100   4.785
14367WAT     H243344   6.438   3.054   4.914
14368WAT      O43345   9.794   7.975   9.062
14368WAT     H143346   9.720   7.909   9.071
14368WAT     H243347   9.882   7.929   9.079
14369WAT      O43348   4.652   6.903   0.929
14369WAT     H143349   4.611   6.918   1.019
14369WAT     H243350   4.620   6.816   0.891
14370WAT      O43351   7.422   9.350   5.558
14370WAT     H143352   7.473   9.433   5.533
14370WAT     H243353   7.451   9.320   5.649
14371WAT      O43354   7.085   0.508   5.746
14371WAT     H143355   7.083   0.517   5.647
14371WAT     H243356   6.991   0.514   5.782
14372WAT      O43357   6.547   0.653   5.275
14372WAT     H143358   6.451   0.659   5.245
14372WAT     H243359   6.574   0.738   5.318
14373WAT      O43360   1.918   5.048   1.077
14373WAT     H143361   1.910   5.147   1.092
14373WAT     H243362   1.990   5.030   1.011
14374WAT      O43363   5.100   1.943   1.884
14374WAT     H143364   5.070   1.992   1.803
14374WAT     H243365   5.159   2.001   1.939
14375WAT      O43366   5.630   8.018   7.390
14375WAT     H143367   5.558   8.071   7.435
14375WAT     H243368   5.605   8.004   7.294
14376WAT      O43369   7.660   9.048   9.838
14376WAT     H143370   7.722   9.126   9.828
14376WAT     H243371   7.592   9.051   9.766
14377WAT      O43372   6.174   1.246   7.758
14377WAT     H143373   6.270   1.243   7.788
14377WAT     H243374   6.147   1.340   7.740
14378WAT      O43375   1.947   7.327   7.007
14378WAT     H143376   1.959   7.303   7.103
14378WAT     H243377   2.003   7.268   6.950
14379WAT      O43378   5.597   1.555   6.067
14379WAT     H143379   5.696   1.547   6.073
14379WAT     H243380   5.565   1.628   6.127
14380WAT      O43381   4.233   9.263   9.505
14380WAT     H143382   4.260   9.337   9.567
14380WAT     H243383   4.163   9.296   9.442
14381WAT      O43384   8.918   6.993   9.290
14381WAT     H143385   8.863   7.004   9.207
14381WAT     H243386   8.910   7.076   9.346
14382WAT      O43387   1.638   0.954   6.890
14382WAT     H143388   1.708   0.941   6.960
14382WAT     H243389   1.671   0.917   6.803
14383WAT      O43390   7.974   2.711   6.524
14383WAT     H143391   7.893   2.753   6.565
14383WAT     H243392   7.982   2.617   6.555
14384WAT      O43393   6.724   2.807   7.555
14384WAT     H143394   6.776   2.722   7.555
14384WAT     H243395   6.709   2.837   7.650
14385WAT      O43396   6.250   3.876   5.641
14385WAT     H143397   6.333   3.905   5.689
14385WAT     H243398   6.170   3.892   5.699
14386WAT      O43399   0.411   7.216   2.913
14386WAT     H143400   0.377   7.140   2.857
14386WAT     H243401   0.478   7.269   2.861
14387WAT      O43402   5.783   5.821   3.564
14387WAT     H143403   5.689   5.832   3.530
14387WAT     H243404   5.833   5.760   3.504
14388WAT      O43405   6.069   9.034   8.365
14388WAT     H143406   6.152   9.016   8.419
14388WAT     H243407   6.010   9.098   8.414
14389WAT      O43408   2.437   7.592   5.733
14389WAT     H143409   2.411   7.572   5.639
14389WAT     H243410   2.445   7.691   5.745
14390WAT      O43411   0.600   4.796   5.923
14390WAT     H143412   0.622   4.732   5.849
14390WAT     H243413   0.515   4.768   5.967
14391WAT      O43414   2.183   3.039   7.195
14391WAT     H143415   2.177   3.133   7.228
14391WAT     H243416   2.153   3.035   7.100
14392WAT      O43417   9.208   7.767   6.983
14392WAT     H143418   9.115   7.748   7.015
14392WAT     H243419   9.257   7.681   6.972
14393WAT      O43420   4.041   7.984   2.250
14393WAT     H143421   4.123   8.012   2.299
14393WAT     H243422   4.001   7.904   2.295
14394WAT      O43423   7.778   9.176   2.105
14394WAT     H143424   7.827   9.092   2.126
14394WAT     H243425   7.798   9.246   2.173
14395WAT      O43426   8.391   1.328   1.053
14395WAT     H143427   8.417   1.242   1.010
14395WAT     H243428   8.306   1.316   1.103
14396WAT      O43429   3.477   4.263   1.640
14396WAT     H143430   3.380   4.267   1.615
14396WAT     H243431   3.532   4.301   1.565
14397WAT      O43432   9.257   2.743   8.204
14397WAT     H143433   9.337   2.741   8.264
14397WAT     H243434   9.241   2.837   8.174
14398WAT      O43435   6.960   8.498   9.429
14398WAT     H143436   7.001   8.587   9.449
14398WAT     H243437   6.969   8.478   9.331
14399WAT      O43438   5.119   1.673   8.855
14399WAT     H143439   5.088   1.730   8.779
14399WAT     H243440   5.164   1.591   8.818
14400WAT      O43441   9.880   0.823   5.541
14400WAT     H143442   9.928   0.864   5.619
14400WAT     H243443   9.783   0.847   5.546
14401WAT      O43444   9.515   7.093   5.613
14401WAT     H143445   9.537   7.001   5.580
14401WAT     H243446   9.515   7.093   5.713
14402WAT      O43447   0.259   0.237   5.457
14402WAT     H143448   0.167   0.273   5.470
14402WAT     H243449   0.256   0.137   5.451
14403WAT      O43450   9.013   2.226   1.082
14403WAT     H143451   8.979   2.319   1.090
14403WAT     H243452   9.076   2.206   1.157
14404WAT      O43453   6.073   5.347   6.613
14404WAT     H143454   6.137   5.290   6.664
14404WAT     H243455   6.123   5.406   6.551
14405WAT      O43456   5.628   5.054   2.126
14405WAT     H143457   5.681   4.979   2.164
14405WAT     H243458   5.681   5.139   2.132
14406WAT      O43459   8.625   1.899   2.808
14406WAT     H143460   8.703   1.893   2.746
14406WAT     H243461   8.637   1.975   2.871
14407WAT      O43462   2.251   6.471   8.688
14407WAT     H143463   2.159   6.509   8.686
14407WAT     H243464   2.277   6.441   8.597
14408WAT      O43465   4.576   9.749   6.599
14408WAT     H143466   4.658   9.717   6.646
14408WAT     H243467   4.597   9.832   6.548
14409WAT      O43468   2.577   9.668   5.045
14409WAT     H143469   2.650   9.649   5.110
14409WAT     H243470   2.522   9.744   5.078
14410WAT      O43471   6.369   7.076   8.596
14410WAT     H143472   6.337   7.108   8.507
14410WAT     H243473   6.350   6.978   8.605
14411WAT      O43474   7.748   7.400   2.924
14411WAT     H143475   7.755   7.448   2.837
14411WAT     H243476   7.832   7.414   2.977
14412WAT      O43477   2.284   4.859   4.119
14412WAT     H143478   2.343   4.782   4.096
14412WAT     H243479   2.295   4.931   4.052
14413WAT      O43480   5.752   2.453   4.847
14413WAT     H143481   5.714   2.438   4.756
14413WAT     H243482   5.699   2.522   4.895
14414WAT      O43483   7.332   5.799   9.387
14414WAT     H143484   7.286   5.711   9.403
14414WAT     H243485   7.277   5.873   9.427
14415WAT      O43486   3.675   5.086   9.661
14415WAT     H143487   3.690   5.088   9.562
14415WAT     H243488   3.598   5.025   9.682
14416WAT      O43489   3.605   7.012   1.876
14416WAT     H143490   3.654   7.091   1.913
14416WAT     H243491   3.579   6.951   1.950
14417WAT      O43492   3.285   7.674   6.555
14417WAT     H143493   3.374   7.718   6.559
14417WAT     H243494   3.261   7.654   6.460
14418WAT      O43495   5.978   4.209   5.881
14418WAT     H143496   5.965   4.233   5.978
14418WAT     H243497   5.937   4.281   5.824
14419WAT      O43498   3.534   3.770   5.617
14419WAT     H143499   3.546   3.800   5.712
14419WAT     H243500   3.544   3.670   5.612
14420WAT      O43501   7.917   9.101   5.489
14420WAT     H143502   8.001   9.052   5.513
14420WAT     H243503   7.926   9.197   5.515
14421WAT      O43504   4.203   3.095   8.950
14421WAT     H143505   4.204   3.110   8.851
14421WAT     H243506   4.148   3.014   8.971
14422WAT      O43507   3.952   8.227   6.476
14422WAT     H143508   3.875   8.291   6.470
14422WAT     H243509   4.032   8.265   6.430
14423WAT      O43510   7.057   9.707   9.180
14423WAT     H143511   6.972   9.671   9.218
14423WAT     H243512   7.067   9.677   9.085
14424WAT      O43513   7.651   7.016   4.075
14424WAT     H143514   7.652   6.927   4.029
14424WAT     H243515   7.611   7.005   4.167
14425WAT      O43516   2.711   1.241   7.175
14425WAT     H143517   2.806   1.211   7.182
14425WAT     H243518   2.676   1.262   7.266
14426WAT      O43519   9.701   8.831   6.740
14426WAT     H143520   9.624   8.892   6.763
14426WAT     H243521   9.681   8.739   6.772
14427WAT      O43522   4.296   9.466   9.684
14427WAT     H143523   4.382   9.512   9.663
14427WAT     H243524   4.275   9.476   9.782
14428WAT      O43525   2.689   0.510   9.512
14428WAT     H143526   2.619   0.581   9.523
14428WAT     H243527   2.777   0.543   9.546
14429WAT      O43528   4.833   2.412   6.631
14429WAT     H143529   4.842   2.323   6.588
14429WAT     H243530   4.876   2.409   6.722
14430WAT      O43531   7.405   4.625   4.337
14430WAT     H143532   7.463   4.678   4.398
14430WAT     H243533   7.392   4.533   4.375
14431WAT      O43534   1.239   0.928   3.703
14431WAT     H143535   1.230   1.022   3.669
14431WAT     H243536   1.335   0.903   3.706
14432WAT      O43537   6.889   8.512   6.961
14432WAT     H143538   6.953   8.483   7.032
14432WAT     H243539   6.835   8.589   6.994
14433WAT      O43540   7.066   9.359   2.226
14433WAT     H143541   7.084   9.450   2.189
14433WAT     H243542   7.150   9.321   2.263
14434WAT      O43543   0.314   7.522   4.529
14434WAT     H143544   0.269   7.436   4.553
14434WAT     H243545   0.371   7.552   4.606
14435WAT      O43546   2.069   7.036   6.112
14435WAT     H143547   2.054   7.094   6.192
14435WAT     H243548   2.102   6.946   6.141
14436WAT      O43549   2.949   4.234   1.110
14436WAT     H143550   2.912   4.211   1.200
14436WAT     H243551   2.892   4.304   1.067
14437WAT      O43552   3.744   5.183   2.918
14437WAT     H143553   3.840   5.187   2.888
14437WAT     H243554   3.725   5.261   2.977
14438WAT      O43555   4.144   2.160   5.961
14438WAT     H143556   4.108   2.218   5.889
14438WAT     H243557   4.076   2.151   6.034
14439WAT      O43558   0.767   7.971   3.348
14439WAT     H143559   0.684   7.923   3.322
14439WAT     H243560   0.803   7.932   3.433
14440WAT      O43561   7.212   8.722   0.770
14440WAT     H143562   7.179   8.628   0.779
14440WAT     H243563   7.139   8.780   0.734
14441WAT      O43564   2.765   8.630   8.940
14441WAT     H143565   2.815   8.576   9.007
14441WAT     H243566   2.673   8.592   8.929
14442WAT      O43567   9.560   9.805   0.044
14442WAT     H143568   9.643   9.787  -0.009
14442WAT     H243569   9.570   9.766   0.136
14443WAT      O43570   0.530   2.340   5.631
14443WAT     H143571   0.460   2.410   5.644
14443WAT     H243572   0.616   2.384   5.603
14444WAT      O43573   3.598   4.151   5.028
14444WAT     H143574   3.645   4.092   4.962
14444WAT     H243575   3.665   4.211   5.072
14445WAT      O43576   1.393   1.396   2.641
14445WAT     H143577   1.438   1.467   2.587
14445WAT     H243578   1.332   1.438   2.708
14446WAT      O43579   2.195   4.089   5.727
14446WAT     H143580   2.163   4.176   5.687
14446WAT     H243581   2.226   4.028   5.654
14447WAT      O43582   2.944   1.258   8.745
14447WAT     H143583   2.987   1.168   8.759
14447WAT     H243584   2.850   1.254   8.778
14448WAT      O43585   8.836   4.944   3.737
14448WAT     H143586   8.808   5.039   3.745
14448WAT     H243587   8.762   4.884   3.768
14449WAT      O43588   5.982   9.472   7.816
14449WAT     H143589   5.976   9.494   7.914
14449WAT     H243590   5.891   9.449   7.782
14450WAT      O43591   2.448   7.885   0.617
14450WAT     H143592   2.376   7.886   0.686
14450WAT     H243593   2.522   7.947   0.644
14451WAT      O43594   6.963   6.754   3.885
14451WAT     H143595   6.900   6.696   3.833
14451WAT     H243596   6.968   6.722   3.980
14452WAT      O43597   7.361   5.701   4.424
14452WAT     H143598   7.430   5.681   4.494
14452WAT     H243599   7.281   5.641   4.438
14453WAT      O43600   8.932   4.536   0.032
14453WAT     H143601   8.845   4.525  -0.016
14453WAT     H243602   8.971   4.626   0.012
14454WAT      O43603   9.397   1.710   4.465
14454WAT     H143604   9.421   1.795   4.419
14454WAT     H243605   9.378   1.729   4.561
14455WAT      O43606   2.061   4.008   0.328
14455WAT     H143607   2.108   3.920   0.335
14455WAT     H243608   2.061   4.039   0.233
14456WAT      O43609   8.485   1.256   1.551
14456WAT     H143610   8.564   1.317   1.538
14456WAT     H243611   8.490   1.181   1.485
14457WAT      O43612   6.501   3.620   3.458
14457WAT     H143613   6.492   3.653   3.551
14457WAT     H243614   6.593   3.584   3.444
14458WAT      O43615   9.350   0.776   5.462
14458WAT     H143616   9.333   0.678   5.448
14458WAT     H243617   9.416   0.788   5.536
14459WAT      O43618   3.414   3.870   8.503
14459WAT     H143619   3.470   3.888   8.583
14459WAT     H243620   3.379   3.776   8.507
14460WAT      O43621   5.389   4.569   8.518
14460WAT     H143622   5.433   4.501   8.460
14460WAT     H243623   5.449   4.649   8.526
14461WAT      O43624   0.788   7.849   6.625
14461WAT     H143625   0.707   7.809   6.670
14461WAT     H243626   0.804   7.803   6.538
14462WAT      O43627   5.510   9.595   9.430
14462WAT     H143628   5.431   9.603   9.490
14462WAT     H243629   5.513   9.503   9.391
14463WAT      O43630   3.554   1.991   2.698
14463WAT     H143631   3.570   1.894   2.679
14463WAT     H243632   3.522   2.036   2.615
14464WAT      O43633   1.586   0.606   6.140
14464WAT     H143634   1.566   0.598   6.042
14464WAT     H243635   1.635   0.524   6.171
14465WAT      O43636   2.402   7.866   4.862
14465WAT     H143637   2.445   7.950   4.830
14465WAT     H243638   2.364   7.816   4.783
14466WAT      O43639   4.972   3.253   9.566
14466WAT     H143640   4.952   3.289   9.475
14466WAT     H243641   5.071   3.245   9.578
14467WAT      O43642   9.310   2.983   3.368
14467WAT     H143643   9.379   2.913   3.389
14467WAT     H243644   9.265   2.959   3.282
14468WAT      O43645   0.750   4.220   7.261
14468WAT     H143646   0.731   4.136   7.211
14468WAT     H243647   0.783   4.291   7.198
14469WAT      O43648   8.243   9.038   3.285
14469WAT     H143649   8.277   9.033   3.191
14469WAT     H243650   8.145   9.060   3.284
14470WAT      O43651   3.574   8.164   6.364
14470WAT     H143652   3.502   8.153   6.433
14470WAT     H243653   3.644   8.227   6.398
14471WAT      O43654   4.313   1.414   7.724
14471WAT     H143655   4.289   1.334   7.779
14471WAT     H243656   4.326   1.493   7.784
14472WAT      O43657   1.249   9.030   0.731
14472WAT     H143658   1.227   8.938   0.699
14472WAT     H243659   1.327   9.066   0.680
14473WAT      O43660   9.155   4.785   0.718
14473WAT     H143661   9.139   4.791   0.620
14473WAT     H243662   9.225   4.851   0.745
14474WAT      O43663   1.741   1.211   8.567
14474WAT     H143664   1.654   1.257   8.550
14474WAT     H243665   1.756   1.204   8.666
14475WAT      O43666   0.636   5.828   6.022
14475WAT     H143667   0.695   5.748   6.035
14475WAT     H243668   0.540   5.800   6.030
14476WAT      O43669   3.409   4.370   2.264
14476WAT     H143670   3.462   4.363   2.349
14476WAT     H243671   3.470   4.394   2.189
14477WAT      O43672   8.275   0.099   1.467
14477WAT     H143673   8.356   0.154   1.448
14477WAT     H243674   8.286   0.009   1.426
14478WAT      O43675   2.776   2.199   3.228
14478WAT     H143676   2.856   2.140   3.239
14478WAT     H243677   2.765   2.221   3.131
14479WAT      O43678   7.501   4.958   0.722
14479WAT     H143679   7.553   4.995   0.645
14479WAT     H243680   7.437   4.889   0.689
14480WAT      O43681   0.852   7.332   8.686
14480WAT     H143682   0.896   7.326   8.776
14480WAT     H243683   0.853   7.242   8.643
14481WAT      O43684   2.424   1.142   5.337
14481WAT     H143685   2.521   1.140   5.312
14481WAT     H243686   2.368   1.135   5.255
14482WAT      O43687   0.793   0.013   2.783
14482WAT     H143688   0.805   0.098   2.834
14482WAT     H243689   0.699  -0.019   2.794
14483WAT      O43690   3.273   6.045   7.817
14483WAT     H143691   3.221   5.976   7.867
14483WAT     H243692   3.220   6.129   7.809
14484WAT      O43693   6.826   4.360   1.045
14484WAT     H143694   6.752   4.371   0.979
14484WAT     H243695   6.894   4.431   1.030
14485WAT      O43696   4.111   1.162   1.555
14485WAT     H143697   4.134   1.093   1.487
14485WAT     H243698   4.135   1.253   1.520
14486WAT      O43699   1.175   0.566   7.668
14486WAT     H143700   1.184   0.655   7.622
14486WAT     H243701   1.079   0.547   7.686
14487WAT      O43702   1.621   2.950   5.802
14487WAT     H143703   1.610   2.863   5.753
14487WAT     H243704   1.700   2.946   5.862
14488WAT      O43705   7.664   4.183   7.817
14488WAT     H143706   7.613   4.106   7.854
14488WAT     H243707   7.604   4.263   7.811
14489WAT      O43708   4.718   7.979   0.467
14489WAT     H143709   4.805   7.950   0.426
14489WAT     H243710   4.702   8.076   0.446
14490WAT      O43711   1.002   2.560   0.183
14490WAT     H143712   1.083   2.580   0.128
14490WAT     H243713   0.952   2.484   0.141
14491WAT      O43714   6.242   2.988   6.103
14491WAT     H143715   6.314   3.049   6.071
14491WAT     H243716   6.162   2.995   6.044
14492WAT      O43717   5.599   9.028   7.770
14492WAT     H143718   5.631   9.104   7.826
14492WAT     H243719   5.527   8.979   7.819
14493WAT      O43720   2.394   9.076   7.753
14493WAT     H143721   2.346   9.112   7.833
14493WAT     H243722   2.327   9.053   7.682
14494WAT      O43723   0.174   0.187   6.878
14494WAT     H143724   0.102   0.133   6.920
14494WAT     H243725   0.200   0.147   6.790
14495WAT      O43726   8.202   3.357   8.199
14495WAT     H143727   8.143   3.333   8.276
14495WAT     H243728   8.290   3.389   8.234
14496WAT      O43729   6.939   3.454   5.093
14496WAT     H143730   6.888   3.384   5.143
14496WAT     H243731   6.876   3.523   5.059
14497WAT      O43732   9.394   7.710   2.425
14497WAT     H143733   9.361   7.617   2.435
14497WAT     H243734   9.465   7.729   2.493
14498WAT      O43735   7.690   2.375   3.955
14498WAT     H143736   7.685   2.464   3.910
14498WAT     H243737   7.601   2.353   3.995
14499WAT      O43738   1.983   3.300   0.805
14499WAT     H143739   2.043   3.230   0.843
14499WAT     H243740   1.984   3.295   0.706
14500WAT      O43741   0.701   6.433   3.053
14500WAT     H143742   0.714   6.533   3.055
14500WAT     H243743   0.784   6.388   3.084
14501WAT      O43744   6.688   0.471   7.294
14501WAT     H143745   6.717   0.379   7.322
14501WAT     H243746   6.703   0.482   7.196
14502WAT      O43747   4.338   4.098   8.659
14502WAT     H143748   4.436   4.075   8.657
14502WAT     H243749   4.285   4.015   8.674
14503WAT      O43750   8.844   5.823   6.837
14503WAT     H143751   8.872   5.754   6.904
14503WAT     H243752   8.918   5.890   6.825
14504WAT      O43753   1.731   4.702   4.057
14504WAT     H143754   1.657   4.655   4.009
14504WAT     H243755   1.760   4.781   4.004
14505WAT      O43756   1.716   5.196   8.095
14505WAT     H143757   1.642   5.128   8.094
14505WAT     H243758   1.700   5.262   8.022
14506WAT      O43759   6.402   0.055   9.310
14506WAT     H143760   6.397   0.024   9.405
14506WAT     H243761   6.399   0.155   9.308
14507WAT      O43762   7.660   7.050   0.611
14507WAT     H143763   7.747   7.032   0.656
14507WAT     H243764   7.629   7.142   0.633
14508WAT      O43765   5.838   6.208   3.357
14508WAT     H143766   5.825   6.191   3.259
14508WAT     H243767   5.749   6.206   3.403
14509WAT      O43768   5.759   6.178   1.882
14509WAT     H143769   5.731   6.272   1.860
14509WAT     H243770   5.769   6.168   1.981
14510WAT      O43771   1.058   2.819   8.118
14510WAT     H143772   1.080   2.722   8.119
14510WAT     H243773   1.132   2.869   8.073
14511WAT      O43774   0.942   8.123   9.474
14511WAT     H143775   0.996   8.206   9.485
14511WAT     H243776   0.961   8.082   9.385
14512WAT      O43777   3.834   4.476   2.561
14512WAT     H143778   3.875   4.501   2.473
14512WAT     H243779   3.849   4.550   2.627
14513WAT      O43780   5.478   0.716   8.070
14513WAT     H143781   5.492   0.790   8.004
14513WAT     H243782   5.560   0.660   8.076
14514WAT      O43783   1.452   9.241   2.439
14514WAT     H143784   1.373   9.299   2.416
14514WAT     H243785   1.422   9.165   2.496
14515WAT      O43786  -0.003   0.809   7.153
14515WAT     H143787   0.049   0.752   7.217
14515WAT     H243788   0.047   0.893   7.135
14516WAT      O43789   0.453   7.468   7.838
14516WAT     H143790   0.492   7.462   7.930
14516WAT     H243791   0.415   7.559   7.824
14517WAT      O43792   5.939   2.805   4.990
14517WAT     H143793   5.940   2.902   4.964
14517WAT     H243794   6.020   2.785   5.045
14518WAT      O43795   6.865   6.474   9.059
14518WAT     H143796   6.900   6.387   9.025
14518WAT     H243797   6.887   6.484   9.156
14519WAT      O43798   7.874   3.346   3.390
14519WAT     H143799   7.964   3.375   3.358
14519WAT     H243800   7.858   3.382   3.482
14520WAT      O43801   8.387   2.263   3.537
14520WAT     H143802   8.472   2.299   3.575
14520WAT     H243803   8.314   2.330   3.547
14521WAT      O43804   1.521   1.506   7.634
14521WAT     H143805   1.523   1.559   7.549
14521WAT     H243806   1.482   1.415   7.615
14522WAT      O43807   5.711   0.571   9.653
14522WAT     H143808   5.722   0.615   9.564
14522WAT     H243809   5.768   0.618   9.720
14523WAT      O43810   0.138   9.025   1.287
14523WAT     H143811   0.112   9.111   1.329
14523WAT     H243812   0.129   9.033   1.187
14524WAT      O43813   1.704   4.494   1.933
14524WAT     H143814   1.788   4.526   1.890
14524WAT     H243815   1.654   4.436   1.869
14525WAT      O43816   3.257   4.714   9.074
14525WAT     H143817   3.328   4.645   9.059
14525WAT     H243818   3.261   4.782   9.000
14526WAT      O43819   7.070   2.638   6.681
14526WAT     H143820   7.016   2.583   6.619
14526WAT     H243821   7.116   2.579   6.748
14527WAT      O43822   6.152   7.090   0.068
14527WAT     H143823   6.148   7.131   0.159
14527WAT     H243824   6.223   7.134   0.014
14528WAT      O43825   5.130   8.030   4.923
14528WAT     H143826   5.080   8.117   4.928
14528WAT     H243827   5.134   7.988   5.013
14529WAT      O43828   1.217   9.056   3.680
14529WAT     H143829   1.149   9.027   3.747
14529WAT     H243830   1.305   9.071   3.725
14530WAT      O43831   1.808   8.723   7.639
14530WAT     H143832   1.854   8.811   7.631
14530WAT     H243833   1.825   8.668   7.557
14531WAT      O43834   1.590   7.601   9.621
14531WAT     H143835   1.678   7.648   9.618
14531WAT     H243836   1.516   7.668   9.624
14532WAT      O43837   0.237   8.975   9.359
14532WAT     H143838   0.157   8.976   9.419
14532WAT     H243839   0.208   8.984   9.264
14533WAT      O43840   0.795   9.672   8.143
14533WAT     H143841   0.853   9.754   8.143
14533WAT     H243842   0.713   9.689   8.088
14534WAT      O43843   5.096   2.138   5.112
14534WAT     H143844   5.161   2.092   5.174
14534WAT     H243845   5.053   2.070   5.052
14535WAT      O43846   4.768   6.560   9.602
14535WAT     H143847   4.782   6.496   9.527
14535WAT     H243848   4.688   6.617   9.584
14536WAT      O43849   9.826   7.151   1.455
14536WAT     H143850   9.878   7.236   1.457
14536WAT     H243851   9.729   7.171   1.470
14537WAT      O43852   9.137   7.710   6.711
14537WAT     H143853   9.168   7.664   6.794
14537WAT     H243854   9.040   7.733   6.720
14538WAT      O43855   8.803   0.636   7.651
14538WAT     H143856   8.889   0.593   7.677
14538WAT     H243857   8.726   0.585   7.690
14539WAT      O43858   8.863   7.859   9.295
14539WAT     H143859   8.797   7.892   9.362
14539WAT     H243860   8.830   7.879   9.203
14540WAT      O43861   7.454   8.328   7.744
14540WAT     H143862   7.463   8.284   7.655
14540WAT     H243863   7.497   8.418   7.741
14541WAT      O43864   5.891   3.761   9.584
14541WAT     H143865   5.899   3.665   9.554
14541WAT     H243866   5.861   3.763   9.679
14542WAT      O43867   3.869   0.986   7.129
14542WAT     H143868   3.954   0.996   7.182
14542WAT     H243869   3.844   1.075   7.089
14543WAT      O43870   6.807   1.843   0.749
14543WAT     H143871   6.714   1.822   0.719
14543WAT     H243872   6.808   1.934   0.792
14544WAT      O43873   7.254   7.774   7.334
14544WAT     H143874   7.178   7.711   7.346
14544WAT     H243875   7.218   7.866   7.315
14545WAT      O43876   5.566   4.184   5.538
14545WAT     H143877   5.600   4.159   5.628
14545WAT     H243878   5.468   4.203   5.543
14546WAT      O43879   9.022   2.073   7.720
14546WAT     H143880   9.076   2.150   7.686
14546WAT     H243881   8.935   2.068   7.670
14547WAT      O43882   3.509   6.425   5.979
14547WAT     H143883   3.418   6.466   5.986
14547WAT     H243884   3.504   6.346   5.918
14548WAT      O43885   4.695   9.455   2.365
14548WAT     H143886   4.731   9.408   2.285
14548WAT     H243887   4.628   9.397   2.411
14549WAT      O43888   6.237   4.598   1.796
14549WAT     H143889   6.333   4.601   1.768
14549WAT     H243890   6.179   4.605   1.715
14550WAT      O43891   6.943   7.476   6.768
14550WAT     H143892   7.037   7.445   6.780
14550WAT     H243893   6.941   7.548   6.698
14551WAT      O43894   6.195   8.877   1.562
14551WAT     H143895   6.286   8.917   1.550
14551WAT     H243896   6.132   8.947   1.594
14552WAT      O43897   3.596   5.122   6.306
14552WAT     H143898   3.551   5.063   6.374
14552WAT     H243899   3.604   5.072   6.220
14553WAT      O43900   0.500   3.977   3.919
14553WAT     H143901   0.412   3.974   3.967
14553WAT     H243902   0.483   3.984   3.821
14554WAT      O43903   8.610   4.581   2.880
14554WAT     H143904   8.706   4.562   2.860
14554WAT     H243905   8.586   4.545   2.970
14555WAT      O43906   3.064   6.995   7.074
14555WAT     H143907   3.055   7.057   7.153
14555WAT     H243908   3.019   6.909   7.095
14556WAT      O43909   6.025   1.234   2.351
14556WAT     H143910   5.990   1.318   2.393
14556WAT     H243911   5.957   1.199   2.287
14557WAT      O43912   0.009   9.253   1.919
14557WAT     H143913  -0.028   9.229   2.008
14557WAT     H243914  -0.066   9.267   1.854
14558WAT      O43915   0.311   2.958   6.611
14558WAT     H143916   0.355   3.039   6.652
14558WAT     H243917   0.315   2.965   6.512
14559WAT      O43918   6.446   8.791   8.653
14559WAT     H143919   6.500   8.707   8.663
14559WAT     H243920   6.506   8.867   8.629
14560WAT      O43921   2.831   8.796   9.314
14560WAT     H143922   2.855   8.715   9.259
14560WAT     H243923   2.852   8.878   9.261
14561WAT      O43924   9.075   0.640   5.232
14561WAT     H143925   9.112   0.560   5.279
14561WAT     H243926   9.131   0.661   5.153
14562WAT      O43927   7.239   2.301   4.990
14562WAT     H143928   7.305   2.345   4.929
14562WAT     H243929   7.286   2.264   5.069
14563WAT      O43930   6.038   3.001   6.402
14563WAT     H143931   6.071   3.094   6.385
14563WAT     H243932   5.950   3.005   6.449
14564WAT      O43933   9.198   1.404   2.775
14564WAT     H143934   9.192   1.316   2.727
14564WAT     H243935   9.106   1.438   2.793
14565WAT      O43936   5.981   5.768   6.010
14565WAT     H143937   5.902   5.826   6.030
14565WAT     H243938   5.950   5.677   5.984
14566WAT      O43939   5.340   2.326   5.968
14566WAT     H143940   5.282   2.344   5.889
14566WAT     H243941   5.412   2.396   5.972
14567WAT      O43942   0.882   4.146   1.023
14567WAT     H143943   0.842   4.094   0.947
14567WAT     H243944   0.928   4.227   0.986
14568WAT      O43945   6.705   3.260   7.814
14568WAT     H143946   6.763   3.239   7.892
14568WAT     H243947   6.615   3.217   7.827
14569WAT      O43948   3.170   4.418   5.006
14569WAT     H143949   3.164   4.508   4.962
14569WAT     H243950   3.226   4.357   4.950
14570WAT      O43951   7.867   1.693   9.741
14570WAT     H143952   7.812   1.768   9.704
14570WAT     H243953   7.852   1.611   9.687
14571WAT      O43954   1.124   9.654   1.065
14571WAT     H143955   1.082   9.563   1.072
14571WAT     H243956   1.066   9.720   1.113
14572WAT      O43957   0.273   0.195   2.353
14572WAT     H143958   0.276   0.295   2.358
14572WAT     H243959   0.349   0.161   2.297
14573WAT      O43960   8.380   3.047   5.339
14573WAT     H143961   8.424   2.966   5.377
14573WAT     H243962   8.301   3.019   5.284
14574WAT      O43963   0.782   4.737   0.821
14574WAT     H143964   0.842   4.746   0.741
14574WAT     H243965   0.698   4.789   0.805
14575WAT      O43966   6.148   2.422   0.837
14575WAT     H143967   6.177   2.512   0.868
14575WAT     H243968   6.192   2.400   0.750
14576WAT      O43969   7.972   2.203   1.079
14576WAT     H143970   8.046   2.260   1.114
14576WAT     H243971   7.886   2.230   1.123
14577WAT      O43972   0.132   2.350   3.927
14577WAT     H143973   0.116   2.308   3.838
14577WAT     H243974   0.092   2.442   3.928
14578WAT      O43975   8.707   9.579   9.589
14578WAT     H143976   8.754   9.492   9.604
14578WAT     H243977   8.670   9.612   9.676
14579WAT      O43978   6.711   5.636   8.280
14579WAT     H143979   6.635   5.678   8.329
14579WAT     H243980   6.794   5.688   8.297
14580WAT      O43981   1.058   0.205   8.878
14580WAT     H143982   1.019   0.133   8.822
14580WAT     H243983   1.153   0.183   8.899
14581WAT      O43984   0.656   8.055   2.200
14581WAT     H143985   0.721   7.993   2.244
14581WAT     H243986   0.702   8.141   2.176
14582WAT      O43987   9.225   7.231   3.716
14582WAT     H143988   9.203   7.133   3.721
14582WAT     H243989   9.316   7.242   3.676
14583WAT      O43990   0.902   3.352   4.770
14583WAT     H143991   0.971   3.348   4.698
14583WAT     H243992   0.840   3.274   4.762
14584WAT      O43993   2.930   8.791   3.049
14584WAT     H143994   3.004   8.738   3.008
14584WAT     H243995   2.916   8.875   2.996
14585WAT      O43996   8.013   0.706   8.426
14585WAT     H143997   8.088   0.647   8.458
14585WAT     H243998   7.955   0.655   8.363
14586WAT      O43999   3.182   0.537   8.893
14586WAT     H144000   3.226   0.456   8.932
14586WAT     H244001   3.099   0.510   8.844
14587WAT      O44002   4.493   8.405   6.974
14587WAT     H144003   4.431   8.330   6.993
14587WAT     H244004   4.584   8.384   7.011
14588WAT      O44005   5.806   4.119   3.392
14588WAT     H144006   5.810   4.021   3.370
14588WAT     H244007   5.755   4.130   3.478
14589WAT      O44008   6.764   1.622   1.879
14589WAT     H144009   6.761   1.722   1.885
14589WAT     H244010   6.673   1.585   1.896
14590WAT      O44011   4.005   0.722   9.486
14590WAT     H144012   4.065   0.671   9.425
14590WAT     H244013   4.005   0.818   9.461
14591WAT      O44014   7.348   2.748   5.092
14591WAT     H144015   7.445   2.771   5.085
14591WAT     H244016   7.314   2.722   5.002
14592WAT      O44017   5.353   8.647   5.472
14592WAT     H144018   5.371   8.742   5.499
14592WAT     H244019   5.255   8.633   5.466
14593WAT      O44020   3.476   1.265   8.618
14593WAT     H144021   3.376   1.254   8.616
14593WAT     H244022   3.515   1.194   8.676
14594WAT      O44023   2.518   7.468   4.795
14594WAT     H144024   2.549   7.381   4.757
14594WAT     H244025   2.595   7.516   4.837
14595WAT      O44026   9.765   9.120   0.041
14595WAT     H144027   9.830   9.140  -0.032
14595WAT     H244028   9.740   9.023   0.038
14596WAT      O44029   3.569   4.497   0.975
14596WAT     H144030   3.496   4.454   0.922
14596WAT     H244031   3.617   4.563   0.917
14597WAT      O44032   6.225   0.131   3.881
14597WAT     H144033   6.199   0.051   3.827
14597WAT     H244034   6.142   0.178   3.912
14598WAT      O44035   9.454   4.499   5.285
14598WAT     H144036   9.518   4.457   5.349
14598WAT     H244037   9.450   4.445   5.201
14599WAT      O44038   2.766   7.809   2.626
14599WAT     H144039   2.845   7.790   2.685
14599WAT     H244040   2.682   7.799   2.680
14600WAT      O44041   1.927   4.877   6.560
14600WAT     H144042   1.874   4.933   6.496
14600WAT     H244043   1.980   4.810   6.509
14601WAT      O44044   9.694   6.680   4.810
14601WAT     H144045   9.683   6.591   4.764
14601WAT     H244046   9.606   6.708   4.849
14602WAT      O44047   1.260   4.947   6.627
14602WAT     H144048   1.184   4.900   6.671
14602WAT     H244049   1.236   5.043   6.613
14603WAT      O44050   0.690   7.027   5.669
14603WAT     H144051   0.647   6.946   5.710
14603WAT     H244052   0.619   7.085   5.629
14604WAT      O44053   0.675   4.909   8.081
14604WAT     H144054   0.745   4.902   8.152
14604WAT     H244055   0.609   4.834   8.091
14605WAT      O44056   7.518   3.267   1.120
14605WAT     H144057   7.584   3.215   1.174
14605WAT     H244058   7.534   3.250   1.023
14606WAT      O44059   2.841   6.695   4.078
14606WAT     H144060   2.911   6.654   4.136
14606WAT     H244061   2.780   6.752   4.133
14607WAT      O44062   5.394   9.697   1.576
14607WAT     H144063   5.295   9.692   1.578
14607WAT     H244064   5.433   9.608   1.599
14608WAT      O44065   2.490   4.334   8.350
14608WAT     H144066   2.538   4.308   8.434
14608WAT     H244067   2.524   4.422   8.319
14609WAT      O44068   7.954   5.975   1.525
14609WAT     H144069   7.971   5.902   1.458
14609WAT     H244070   7.870   5.956   1.575
14610WAT      O44071   7.430   5.955   3.235
14610WAT     H144072   7.523   5.970   3.200
14610WAT     H244073   7.421   5.996   3.325
14611WAT      O44074   4.544   0.631   3.778
14611WAT     H144075   4.501   0.542   3.761
14611WAT     H244076   4.643   0.621   3.776
14612WAT      O44077   1.330   0.157   0.937
14612WAT     H144078   1.261   0.230   0.939
14612WAT     H244079   1.314   0.098   0.858
14613WAT      O44080   2.945   8.262   5.681
14613WAT     H144081   2.995   8.176   5.689
14613WAT     H244082   3.001   8.329   5.632
14614WAT      O44083   3.435   1.771   7.279
14614WAT     H144084   3.376   1.820   7.215
14614WAT     H244085   3.514   1.827   7.302
14615WAT      O44086   2.043   2.086   5.050
14615WAT     H144087   1.988   2.041   5.121
14615WAT     H244088   2.136   2.101   5.086
14616WAT      O44089   4.432   1.142   5.596
14616WAT     H144090   4.371   1.081   5.648
14616WAT     H244091   4.448   1.104   5.505
14617WAT      O44092   6.216   1.912   8.626
14617WAT     H144093   6.176   1.997   8.662
14617WAT     H244094   6.191   1.836   8.686
14618WAT      O44095   8.533   8.274   2.826
14618WAT     H144096   8.618   8.224   2.812
14618WAT     H244097   8.465   8.245   2.758
14619WAT      O44098   5.916   0.851   6.038
14619WAT     H144099   5.998   0.839   5.982
14619WAT     H244100   5.855   0.773   6.024
14620WAT      O44101   9.140   3.607   9.723
14620WAT     H144102   9.124   3.511   9.744
14620WAT     H244103   9.210   3.643   9.786
14621WAT      O44104   9.640   4.470   7.290
14621WAT     H144105   9.729   4.423   7.291
14621WAT     H244106   9.581   4.431   7.361
14622WAT      O44107   8.697   0.649   3.075
14622WAT     H144108   8.731   0.675   3.165
14622WAT     H244109   8.773   0.618   3.018
14623WAT      O44110   0.123   3.562   9.160
14623WAT     H144111   0.075   3.619   9.227
14623WAT     H244112   0.220   3.559   9.183
14624WAT      O44113   7.133   6.053   8.640
14624WAT     H144114   7.154   6.006   8.726
14624WAT     H244115   7.187   6.014   8.566
14625WAT      O44116   8.624   3.297   5.694
14625WAT     H144117   8.596   3.201   5.700
14625WAT     H244118   8.566   3.352   5.754
14626WAT      O44119   5.732   1.360   0.894
14626WAT     H144120   5.824   1.380   0.861
14626WAT     H244121   5.681   1.314   0.822
14627WAT      O44122   7.730   7.362   4.077
14627WAT     H144123   7.710   7.318   4.165
14627WAT     H244124   7.829   7.372   4.067
14628WAT      O44125   0.740   7.842   2.568
14628WAT     H144126   0.641   7.853   2.576
14628WAT     H244127   0.786   7.921   2.609
14629WAT      O44128   6.510   7.897   0.675
14629WAT     H144129   6.556   7.947   0.749
14629WAT     H244130   6.515   7.951   0.591
14630WAT      O44131   0.187   9.259   3.991
14630WAT     H144132   0.228   9.197   4.059
14630WAT     H244133   0.123   9.207   3.934
14631WAT      O44134   9.481   9.224   7.375
14631WAT     H144135   9.384   9.249   7.372
14631WAT     H244136   9.512   9.199   7.283
14632WAT      O44137   6.567   7.265   6.779
14632WAT     H144138   6.560   7.350   6.725
14632WAT     H244139   6.657   7.225   6.764
14633WAT      O44140   4.580   0.041   7.804
14633WAT     H144141   4.659  -0.000   7.758
14633WAT     H244142   4.502  -0.021   7.798
14634WAT      O44143   2.025   5.161   1.943
14634WAT     H144144   2.123   5.164   1.964
14634WAT     H244145   1.974   5.208   2.015
14635WAT      O44146   4.037   9.674   2.561
14635WAT     H144147   3.978   9.754   2.556
14635WAT     H244148   4.132   9.701   2.544
14636WAT      O44149   5.495   6.312   8.507
14636WAT     H144150   5.483   6.310   8.606
14636WAT     H244151   5.406   6.305   8.462
14637WAT      O44152   9.124   8.542   3.519
14637WAT     H144153   9.169   8.470   3.572
14637WAT     H244154   9.039   8.568   3.564
14638WAT      O44155   1.227   8.758   0.728
14638WAT     H144156   1.292   8.746   0.802
14638WAT     H244157   1.151   8.694   0.740
14639WAT      O44158   8.741   8.055   3.245
14639WAT     H144159   8.776   8.009   3.327
14639WAT     H244160   8.711   8.147   3.268
14640WAT      O44161   1.950   8.310   5.747
14640WAT     H144162   2.032   8.302   5.690
14640WAT     H244163   1.977   8.321   5.843
14641WAT      O44164   7.674   6.969   2.672
14641WAT     H144165   7.699   7.065   2.678
14641WAT     H244166   7.646   6.947   2.579
14642WAT      O44167   1.306   9.263   8.570
14642WAT     H144168   1.320   9.351   8.615
14642WAT     H244169   1.218   9.264   8.522
14643WAT      O44170   7.382   2.154   8.074
14643WAT     H144171   7.379   2.159   7.974
14643WAT     H244172   7.327   2.077   8.105
14644WAT      O44173   8.167   8.773   9.279
14644WAT     H144174   8.116   8.840   9.225
14644WAT     H244175   8.140   8.780   9.375
14645WAT      O44176   6.509   3.029   5.270
14645WAT     H144177   6.490   2.959   5.202
14645WAT     H244178   6.461   3.113   5.246
14646WAT      O44179   0.578   1.651   6.104
14646WAT     H144180   0.663   1.692   6.072
14646WAT     H244181   0.509   1.722   6.119
14647WAT      O44182   6.209   4.423   8.173
14647WAT     H144183   6.173   4.484   8.103
14647WAT     H244184   6.134   4.373   8.216
14648WAT      O44185   4.036   2.565   7.758
14648WAT     H144186   4.083   2.624   7.824
14648WAT     H244187   3.999   2.620   7.684
14649WAT      O44188   9.753   4.042   7.882
14649WAT     H144189   9.837   4.007   7.843
14649WAT     H244190   9.726   3.986   7.961
14650WAT      O44191   9.523   6.714   0.972
14650WAT     H144192   9.452   6.766   1.021
14650WAT     H244193   9.605   6.708   1.029
14651WAT      O44194   2.426   3.977   3.179
14651WAT     H144195   2.474   3.894   3.151
14651WAT     H244196   2.493   4.047   3.206
14652WAT      O44197   5.637   8.324   9.378
14652WAT     H144198   5.539   8.332   9.359
14652WAT     H244199   5.676   8.252   9.320
14653WAT      O44200   4.421   1.800   8.660
14653WAT     H144201   4.487   1.782   8.588
14653WAT     H244202   4.442   1.888   8.703
14654WAT      O44203   1.599   8.462   7.945
14654WAT     H144204   1.536   8.421   8.011
14654WAT     H244205   1.548   8.523   7.885
14655WAT      O44206   1.549   1.304   3.396
14655WAT     H144207   1.633   1.263   3.362
14655WAT     H244208   1.569   1.395   3.433
14656WAT      O44209   4.908   8.259   2.640
14656WAT     H144210   4.881   8.338   2.695
14656WAT     H244211   4.973   8.202   2.692
14657WAT      O44212   0.997   6.109   7.656
14657WAT     H144213   1.075   6.097   7.718
14657WAT     H244214   0.969   6.205   7.655
14658WAT      O44215   6.693   7.883   4.156
14658WAT     H144216   6.718   7.786   4.161
14658WAT     H244217   6.763   7.933   4.105
14659WAT      O44218   5.300   1.147   2.069
14659WAT     H144219   5.356   1.228   2.081
14659WAT     H244220   5.356   1.072   2.033
14660WAT      O44221   7.234   6.163   6.805
14660WAT     H144222   7.284   6.108   6.738
14660WAT     H244223   7.296   6.193   6.877
14661WAT      O44224   8.902   1.463   4.948
14661WAT     H144225   8.819   1.515   4.967
14661WAT     H244226   8.878   1.369   4.923
14662WAT      O44227   4.377   7.708   0.684
14662WAT     H144228   4.378   7.649   0.603
14662WAT     H244229   4.440   7.784   0.669
14663WAT      O44230   4.426   7.998   6.845
14663WAT     H144231   4.370   8.007   6.763
14663WAT     H244232   4.392   7.922   6.901
14664WAT      O44233   0.849   5.070   6.310
14664WAT     H144234   0.924   5.120   6.354
14664WAT     H244235   0.766   5.080   6.365
14665WAT      O44236   2.496   9.179   6.727
14665WAT     H144237   2.408   9.130   6.734
14665WAT     H244238   2.504   9.243   6.804
14666WAT      O44239   0.137   7.697   3.935
14666WAT     H144240   0.082   7.662   4.011
14666WAT     H244241   0.077   7.732   3.863
14667WAT      O44242   5.338   5.861   2.593
14667WAT     H144243   5.352   5.796   2.667
14667WAT     H244244   5.248   5.903   2.602
14668WAT      O44245   8.861   0.400   9.555
14668WAT     H144246   8.808   0.319   9.528
14668WAT     H244247   8.918   0.430   9.478
14669WAT      O44248   7.426   6.341   8.861
14669WAT     H144249   7.372   6.423   8.876
14669WAT     H244250   7.404   6.273   8.932
14670WAT      O44251   0.865   7.684   6.405
14670WAT     H144252   0.783   7.631   6.381
14670WAT     H244253   0.941   7.656   6.346
14671WAT      O44254   8.779   0.486   2.826
14671WAT     H144255   8.691   0.529   2.806
14671WAT     H244256   8.842   0.503   2.750
14672WAT      O44257   4.671   5.010   6.861
14672WAT     H144258   4.739   4.999   6.934
14672WAT     H244259   4.675   5.103   6.826
14673WAT      O44260   2.882   5.382   9.771
14673WAT     H144261   2.946   5.414   9.702
14673WAT     H244262   2.833   5.460   9.811
14674WAT      O44263   2.433   6.461   1.181
14674WAT     H144264   2.528   6.435   1.165
14674WAT     H244265   2.376   6.430   1.105
14675WAT      O44266   0.449   4.370   0.313
14675WAT     H144267   0.504   4.286   0.307
14675WAT     H244268   0.495   4.436   0.373
14676WAT      O44269   1.308   5.896   3.805
14676WAT     H144270   1.373   5.971   3.799
14676WAT     H244271   1.341   5.828   3.870
14677WAT      O44272   4.615   2.139   0.118
14677WAT     H144273   4.658   2.072   0.178
14677WAT     H244274   4.684   2.205   0.087
14678WAT      O44275   7.263   8.514   2.257
14678WAT     H144276   7.315   8.449   2.313
14678WAT     H244277   7.315   8.600   2.250
14679WAT      O44278   8.599   9.327   8.386
14679WAT     H144279   8.636   9.409   8.343
14679WAT     H244280   8.668   9.288   8.448
14680WAT      O44281   7.263   4.109   4.501
14680WAT     H144282   7.200   4.086   4.427
14680WAT     H244283   7.277   4.029   4.558
14681WAT      O44284   7.809   5.216   7.668
14681WAT     H144285   7.776   5.168   7.749
14681WAT     H244286   7.909   5.211   7.664
14682WAT      O44287   0.328   9.341   7.241
14682WAT     H144288   0.343   9.405   7.316
14682WAT     H244289   0.232   9.343   7.213
14683WAT      O44290   4.368   1.953   2.406
14683WAT     H144291   4.455   1.904   2.403
14683WAT     H244292   4.343   1.981   2.313
14684WAT      O44293   4.785   5.408   8.177
14684WAT     H144294   4.799   5.309   8.170
14684WAT     H244295   4.851   5.455   8.120
14685WAT      O44296   5.299   0.292   2.689
14685WAT     H144297   5.386   0.339   2.706
14685WAT     H244298   5.280   0.229   2.764
14686WAT      O44299   3.709   4.043   3.970
14686WAT     H144300   3.666   3.960   4.005
14686WAT     H244301   3.781   4.072   4.033
14687WAT      O44302   1.259   1.723   3.104
14687WAT     H144303   1.262   1.731   3.004
14687WAT     H244304   1.281   1.629   3.130
14688WAT      O44305   2.265   4.757   7.976
14688WAT     H144306   2.309   4.831   8.028
14688WAT     H244307   2.333   4.687   7.954
14689WAT      O44308   5.844   4.737   9.528
14689WAT     H144309   5.891   4.794   9.461
14689WAT     H244310   5.895   4.740   9.615
14690WAT      O44311   9.141   3.557   2.660
14690WAT     H144312   9.101   3.465   2.657
14690WAT     H244313   9.069   3.625   2.670
14691WAT      O44314   6.496   9.260   3.186
14691WAT     H144315   6.447   9.318   3.252
14691WAT     H244316   6.591   9.290   3.180
14692WAT      O44317   2.809   0.235   1.281
14692WAT     H144318   2.777   0.328   1.296
14692WAT     H244319   2.731   0.173   1.282
14693WAT      O44320   4.262   6.029   9.772
14693WAT     H144321   4.293   6.100   9.835
14693WAT     H244322   4.170   5.999   9.798
14694WAT      O44323   1.977   1.024   9.054
14694WAT     H144324   1.914   0.946   9.057
14694WAT     H244325   1.934   1.099   9.005
14695WAT      O44326   8.310   1.565   1.980
14695WAT     H144327   8.408   1.548   1.975
14695WAT     H244328   8.275   1.535   2.069
14696WAT      O44329   1.826   7.724   9.076
14696WAT     H144330   1.838   7.627   9.055
14696WAT     H244331   1.733   7.752   9.054
14697WAT      O44332   9.318   3.349   4.943
14697WAT     H144333   9.395   3.303   4.986
14697WAT     H244334   9.343   3.376   4.850
14698WAT      O44335   7.070   1.744   5.591
14698WAT     H144336   7.083   1.837   5.626
14698WAT     H244337   7.158   1.699   5.580
14699WAT      O44338   9.543   8.930   6.332
14699WAT     H144339   9.552   8.842   6.286
14699WAT     H244340   9.625   8.948   6.386
14700WAT      O44341   6.270   4.414   2.605
14700WAT     H144342   6.301   4.396   2.698
14700WAT     H244343   6.278   4.512   2.585
14701WAT      O44344   7.578   6.681   8.056
14701WAT     H144345   7.641   6.736   8.110
14701WAT     H244346   7.621   6.655   7.970
14702WAT      O44347   6.650   2.674   1.156
14702WAT     H144348   6.722   2.614   1.120
14702WAT     H244349   6.561   2.646   1.120
14703WAT      O44350   8.717   0.336   6.918
14703WAT     H144351   8.801   0.342   6.973
14703WAT     H244352   8.682   0.242   6.922
14704WAT      O44353   4.917   1.557   4.344
14704WAT     H144354   4.824   1.593   4.351
14704WAT     H244355   4.931   1.516   4.254
14705WAT      O44356   3.116   4.706   7.710
14705WAT     H144357   3.125   4.805   7.709
14705WAT     H244358   3.089   4.675   7.801
14706WAT      O44359   8.749   6.682   8.983
14706WAT     H144360   8.689   6.612   9.022
14706WAT     H244361   8.825   6.639   8.935
14707WAT      O44362   3.621   6.414   7.461
14707WAT     H144363   3.697   6.353   7.440
14707WAT     H244364   3.646   6.474   7.537
14708WAT      O44365   2.280   2.884   4.042
14708WAT     H144366   2.254   2.851   4.133
14708WAT     H244367   2.238   2.973   4.025
14709WAT      O44368   1.447   6.882   0.473
14709WAT     H144369   1.495   6.923   0.551
14709WAT     H244370   1.504   6.810   0.433
14710WAT      O44371   7.327   0.182   2.042
14710WAT     H144372   7.251   0.131   2.003
14710WAT     H244373   7.303   0.279   2.047
14711WAT      O44374   0.594   8.485   5.160
14711WAT     H144375   0.505   8.444   5.179
14711WAT     H244376   0.667   8.421   5.184
14712WAT      O44377   1.579   7.813   3.445
14712WAT     H144378   1.613   7.719   3.440
14712WAT     H244379   1.505   7.818   3.513
14713WAT      O44380   4.703   1.096   7.507
14713WAT     H144381   4.638   1.024   7.483
14713WAT     H244382   4.653   1.177   7.536
14714WAT      O44383   5.738   8.436   4.381
14714WAT     H144384   5.690   8.357   4.342
14714WAT     H244385   5.793   8.407   4.459
14715WAT      O44386   2.247   8.900   9.608
14715WAT     H144387   2.312   8.858   9.671
14715WAT     H244388   2.285   8.899   9.516
14716WAT      O44389   8.665   3.106   4.921
14716WAT     H144390   8.686   3.093   4.824
14716WAT     H244391   8.625   3.196   4.935
14717WAT      O44392   8.477   1.746   0.431
14717WAT     H144393   8.383   1.759   0.461
14717WAT     H244394   8.502   1.650   0.439
14718WAT      O44395   6.354   5.343   6.702
14718WAT     H144396   6.449   5.357   6.677
14718WAT     H244397   6.299   5.422   6.673
14719WAT      O44398   1.618   8.839   7.760
14719WAT     H144399   1.694   8.795   7.713
14719WAT     H244400   1.569   8.899   7.696
14720WAT      O44401   4.514   4.433   9.228
14720WAT     H144402   4.594   4.426   9.287
14720WAT     H244403   4.438   4.474   9.279
14721WAT      O44404   1.716   2.822   8.224
14721WAT     H144405   1.660   2.781   8.152
14721WAT     H244406   1.795   2.763   8.242
14722WAT      O44407   5.656   1.891   6.364
14722WAT     H144408   5.576   1.947   6.384
14722WAT     H244409   5.731   1.915   6.426
14723WAT      O44410   9.757   0.950   3.733
14723WAT     H144411   9.812   0.976   3.812
14723WAT     H244412   9.734   1.031   3.679
14724WAT      O44413   5.316   8.542   2.306
14724WAT     H144414   5.218   8.533   2.292
14724WAT     H244415   5.337   8.635   2.338
14725WAT      O44416   3.892   1.311   4.899
14725WAT     H144417   3.819   1.379   4.908
14725WAT     H244418   3.907   1.266   4.987
14726WAT      O44419   0.744   5.490   0.027
14726WAT     H144420   0.778   5.576  -0.011
14726WAT     H244421   0.822   5.433   0.056
14727WAT      O44422   1.800   6.045   2.328
14727WAT     H144423   1.805   5.959   2.278
14727WAT     H244424   1.892   6.084   2.338
14728WAT      O44425   5.542   0.346   0.609
14728WAT     H144426   5.572   0.317   0.700
14728WAT     H244427   5.487   0.273   0.568
14729WAT      O44428   0.005   1.388   5.666
14729WAT     H144429   0.028   1.379   5.570
14729WAT     H244430  -0.018   1.299   5.705
14730WAT      O44431   5.332   8.564   6.849
14730WAT     H144432   5.386   8.485   6.876
14730WAT     H244433   5.294   8.549   6.758
14731WAT      O44434   0.025   8.018   3.367
14731WAT     H144435   0.098   7.968   3.320
14731WAT     H244436  -0.022   8.077   3.301
14732WAT      O44437   1.334   5.058   1.538
14732WAT     H144438   1.389   5.103   1.608
14732WAT     H244439   1.391   5.033   1.460
14733WAT      O44440   9.783   2.842   8.074
14733WAT     H144441   9.825   2.855   7.984
14733WAT     H244442   9.710   2.774   8.067
14734WAT      O44443   4.514   0.015   6.916
14734WAT     H144444   4.501   0.085   6.987
14734WAT     H244445   4.478   0.050   6.829
14735WAT      O44446   8.559   5.971   1.140
14735WAT     H144447   8.623   5.918   1.195
14735WAT     H244448   8.560   6.066   1.171
14736WAT      O44449   6.284   3.470   3.493
14736WAT     H144450   6.346   3.547   3.477
14736WAT     H244451   6.222   3.462   3.415
14737WAT      O44452   3.799   1.986   5.552
14737WAT     H144453   3.721   2.023   5.602
14737WAT     H244454   3.802   1.887   5.565
14738WAT      O44455   5.246   6.059   7.782
14738WAT     H144456   5.191   6.009   7.714
14738WAT     H244457   5.220   6.029   7.874
14739WAT      O44458   9.386   9.823   5.132
14739WAT     H144459   9.391   9.891   5.205
14739WAT     H244460   9.349   9.737   5.167
14740WAT      O44461   0.034   6.682   6.532
14740WAT     H144462   0.081   6.594   6.527
14740WAT     H244463   0.100   6.756   6.515
14741WAT      O44464   1.094   2.352   7.237
14741WAT     H144465   1.024   2.324   7.172
14741WAT     H244466   1.162   2.409   7.191
14742WAT      O44467   3.745   5.484   9.487
14742WAT     H144468   3.691   5.446   9.562
14742WAT     H244469   3.795   5.411   9.442
14743WAT      O44470   8.585   1.408   7.139
14743WAT     H144471   8.556   1.435   7.048
14743WAT     H244472   8.679   1.439   7.154
14744WAT      O44473   6.612   9.593   4.511
14744WAT     H144474   6.520   9.610   4.475
14744WAT     H244475   6.644   9.674   4.560
14745WAT      O44476   1.016   2.377   1.779
14745WAT     H144477   1.101   2.429   1.786
14745WAT     H244478   0.963   2.411   1.701
14746WAT      O44479   5.710   3.861   3.776
14746WAT     H144480   5.734   3.879   3.872
14746WAT     H244481   5.662   3.941   3.739
14747WAT      O44482   4.025   0.174   3.499
14747WAT     H144483   4.057   0.188   3.593
14747WAT     H244484   4.103   0.165   3.438
14748WAT      O44485   4.041   5.673   1.102
14748WAT     H144486   4.123   5.650   1.155
14748WAT     H244487   3.975   5.598   1.107
14749WAT      O44488   4.016   0.789   2.393
14749WAT     H144489   3.965   0.752   2.315
14749WAT     H244490   3.962   0.860   2.437
14750WAT      O44491   1.073   1.402   4.591
14750WAT     H144492   1.159   1.383   4.638
14750WAT     H244493   0.996   1.373   4.648
14751WAT      O44494   6.905   4.958   3.448
14751WAT     H144495   6.815   4.991   3.477
14751WAT     H244496   6.909   4.859   3.458
14752WAT      O44497   9.074   1.905   8.989
14752WAT     H144498   9.075   1.978   8.921
14752WAT     H244499   9.156   1.849   8.980
14753WAT      O44500   3.103   9.220   3.620
14753WAT     H144501   3.158   9.190   3.698
14753WAT     H244502   3.023   9.160   3.610
14754WAT      O44503   4.047   8.501   4.419
14754WAT     H144504   4.095   8.455   4.343
14754WAT     H244505   3.957   8.531   4.388
14755WAT      O44506   2.456   1.193   9.394
14755WAT     H144507   2.435   1.198   9.492
14755WAT     H244508   2.524   1.263   9.371
14756WAT      O44509   5.033   3.508   8.484
14756WAT     H144510   5.034   3.601   8.448
14756WAT     H244511   5.025   3.443   8.408
14757WAT      O44512   6.552   4.734   5.938
14757WAT     H144513   6.592   4.743   5.847
14757WAT     H244514   6.511   4.821   5.965
14758WAT      O44515   1.056   0.086   9.728
14758WAT     H144516   1.101   0.151   9.790
14758WAT     H244517   0.970   0.125   9.695
14759WAT      O44518   7.020   5.747   1.109
14759WAT     H144519   6.971   5.667   1.142
14759WAT     H244520   7.093   5.719   1.047
14760WAT      O44521   1.225   4.498   2.283
14760WAT     H144522   1.137   4.454   2.302
14760WAT     H244523   1.210   4.579   2.226
14761WAT      O44524   5.997   5.542   7.640
14761WAT     H144525   6.028   5.610   7.573
14761WAT     H244526   6.037   5.564   7.729
14762WAT      O44527   9.607   4.828   7.614
14762WAT     H144528   9.602   4.921   7.577
14762WAT     H244529   9.649   4.767   7.546
14763WAT      O44530   5.065   3.952   9.731
14763WAT     H144531   5.109   4.040   9.713
14763WAT     H244532   5.111   3.906   9.807
14764WAT      O44533   1.893   4.645   2.930
14764WAT     H144534   1.905   4.585   2.851
14764WAT     H244535   1.978   4.651   2.981
14765WAT      O44536   0.010   8.463   6.451
14765WAT     H144537  -0.019   8.389   6.512
14765WAT     H244538   0.095   8.437   6.405
14766WAT      O44539   8.526   0.319   3.290
14766WAT     H144540   8.533   0.397   3.352
14766WAT     H244541   8.597   0.326   3.220
14767WAT      O44542   9.871   1.755   0.031
14767WAT     H144543   9.792   1.804   0.068
14767WAT     H244544   9.894   1.793  -0.059
14768WAT      O44545   9.571   7.437   9.160
14768WAT     H144546   9.516   7.365   9.201
14768WAT     H244547   9.610   7.495   9.232
14769WAT      O44548   2.082   3.159   6.180
14769WAT     H144549   2.121   3.234   6.234
14769WAT     H244550   1.987   3.179   6.159
14770WAT      O44551   0.864   2.847   4.931
14770WAT     H144552   0.811   2.781   4.877
14770WAT     H244553   0.908   2.801   5.007
14771WAT      O44554   9.313   3.439   1.270
14771WAT     H144555   9.352   3.531   1.282
14771WAT     H244556   9.327   3.386   1.353
14772WAT      O44557   2.520   1.233   2.486
14772WAT     H144558   2.614   1.256   2.513
14772WAT     H244559   2.469   1.204   2.566
14773WAT      O44560   1.715   5.344   4.593
14773WAT     H144561   1.681   5.433   4.564
14773WAT     H244562   1.724   5.284   4.514
14774WAT      O44563   9.408   5.016   1.913
14774WAT     H144564   9.372   4.927   1.885
14774WAT     H244565   9.476   5.047   1.847
14775WAT      O44566   4.563   5.504   4.106
14775WAT     H144567   4.513   5.534   4.025
14775WAT     H244568   4.502   5.504   4.185
14776WAT      O44569   6.847   5.274   4.645
14776WAT     H144570   6.795   5.254   4.562
14776WAT     H244571   6.834   5.199   4.710
14777WAT      O44572   2.593   8.757   3.411
14777WAT     H144573   2.589   8.822   3.487
14777WAT     H244574   2.654   8.681   3.434
14778WAT      O44575   5.260   0.700   8.688
14778WAT     H144576   5.302   0.790   8.675
14778WAT     H244577   5.332   0.631   8.700
14779WAT      O44578   0.321   1.078   8.037
14779WAT     H144579   0.371   1.123   7.963
14779WAT     H244580   0.237   1.038   8.002
14780WAT      O44581   0.923   1.026   9.192
14780WAT     H144582   0.967   0.961   9.255
14780WAT     H244583   0.984   1.103   9.175
14781WAT      O44584   8.561   5.070   7.469
14781WAT     H144585   8.562   4.977   7.433
14781WAT     H244586   8.605   5.071   7.559
14782WAT      O44587   3.403   5.593   9.439
14782WAT     H144588   3.318   5.634   9.406
14782WAT     H244589   3.389   5.559   9.532
14783WAT      O44590   6.678   1.049   4.293
14783WAT     H144591   6.675   1.112   4.371
14783WAT     H244592   6.703   0.958   4.326
14784WAT      O44593   5.886   6.515   3.302
14784WAT     H144594   5.910   6.551   3.392
14784WAT     H244595   5.870   6.416   3.308
14785WAT      O44596   2.072   4.316   8.362
14785WAT     H144597   2.134   4.346   8.290
14785WAT     H244598   2.122   4.306   8.448
14786WAT      O44599   8.229   7.269   4.119
14786WAT     H144600   8.300   7.255   4.188
14786WAT     H244601   8.219   7.185   4.065
14787WAT      O44602   2.177   1.336   6.334
14787WAT     H144603   2.109   1.377   6.394
14787WAT     H244604   2.269   1.350   6.372
14788WAT      O44605   4.856   2.422   1.298
14788WAT     H144606   4.762   2.387   1.301
14788WAT     H244607   4.871   2.483   1.376
14789WAT      O44608   8.044   2.996   0.443
14789WAT     H144609   8.092   3.078   0.474
14789WAT     H244610   7.976   2.969   0.511
14790WAT      O44611   0.058   2.783   1.544
14790WAT     H144612   0.064   2.797   1.445
14790WAT     H244613   0.085   2.689   1.566
14791WAT      O44614   4.077   3.232   8.069
14791WAT     H144615   4.084   3.239   7.969
14791WAT     H244616   4.065   3.324   8.107
14792WAT      O44617   8.552   8.784   7.955
14792WAT     H144618   8.464   8.799   7.909
14792WAT     H244619   8.539   8.723   8.033
14793WAT      O44620   4.189   6.728   9.270
14793WAT     H144621   4.111   6.768   9.222
14793WAT     H244622   4.174   6.737   9.369
14794WAT      O44623   3.082   4.176   8.905
14794WAT     H144624   3.094   4.133   8.816
14794WAT     H244625   3.032   4.114   8.966
14795WAT      O44626   1.026   0.847   3.861
14795WAT     H144627   1.004   0.751   3.845
14795WAT     H244628   1.105   0.873   3.805
14796WAT      O44629   0.191   2.342   8.931
14796WAT     H144630   0.129   2.357   9.008
14796WAT     H244631   0.143   2.363   8.846
14797WAT      O44632   2.880   9.079   3.584
14797WAT     H144633   2.806   9.146   3.572
14797WAT     H244634   2.846   9.001   3.637
14798WAT      O44635   0.617   8.631   4.958
14798WAT     H144636   0.530   8.680   4.954
14798WAT     H244637   0.611   8.557   5.024
14799WAT      O44638   6.883   3.395   9.114
14799WAT     H144639   6.969   3.441   9.095
14799WAT     H244640   6.840   3.366   9.029
14800WAT      O44641   5.500   6.874   0.190
14800WAT     H144642   5.418   6.930   0.202
14800WAT     H244643   5.571   6.905   0.253
14801WAT      O44644   4.475   3.809   0.384
14801WAT     H144645   4.469   3.781   0.288
14801WAT     H244646   4.437   3.901   0.394
14802WAT      O44647   4.402   3.585   8.289
14802WAT     H144648   4.408   3.680   8.260
14802WAT     H244649   4.479   3.534   8.252
14803WAT      O44650   4.675   6.496   2.615
14803WAT     H144651   4.665   6.399   2.593
14803WAT     H244652   4.744   6.507   2.686
14804WAT      O44653   7.511   8.989   2.760
14804WAT     H144654   7.497   9.086   2.780
14804WAT     H244655   7.606   8.974   2.734
14805WAT      O44656   4.923   2.147   1.382
14805WAT     H144657   4.924   2.234   1.332
14805WAT     H244658   4.857   2.085   1.339
14806WAT      O44659   8.743   1.801   7.421
14806WAT     H144660   8.739   1.734   7.496
14806WAT     H244661   8.654   1.807   7.378
14807WAT      O44662   3.441   8.807   4.211
14807WAT     H144663   3.400   8.751   4.283
14807WAT     H244664   3.430   8.903   4.233
14808WAT      O44665   5.528   2.068   1.724
14808WAT     H144666   5.574   2.128   1.658
14808WAT     H244667   5.432   2.057   1.698
14809WAT      O44668   6.812   2.339   2.446
14809WAT     H144669   6.887   2.405   2.435
14809WAT     H244670   6.847   2.246   2.428
14810WAT      O44671   4.623   3.665   4.631
14810WAT     H144672   4.574   3.611   4.699
14810WAT     H244673   4.721   3.644   4.636
14811WAT      O44674   5.004   2.627   0.679
14811WAT     H144675   5.029   2.550   0.621
14811WAT     H244676   4.945   2.595   0.753
14812WAT      O44677   7.992   1.285   2.560
14812WAT     H144678   7.940   1.201   2.547
14812WAT     H244679   7.957   1.356   2.500
14813WAT      O44680   3.410   3.037   1.763
14813WAT     H144681   3.395   3.096   1.841
14813WAT     H244682   3.388   3.086   1.678
14814WAT      O44683   7.126   9.798   3.558
14814WAT     H144684   7.078   9.738   3.622
14814WAT     H244685   7.068   9.877   3.538
14815WAT      O44686   8.923   6.621   8.640
14815WAT     H144687   8.836   6.655   8.675
14815WAT     H244688   8.979   6.698   8.609
14816WAT      O44689   7.430   8.870   0.665
14816WAT     H144690   7.387   8.936   0.604
14816WAT     H244691   7.360   8.806   0.699
14817WAT      O44692   9.138   7.526   2.680
14817WAT     H144693   9.125   7.587   2.759
14817WAT     H244694   9.082   7.558   2.604
14818WAT      O44695   6.547   5.414   0.826
14818WAT     H144696   6.481   5.345   0.796
14818WAT     H244697   6.512   5.460   0.907
14819WAT      O44698   3.826   4.468   1.870
14819WAT     H144699   3.808   4.517   1.784
14819WAT     H244700   3.890   4.521   1.926
14820WAT      O44701   8.768   6.846   0.737
14820WAT     H144702   8.807   6.781   0.671
14820WAT     H244703   8.832   6.922   0.751
14821WAT      O44704   2.455   5.253   6.251
14821WAT     H144705   2.458   5.166   6.301
14821WAT     H244706   2.546   5.294   6.250
14822WAT      O44707   0.824   3.932   4.510
14822WAT     H144708   0.740   3.953   4.558
14822WAT     H244709   0.891   3.892   4.573
14823WAT      O44710   0.052   9.789   4.498
14823WAT     H144711   0.099   9.854   4.439
14823WAT     H244712   0.069   9.696   4.465
14824WAT      O44713   3.402   1.326   3.508
14824WAT     H144714   3.338   1.269   3.455
14824WAT     H244715   3.369   1.335   3.602
14825WAT      O44716   1.529   6.033   6.472
14825WAT     H144717   1.521   6.116   6.417
14825WAT     H244718   1.542   6.057   6.568
14826WAT      O44719   8.344   7.640   6.048
14826WAT     H144720   8.317   7.732   6.020
14826WAT     H244721   8.420   7.609   5.991
14827WAT      O44722   2.933   8.300   4.745
14827WAT     H144723   2.986   8.278   4.827
14827WAT     H244724   2.930   8.220   4.685
14828WAT      O44725   1.095   9.356   9.664
14828WAT     H144726   1.071   9.321   9.754
14828WAT     H244727   1.113   9.455   9.670
14829WAT      O44728   5.025   5.549   3.393
14829WAT     H144729   4.931   5.581   3.393
14829WAT     H244730   5.071   5.580   3.476
14830WAT      O44731   6.098   5.831   1.400
14830WAT     H144732   6.096   5.825   1.301
14830WAT     H244733   6.056   5.916   1.430
14831WAT      O44734   6.145   4.731   2.064
14831WAT     H144735   6.161   4.735   1.965
14831WAT     H244736   6.111   4.640   2.088
14832WAT      O44737   3.819   8.407   0.435
14832WAT     H144738   3.827   8.369   0.342
14832WAT     H244739   3.820   8.332   0.501
14833WAT      O44740   6.083   8.855   5.189
14833WAT     H144741   6.029   8.938   5.178
14833WAT     H244742   6.163   8.875   5.245
14834WAT      O44743   7.242   0.372   9.330
14834WAT     H144744   7.266   0.294   9.273
14834WAT     H244745   7.183   0.434   9.278
14835WAT      O44746   7.383   5.121   0.390
14835WAT     H144747   7.481   5.106   0.403
14835WAT     H244748   7.342   5.039   0.352
14836WAT      O44749   4.119   0.348   9.563
14836WAT     H144750   4.087   0.402   9.485
14836WAT     H244751   4.049   0.281   9.587
14837WAT      O44752   2.237   6.599   0.907
14837WAT     H144753   2.150   6.590   0.956
14837WAT     H244754   2.275   6.508   0.891
14838WAT      O44755   0.456   4.047   1.247
14838WAT     H144756   0.556   4.045   1.251
14838WAT     H244757   0.427   4.060   1.152
14839WAT      O44758   5.106   0.304   0.052
14839WAT     H144759   5.029   0.245   0.076
14839WAT     H244760   5.178   0.250   0.009
14840WAT      O44761   6.017   2.517   3.560
14840WAT     H144762   6.062   2.595   3.517
14840WAT     H244763   6.054   2.504   3.652
14841WAT      O44764   7.714   3.956   2.700
14841WAT     H144765   7.692   4.004   2.784
14841WAT     H244766   7.807   3.919   2.706
14842WAT      O44767   2.746   4.517   5.834
14842WAT     H144768   2.679   4.507   5.908
14842WAT     H244769   2.723   4.597   5.779
14843WAT      O44770   5.332   9.532   0.046
14843WAT     H144771   5.294   9.596   0.113
14843WAT     H244772   5.401   9.474   0.091
14844WAT      O44773   6.936   6.016   7.559
14844WAT     H144774   7.005   6.056   7.499
14844WAT     H244775   6.939   6.061   7.648
14845WAT      O44776   0.941   3.068   3.402
14845WAT     H144777   0.985   2.982   3.379
14845WAT     H244778   0.855   3.076   3.351
14846WAT      O44779   8.461   4.665   3.567
14846WAT     H144780   8.403   4.739   3.533
14846WAT     H244781   8.455   4.662   3.667
14847WAT      O44782   6.153   5.843   5.202
14847WAT     H144783   6.067   5.893   5.201
14847WAT     H244784   6.184   5.827   5.108
14848WAT      O44785   7.699   3.560   0.098
14848WAT     H144786   7.601   3.572   0.087
14848WAT     H244787   7.745   3.585   0.012
14849WAT      O44788   2.559   0.429   6.685
14849WAT     H144789   2.479   0.418   6.626
14849WAT     H244790   2.634   0.468   6.632
14850WAT      O44791   5.727   3.112   4.464
14850WAT     H144792   5.682   3.090   4.378
14850WAT     H244793   5.775   3.031   4.498
14851WAT      O44794   0.287   9.300   6.855
14851WAT     H144795   0.194   9.337   6.846
14851WAT     H244796   0.344   9.366   6.904
14852WAT      O44797   9.221   4.478   4.346
14852WAT     H144798   9.154   4.423   4.396
14852WAT     H244799   9.213   4.459   4.248
14853WAT      O44800   4.478   8.224   8.971
14853WAT     H144801   4.398   8.280   8.949
14853WAT     H244802   4.516   8.186   8.887
14854WAT      O44803   6.579   9.217   2.252
14854WAT     H144804   6.522   9.202   2.172
14854WAT     H244805   6.671   9.244   2.223
14855WAT      O44806   1.055   7.965   4.249
14855WAT     H144807   1.062   7.893   4.180
14855WAT     H244808   1.005   7.932   4.328
14856WAT      O44809   3.807   2.159   5.345
14856WAT     H144810   3.883   2.222   5.362
14856WAT     H244811   3.793   2.102   5.426
14857WAT      O44812   1.178   4.002   7.532
14857WAT     H144813   1.094   4.036   7.574
14857WAT     H244814   1.195   3.909   7.563
14858WAT      O44815   5.553   6.490   5.929
14858WAT     H144816   5.587   6.429   6.001
14858WAT     H244817   5.504   6.567   5.970
14859WAT      O44818   7.077   0.158   0.604
14859WAT     H144819   7.136   0.185   0.528
14859WAT     H244820   7.068   0.058   0.606
14860WAT      O44821   8.600   0.430   3.754
14860WAT     H144822   8.592   0.480   3.840
14860WAT     H244823   8.567   0.336   3.768
14861WAT      O44824   5.157   1.591   1.720
14861WAT     H144825   5.147   1.622   1.625
14861WAT     H244826   5.245   1.622   1.756
14862WAT      O44827   7.161   4.659   5.167
14862WAT     H144828   7.239   4.596   5.165
14862WAT     H244829   7.076   4.606   5.158
14863WAT      O44830   9.156   5.326   6.105
14863WAT     H144831   9.123   5.325   6.010
14863WAT     H244832   9.110   5.254   6.157
14864WAT      O44833   1.943   5.160   1.683
14864WAT     H144834   1.963   5.175   1.780
14864WAT     H244835   1.991   5.078   1.651
14865WAT      O44836   7.403   8.233   1.230
14865WAT     H144837   7.456   8.261   1.149
14865WAT     H244838   7.306   8.247   1.212
14866WAT      O44839   1.913   5.310   4.786
14866WAT     H144840   1.889   5.338   4.879
14866WAT     H244841   1.836   5.326   4.725
14867WAT      O44842   2.411   8.467   3.924
14867WAT     H144843   2.491   8.503   3.877
14867WAT     H244844   2.439   8.389   3.981
14868WAT      O44845   5.057   8.277   3.604
14868WAT     H144846   5.026   8.328   3.524
14868WAT     H244847   4.981   8.266   3.668
14869WAT      O44848   5.630   4.239   1.077
14869WAT     H144849   5.726   4.213   1.083
14869WAT     H244850   5.590   4.204   0.992
14870WAT      O44851   3.322   0.385   5.354
14870WAT     H144852   3.340   0.467   5.300
14870WAT     H244853   3.390   0.378   5.427
14871WAT      O44854   6.755   7.776   6.513
14871WAT     H144855   6.691   7.700   6.504
14871WAT     H244856   6.843   7.742   6.546
14872WAT      O44857   8.214   5.749   5.173
14872WAT     H144858   8.285   5.806   5.130
14872WAT     H244859   8.163   5.803   5.239
14873WAT      O44860   8.452   0.475   2.206
14873WAT     H144861   8.469   0.411   2.281
14873WAT     H244862   8.355   0.473   2.181
14874WAT      O44863   1.329   6.428   4.725
14874WAT     H144864   1.370   6.400   4.812
14874WAT     H244865   1.236   6.461   4.741
14875WAT      O44866   0.544   6.257   5.562
14875WAT     H144867   0.554   6.324   5.487
14875WAT     H244868   0.522   6.305   5.646
14876WAT      O44869   4.088   5.707   2.823
14876WAT     H144870   4.140   5.792   2.814
14876WAT     H244871   3.994   5.728   2.849
14877WAT      O44872   3.511   7.073   9.720
14877WAT     H144873   3.589   7.099   9.664
14877WAT     H244874   3.447   7.150   9.727
14878WAT      O44875   8.063   5.912   5.347
14878WAT     H144876   8.096   6.007   5.348
14878WAT     H244877   7.965   5.911   5.364
14879WAT      O44878   7.166   6.549   6.061
14879WAT     H144879   7.264   6.538   6.045
14879WAT     H244880   7.151   6.589   6.151
14880WAT      O44881   5.734   5.679   5.118
14880WAT     H144882   5.690   5.763   5.148
14880WAT     H244883   5.672   5.602   5.133
14881WAT      O44884   1.044   1.674   5.966
14881WAT     H144885   1.126   1.624   5.994
14881WAT     H244886   1.063   1.772   5.966
14882WAT      O44887   9.765   8.622   7.900
14882WAT     H144888   9.670   8.613   7.872
14882WAT     H244889   9.801   8.532   7.925
14883WAT      O44890   5.244   3.612   8.160
14883WAT     H144891   5.236   3.594   8.062
14883WAT     H244892   5.269   3.528   8.208
14884WAT      O44893   0.648   5.429   7.057
14884WAT     H144894   0.578   5.371   7.099
14884WAT     H244895   0.738   5.388   7.070
14885WAT      O44896   9.400   1.094   4.182
14885WAT     H144897   9.488   1.049   4.201
14885WAT     H244898   9.357   1.121   4.268
14886WAT      O44899   9.759   4.965   0.824
14886WAT     H144900   9.678   5.003   0.780
14886WAT     H244901   9.807   4.905   0.760
14887WAT      O44902   2.080   5.347   3.366
14887WAT     H144903   2.015   5.364   3.439
14887WAT     H244904   2.156   5.413   3.373
14888WAT      O44905   1.002   4.921   6.134
14888WAT     H144906   1.013   4.937   6.035
14888WAT     H244907   0.936   4.987   6.171
14889WAT      O44908   7.475   0.615   7.799
14889WAT     H144909   7.475   0.703   7.847
14889WAT     H244910   7.452   0.629   7.703
14890WAT      O44911   0.972   3.786   3.866
14890WAT     H144912   0.999   3.699   3.824
14890WAT     H244913   0.967   3.856   3.795
14891WAT      O44914   3.455   8.410   5.097
14891WAT     H144915   3.525   8.474   5.066
14891WAT     H244916   3.421   8.438   5.187
14892WAT      O44917   8.249   5.310   3.148
14892WAT     H144918   8.266   5.273   3.057
14892WAT     H244919   8.245   5.410   3.143
14893WAT      O44920   1.691   0.783   9.644
14893WAT     H144921   1.635   0.774   9.727
14893WAT     H244922   1.770   0.840   9.665
14894WAT      O44923   7.497   9.172   5.223
14894WAT     H144924   7.454   9.102   5.281
14894WAT     H244925   7.590   9.144   5.202
14895WAT      O44926   6.934   0.226   5.675
14895WAT     H144927   6.998   0.291   5.716
14895WAT     H244928   6.866   0.276   5.621
14896WAT      O44929   0.027   6.640   7.595
14896WAT     H144930   0.032   6.718   7.657
14896WAT     H244931  -0.047   6.579   7.625
14897WAT      O44932   4.100   1.925   4.247
14897WAT     H144933   4.122   1.838   4.203
14897WAT     H244934   4.156   1.998   4.206
14898WAT      O44935   2.277   1.873   2.213
14898WAT     H144936   2.350   1.927   2.255
14898WAT     H244937   2.292   1.866   2.115
14899WAT      O44938   2.576   2.201   1.440
14899WAT     H144939   2.669   2.210   1.475
14899WAT     H244940   2.523   2.282   1.466
14900WAT      O44941   1.318   4.812   4.826
14900WAT     H144942   1.371   4.730   4.848
14900WAT     H244943   1.339   4.841   4.733
14901WAT      O44944   2.227   7.811   7.620
14901WAT     H144945   2.183   7.878   7.680
14901WAT     H244946   2.235   7.849   7.528
14902WAT      O44947   2.654   3.972   6.151
14902WAT     H144948   2.558   3.947   6.167
14902WAT     H244949   2.659   4.042   6.079
14903WAT      O44950   9.098   0.809   3.307
14903WAT     H144951   9.168   0.881   3.307
14903WAT     H244952   9.033   0.826   3.381
14904WAT      O44953   3.017   0.023   2.599
14904WAT     H144954   2.949   0.079   2.551
14904WAT     H244955   3.017  -0.069   2.560
14905WAT      O44956   6.810   1.058   7.857
14905WAT     H144957   6.809   0.969   7.811
14905WAT     H244958   6.897   1.069   7.906
14906WAT      O44959   1.971   0.345   4.284
14906WAT     H144960   1.977   0.316   4.189
14906WAT     H244961   1.964   0.265   4.344
14907WAT      O44962   3.955   8.140   0.225
14907WAT     H144963   4.019   8.110   0.154
14907WAT     H244964   3.922   8.232   0.204
14908WAT      O44965   0.463   1.585   7.664
14908WAT     H144966   0.396   1.580   7.738
14908WAT     H244967   0.474   1.495   7.623
14909WAT      O44968   1.456   8.840   5.010
14909WAT     H144969   1.378   8.885   5.054
14909WAT     H244970   1.540   8.890   5.030
14910WAT      O44971   7.980   1.538   1.439
14910WAT     H144972   7.931   1.552   1.524
14910WAT     H244973   8.055   1.604   1.432
14911WAT      O44974   2.398   5.704   6.761
14911WAT     H144975   2.497   5.716   6.775
14911WAT     H244976   2.376   5.715   6.664
14912WAT      O44977   8.088   4.565   8.850
14912WAT     H144978   8.052   4.508   8.776
14912WAT     H244979   8.170   4.523   8.888
14913WAT      O44980   7.726   0.884   4.741
14913WAT     H144981   7.681   0.899   4.653
14913WAT     H244982   7.657   0.868   4.812
14914WAT      O44983   6.845   2.428   5.166
14914WAT     H144984   6.810   2.370   5.093
14914WAT     H244985   6.916   2.488   5.129
14915WAT      O44986   1.306   8.740   9.032
14915WAT     H144987   1.209   8.758   9.047
14915WAT     H244988   1.317   8.678   8.954
14916WAT      O44989   1.845   9.109   5.401
14916WAT     H144990   1.902   9.170   5.346
14916WAT     H244991   1.854   9.015   5.367
14917WAT      O44992   7.348   0.103   4.322
14917WAT     H144993   7.292   0.025   4.349
14917WAT     H244994   7.342   0.116   4.223
14918WAT      O44995   1.019   8.729   8.712
14918WAT     H144996   1.031   8.807   8.651
14918WAT     H244997   0.947   8.669   8.676
14919WAT      O44998   4.829   3.027   1.083
14919WAT     H144999   4.787   2.990   1.166
14919WAT     H245000   4.920   3.063   1.105
14920WAT      O45001   7.911   9.112   9.371
14920WAT     H145002   8.006   9.091   9.347
14920WAT     H245003   7.867   9.162   9.296
14921WAT      O45004   1.018   6.704   8.525
14921WAT     H145005   1.094   6.661   8.477
14921WAT     H245006   0.936   6.647   8.514
14922WAT      O45007   6.195   7.560   5.630
14922WAT     H145008   6.288   7.534   5.606
14922WAT     H245009   6.172   7.524   5.720
14923WAT      O45010   4.681   4.143   3.591
14923WAT     H145011   4.669   4.162   3.494
14923WAT     H245012   4.768   4.180   3.622
14924WAT      O45013   0.912   5.904   3.499
14924WAT     H145014   0.996   5.959   3.493
14924WAT     H245015   0.935   5.812   3.530
14925WAT      O45016   4.861   0.782   5.667
14925WAT     H145017   4.806   0.834   5.733
14925WAT     H245018   4.801   0.745   5.596
14926WAT      O45019   7.548   2.148   4.580
14926WAT     H145020   7.622   2.114   4.637
14926WAT     H245021   7.583   2.220   4.520
14927WAT      O45022   3.850   5.596   6.538
14927WAT     H145023   3.899   5.628   6.456
14927WAT     H245024   3.767   5.652   6.551
14928WAT      O45025   3.346   7.368   2.028
14928WAT     H145026   3.310   7.313   2.104
14928WAT     H245027   3.445   7.374   2.035
14929WAT      O45028   8.829   8.652   3.897
14929WAT     H145029   8.830   8.694   3.988
14929WAT     H245030   8.770   8.706   3.836
14930WAT      O45031   6.667   5.392   1.449
14930WAT     H145032   6.653   5.334   1.369
14930WAT     H245033   6.661   5.488   1.422
14931WAT      O45034   1.218   2.555   9.815
14931WAT     H145035   1.159   2.607   9.754
14931WAT     H245036   1.312   2.556   9.779
14932WAT      O45037   8.844   5.918   3.263
14932WAT     H145038   8.774   5.848   3.282
14932WAT     H245039   8.812   5.980   3.192
14933WAT      O45040   8.504   7.066   4.038
14933WAT     H145041   8.477   7.032   3.948
14933WAT     H245042   8.529   7.163   4.031
14934WAT      O45043   5.614   3.503   8.063
14934WAT     H145044   5.552   3.425   8.068
14934WAT     H245045   5.600   3.561   8.143
14935WAT      O45046   4.025   6.566   8.757
14935WAT     H145047   4.054   6.529   8.668
14935WAT     H245048   4.002   6.491   8.818
14936WAT      O45049   1.319   5.474   5.732
14936WAT     H145050   1.376   5.527   5.794
14936WAT     H245051   1.285   5.533   5.659
14937WAT      O45052   3.127   5.224   4.735
14937WAT     H145053   3.078   5.295   4.786
14937WAT     H245054   3.161   5.263   4.650
14938WAT      O45055   2.055   7.999   5.962
14938WAT     H145056   2.141   8.020   5.915
14938WAT     H245057   1.986   8.067   5.939
14939WAT      O45058   0.688   0.230   4.349
14939WAT     H145059   0.634   0.269   4.423
14939WAT     H245060   0.641   0.150   4.311
14940WAT      O45061   8.076   4.586   4.506
14940WAT     H145062   8.167   4.559   4.539
14940WAT     H245063   8.047   4.524   4.433
14941WAT      O45064   6.490   6.017   2.381
14941WAT     H145065   6.494   6.037   2.479
14941WAT     H245066   6.561   5.951   2.358
14942WAT      O45067   6.600   8.256   2.038
14942WAT     H145068   6.515   8.207   2.055
14942WAT     H245069   6.677   8.192   2.044
14943WAT      O45070   8.425   9.197   9.737
14943WAT     H145071   8.522   9.194   9.762
14943WAT     H245072   8.376   9.257   9.801
14944WAT      O45073   9.627   1.242   0.640
14944WAT     H145074   9.555   1.284   0.696
14944WAT     H245075   9.585   1.193   0.564
14945WAT      O45076   2.200   1.308   4.315
14945WAT     H145077   2.204   1.231   4.251
14945WAT     H245078   2.105   1.330   4.335
14946WAT      O45079   8.240   7.688   2.328
14946WAT     H145080   8.262   7.785   2.338
14946WAT     H245081   8.155   7.678   2.277
14947WAT      O45082   6.504   5.218   7.244
14947WAT     H145083   6.485   5.127   7.280
14947WAT     H245084   6.512   5.213   7.144
14948WAT      O45085   5.667   6.364   5.332
14948WAT     H145086   5.613   6.281   5.321
14948WAT     H245087   5.623   6.424   5.398
14949WAT      O45088   0.285   6.006   3.133
14949WAT     H145089   0.359   6.009   3.066
14949WAT     H245090   0.275   5.913   3.168
14950WAT      O45091   9.811   0.905   0.099
14950WAT     H145092   9.845   0.839   0.032
14950WAT     H245093   9.865   0.898   0.183
14951WAT      O45094   2.778   4.876   7.145
14951WAT     H145095   2.843   4.835   7.209
14951WAT     H245096   2.818   4.881   7.054
14952WAT      O45097   2.512   3.010   8.512
14952WAT     H145098   2.560   2.946   8.453
14952WAT     H245099   2.525   3.104   8.479
14953WAT      O45100   3.970   4.797   7.547
14953WAT     H145101   4.006   4.859   7.617
14953WAT     H245102   3.893   4.745   7.585
14954WAT      O45103   9.312   9.546   9.190
14954WAT     H145104   9.257   9.576   9.111
14954WAT     H245105   9.338   9.626   9.244
14955WAT      O45106   4.792   2.120   4.231
14955WAT     H145107   4.713   2.085   4.180
14955WAT     H245108   4.876   2.081   4.194
14956WAT      O45109   0.764   6.671   4.236
14956WAT     H145110   0.808   6.660   4.147
14956WAT     H245111   0.721   6.585   4.263
14957WAT      O45112   2.020   1.370   4.024
14957WAT     H145113   2.002   1.286   3.973
14957WAT     H245114   1.935   1.401   4.067
14958WAT      O45115   9.071   9.537   0.100
14958WAT     H145116   9.107   9.630   0.091
14958WAT     H245117   9.145   9.471   0.086
14959WAT      O45118   5.061   1.495   2.234
14959WAT     H145119   4.998   1.533   2.166
14959WAT     H245120   5.110   1.417   2.194
14960WAT      O45121   5.217   3.610   2.890
14960WAT     H145122   5.260   3.558   2.963
14960WAT     H245123   5.119   3.590   2.889
14961WAT      O45124   5.393   0.465   1.488
14961WAT     H145125   5.393   0.470   1.587
14961WAT     H245126   5.299   0.455   1.455
14962WAT      O45127   2.967   1.206   6.167
14962WAT     H145128   2.919   1.141   6.108
14962WAT     H245129   2.917   1.292   6.168
14963WAT      O45130   4.036   7.577   3.086
14963WAT     H145131   3.955   7.542   3.133
14963WAT     H245132   4.116   7.565   3.145
14964WAT      O45133   9.693   5.193   4.449
14964WAT     H145134   9.607   5.157   4.413
14964WAT     H245135   9.750   5.118   4.480
14965WAT      O45136   2.900   0.187   8.243
14965WAT     H145137   2.960   0.259   8.211
14965WAT     H245138   2.874   0.205   8.338
14966WAT      O45139   6.490   8.656   7.272
14966WAT     H145140   6.403   8.668   7.223
14966WAT     H245141   6.500   8.726   7.342
14967WAT      O45142   8.100   2.493   7.931
14967WAT     H145143   8.160   2.448   7.997
14967WAT     H245144   8.154   2.533   7.858
14968WAT      O45145   8.313   1.204   0.022
14968WAT     H145146   8.228   1.256   0.031
14968WAT     H245147   8.379   1.257  -0.031
14969WAT      O45148   9.510   6.511   3.538
14969WAT     H145149   9.412   6.498   3.553
14969WAT     H245150   9.524   6.591   3.479
14970WAT      O45151   4.436   4.424   6.944
14970WAT     H145152   4.401   4.346   6.996
14970WAT     H245153   4.535   4.431   6.956
14971WAT      O45154   2.903   3.841   4.181
14971WAT     H145155   2.959   3.915   4.218
14971WAT     H245156   2.962   3.770   4.142
14972WAT      O45157   5.326   7.267   9.033
14972WAT     H145158   5.274   7.337   9.082
14972WAT     H245159   5.409   7.308   8.994
14973WAT      O45160   0.109   3.611   4.584
14973WAT     H145161   0.017   3.644   4.561
14973WAT     H245162   0.165   3.610   4.501
14974WAT      O45163   2.937   6.510   4.752
14974WAT     H145164   2.838   6.523   4.744
14974WAT     H245165   2.961   6.501   4.848
14975WAT      O45166   3.348   3.703   2.556
14975WAT     H145167   3.302   3.674   2.641
14975WAT     H245168   3.350   3.803   2.552
14976WAT      O45169   7.074   2.894   5.770
14976WAT     H145170   7.074   2.795   5.755
14976WAT     H245171   6.980   2.926   5.783
14977WAT      O45172   9.576   7.730   3.129
14977WAT     H145173   9.637   7.659   3.095
14977WAT     H245174   9.547   7.789   3.053
14978WAT      O45175   2.879   6.788   8.261
14978WAT     H145176   2.809   6.838   8.311
14978WAT     H245177   2.969   6.814   8.294
14979WAT      O45178   0.114   3.946   7.843
14979WAT     H145179   0.209   3.977   7.842
14979WAT     H245180   0.109   3.856   7.799
14980WAT      O45181   5.812   1.428   4.376
14980WAT     H145182   5.860   1.406   4.461
14980WAT     H245183   5.875   1.417   4.299
14981WAT      O45184   8.380   1.907   7.869
14981WAT     H145185   8.401   1.812   7.847
14981WAT     H245186   8.285   1.927   7.844
14982WAT      O45187   1.577   2.910   1.464
14982WAT     H145188   1.582   2.825   1.410
14982WAT     H245189   1.656   2.967   1.443
14983WAT      O45190   1.873   8.567   3.468
14983WAT     H145191   1.882   8.642   3.402
14983WAT     H245192   1.947   8.572   3.535
14984WAT      O45193   9.042   6.675   0.559
14984WAT     H145194   9.005   6.587   0.589
14984WAT     H245195   9.009   6.696   0.467
14985WAT      O45196   3.900   6.732   3.274
14985WAT     H145197   3.946   6.738   3.186
14985WAT     H245198   3.852   6.818   3.293
14986WAT      O45199   2.439   7.130   7.222
14986WAT     H145200   2.446   7.080   7.309
14986WAT     H245201   2.527   7.125   7.174
14987WAT      O45202   6.692   9.799   3.491
14987WAT     H145203   6.677   9.708   3.529
14987WAT     H245204   6.604   9.843   3.473
14988WAT      O45205   2.033   0.684   0.131
14988WAT     H145206   1.961   0.670   0.200
14988WAT     H245207   2.103   0.613   0.142
14989WAT      O45208   8.012   0.523   9.751
14989WAT     H145209   8.035   0.500   9.845
14989WAT     H245210   7.923   0.486   9.728
14990WAT      O45211   8.846   2.457   6.391
14990WAT     H145212   8.930   2.438   6.442
14990WAT     H245213   8.854   2.420   6.298
14991WAT      O45214   5.479   9.367   0.191
14991WAT     H145215   5.563   9.369   0.244
14991WAT     H245216   5.409   9.316   0.241
14992WAT      O45217   4.419   4.880   8.749
14992WAT     H145218   4.508   4.846   8.721
14992WAT     H245219   4.391   4.836   8.833
14993WAT      O45220   0.357   5.332   8.803
14993WAT     H145221   0.293   5.367   8.872
14993WAT     H245222   0.355   5.390   8.722
14994WAT      O45223   4.308   6.439   2.021
14994WAT     H145224   4.351   6.506   2.080
14994WAT     H245225   4.227   6.479   1.978
14995WAT      O45226   1.869   2.188   5.742
14995WAT     H145227   1.923   2.257   5.790
14995WAT     H245228   1.775   2.220   5.732
14996WAT      O45229   8.927   5.532   3.633
14996WAT     H145230   9.012   5.482   3.651
14996WAT     H245231   8.897   5.515   3.540
14997WAT      O45232   5.696   3.637   7.076
14997WAT     H145233   5.689   3.735   7.097
14997WAT     H245234   5.696   3.624   6.977
14998WAT      O45235   0.276   8.824   6.151
14998WAT     H145236   0.226   8.794   6.232
14998WAT     H245237   0.373   8.833   6.173
14999WAT      O45238   5.162   4.402   7.601
14999WAT     H145239   5.125   4.491   7.626
14999WAT     H245240   5.256   4.394   7.633
15000WAT      O45241   7.854   7.696   3.050
15000WAT     H145242   7.775   7.670   3.105
15000WAT     H245243   7.828   7.702   2.954
15001WAT      O45244   1.197   5.973   1.382
15001WAT     H145245   1.295   5.973   1.403
15001WAT     H245246   1.163   6.067   1.382
15002WAT      O45247   6.279   0.427   3.681
15002WAT     H145248   6.306   0.495   3.750
15002WAT     H245249   6.193   0.385   3.708
15003WAT      O45250   6.952   7.151   0.389
15003WAT     H145251   6.895   7.134   0.469
15003WAT     H245252   7.048   7.152   0.415
15004WAT      O45253   0.676   8.176   8.977
15004WAT     H145254   0.738   8.187   9.054
15004WAT     H245255   0.669   8.080   8.951
15005WAT      O45256   8.758   0.103   8.449
15005WAT     H145257   8.670   0.127   8.409
15005WAT     H245258   8.760   0.128   8.546
15006WAT      O45259   5.802   1.040   3.152
15006WAT     H145260   5.891   0.999   3.172
15006WAT     H245261   5.731   0.992   3.202
15007WAT      O45262   8.846   3.945   7.176
15007WAT     H145263   8.874   4.037   7.204
15007WAT     H245264   8.888   3.878   7.237
15008WAT      O45265   5.760   0.300   9.064
15008WAT     H145266   5.731   0.212   9.101
15008WAT     H245267   5.736   0.372   9.128
15009WAT      O45268   0.582   4.627   7.980
15009WAT     H145269   0.528   4.677   7.912
15009WAT     H245270   0.554   4.531   7.980
15010WAT      O45271   7.949   0.670   2.163
15010WAT     H145272   7.968   0.764   2.194
15010WAT     H245273   7.891   0.673   2.082
15011WAT      O45274   2.023   6.161   9.738
15011WAT     H145275   1.950   6.123   9.794
15011WAT     H245276   2.002   6.257   9.717
15012WAT      O45277   6.100   6.868   7.367
15012WAT     H145278   6.058   6.902   7.451
15012WAT     H245279   6.140   6.778   7.383
15013WAT      O45280   0.771   1.545   5.678
15013WAT     H145281   0.795   1.570   5.772
15013WAT     H245282   0.678   1.576   5.658
15014WAT      O45283   4.459   8.182   8.148
15014WAT     H145284   4.460   8.169   8.049
15014WAT     H245285   4.493   8.099   8.193
15015WAT      O45286   4.777   0.367   3.934
15015WAT     H145287   4.846   0.297   3.952
15015WAT     H245288   4.795   0.411   3.847
15016WAT      O45289   2.823   0.882   9.363
15016WAT     H145290   2.907   0.837   9.393
15016WAT     H245291   2.844   0.971   9.324
15017WAT      O45292   9.464   8.524   3.416
15017WAT     H145293   9.388   8.469   3.382
15017WAT     H245294   9.456   8.617   3.382
15018WAT      O45295   4.652   7.282   1.921
15018WAT     H145296   4.567   7.307   1.874
15018WAT     H245297   4.647   7.310   2.017
15019WAT      O45298   4.941   2.570   2.318
15019WAT     H145299   4.867   2.530   2.371
15019WAT     H245300   4.980   2.648   2.367
15020WAT      O45301   3.420   3.496   5.593
15020WAT     H145302   3.400   3.434   5.517
15020WAT     H245303   3.421   3.444   5.679
15021WAT      O45304   5.854   5.794   6.501
15021WAT     H145305   5.862   5.697   6.478
15021WAT     H245306   5.940   5.840   6.479
15022WAT      O45307   7.470   9.457   2.086
15022WAT     H145308   7.433   9.528   2.146
15022WAT     H245309   7.400   9.389   2.066
15023WAT      O45310   4.379   2.039   0.871
15023WAT     H145311   4.368   2.004   0.964
15023WAT     H245312   4.317   2.116   0.857
15024WAT      O45313   9.748   1.791   5.592
15024WAT     H145314   9.717   1.696   5.590
15024WAT     H245315   9.816   1.806   5.520
15025WAT      O45316   3.250   3.887   3.029
15025WAT     H145317   3.232   3.800   3.074
15025WAT     H245318   3.332   3.929   3.068
15026WAT      O45319   0.830   1.898   7.610
15026WAT     H145320   0.787   1.988   7.611
15026WAT     H245321   0.919   1.904   7.657
15027WAT      O45322   9.803   1.478   4.380
15027WAT     H145323   9.841   1.406   4.438
15027WAT     H245324   9.872   1.548   4.365
15028WAT      O45325   8.174   7.722   0.808
15028WAT     H145326   8.156   7.681   0.897
15028WAT     H245327   8.273   7.731   0.795
15029WAT      O45328   5.516   2.274   7.058
15029WAT     H145329   5.421   2.252   7.081
15029WAT     H245330   5.557   2.324   7.134
15030WAT      O45331   4.554   7.765   9.746
15030WAT     H145332   4.633   7.707   9.767
15030WAT     H245333   4.545   7.835   9.817
15031WAT      O45334   3.522   4.283   8.572
15031WAT     H145335   3.572   4.369   8.570
15031WAT     H245336   3.475   4.270   8.485
15032WAT      O45337   3.802   5.172   2.491
15032WAT     H145338   3.758   5.237   2.428
15032WAT     H245339   3.901   5.176   2.479
15033WAT      O45340   3.595   9.700   0.128
15033WAT     H145341   3.614   9.643   0.208
15033WAT     H245342   3.548   9.645   0.058
15034WAT      O45343   1.744   7.267   0.978
15034WAT     H145344   1.701   7.297   0.892
15034WAT     H245345   1.691   7.301   1.055
15035WAT      O45346   2.410   9.062   8.966
15035WAT     H145347   2.422   9.108   9.054
15035WAT     H245348   2.354   8.981   8.977
15036WAT      O45349   2.153   4.424   6.868
15036WAT     H145350   2.060   4.407   6.837
15036WAT     H245351   2.187   4.345   6.920
15037WAT      O45352   8.953   3.245   0.355
15037WAT     H145353   8.927   3.313   0.423
15037WAT     H245354   9.051   3.228   0.360
15038WAT      O45355   9.772   1.889   8.475
15038WAT     H145356   9.813   1.952   8.409
15038WAT     H245357   9.746   1.940   8.557
15039WAT      O45358   9.202   3.092   5.787
15039WAT     H145359   9.298   3.069   5.804
15039WAT     H245360   9.144   3.018   5.820
15040WAT      O45361   5.155   0.948   6.564
15040WAT     H145362   5.150   0.876   6.633
15040WAT     H245363   5.115   1.032   6.600
15041WAT      O45364   0.984   1.430   3.314
15041WAT     H145365   1.081   1.431   3.338
15041WAT     H245366   0.970   1.377   3.230
15042WAT      O45367   2.389   3.006   6.181
15042WAT     H145368   2.309   3.057   6.210
15042WAT     H245369   2.433   2.963   6.260
15043WAT      O45370   8.653   0.742   5.956
15043WAT     H145371   8.612   0.766   5.868
15043WAT     H245372   8.590   0.765   6.030
15044WAT      O45373   4.974   5.684   2.127
15044WAT     H145374   4.880   5.662   2.101
15044WAT     H245375   5.035   5.667   2.050
15045WAT      O45376   1.884   2.405   5.438
15045WAT     H145377   1.841   2.329   5.388
15045WAT     H245378   1.934   2.369   5.517
15046WAT      O45379   3.343   0.943   3.429
15046WAT     H145380   3.365   0.881   3.355
15046WAT     H245381   3.344   0.894   3.516
15047WAT      O45382   1.854   8.508   1.862
15047WAT     H145383   1.827   8.569   1.936
15047WAT     H245384   1.832   8.414   1.887
15048WAT      O45385   2.991   6.042   9.769
15048WAT     H145386   2.951   6.123   9.725
15048WAT     H245387   3.067   6.008   9.714
15049WAT      O45388   6.470   1.240   8.413
15049WAT     H145389   6.538   1.189   8.466
15049WAT     H245390   6.427   1.309   8.472
15050WAT      O45391   0.528   5.745   1.661
15050WAT     H145392   0.607   5.807   1.659
15050WAT     H245393   0.527   5.697   1.748
15051WAT      O45394   2.829   4.007   4.604
15051WAT     H145395   2.759   3.974   4.540
15051WAT     H245396   2.850   3.934   4.669
15052WAT      O45397   9.256   4.514   9.358
15052WAT     H145398   9.297   4.434   9.313
15052WAT     H245399   9.161   4.495   9.380
15053WAT      O45400   8.152   3.671   2.966
15053WAT     H145401   8.187   3.682   3.059
15053WAT     H245402   8.199   3.735   2.905
15054WAT      O45403   6.338   9.086   0.519
15054WAT     H145404   6.359   9.128   0.607
15054WAT     H245405   6.393   9.003   0.508
15055WAT      O45406   1.108   8.078   4.664
15055WAT     H145407   1.037   8.030   4.612
15055WAT     H245408   1.130   8.164   4.617
15056WAT      O45409   9.217   4.918   1.357
15056WAT     H145410   9.263   4.846   1.305
15056WAT     H245411   9.281   4.993   1.375
15057WAT      O45412   4.158   3.182   3.168
15057WAT     H145413   4.203   3.120   3.104
15057WAT     H245414   4.225   3.246   3.205
15058WAT      O45415   2.063   9.192   0.992
15058WAT     H145416   2.026   9.191   0.900
15058WAT     H245417   2.118   9.110   1.007
15059WAT      O45418   0.304   4.200   6.584
15059WAT     H145419   0.235   4.261   6.624
15059WAT     H245420   0.395   4.234   6.607
15060WAT      O45421   6.437   4.335   1.221
15060WAT     H145422   6.414   4.238   1.230
15060WAT     H245423   6.439   4.359   1.124
15061WAT      O45424   3.674   0.425   3.271
15061WAT     H145425   3.638   0.332   3.272
15061WAT     H245426   3.701   0.449   3.177
15062WAT      O45427   5.143   3.642   2.460
15062WAT     H145428   5.055   3.680   2.488
15062WAT     H245429   5.147   3.545   2.483
15063WAT      O45430   0.566   3.657   2.480
15063WAT     H145431   0.531   3.743   2.517
15063WAT     H245432   0.601   3.601   2.555
15064WAT      O45433   9.680   1.862   0.188
15064WAT     H145434   9.676   1.816   0.277
15064WAT     H245435   9.606   1.830   0.129
15065WAT      O45436   0.430   7.532   3.263
15065WAT     H145437   0.455   7.564   3.172
15065WAT     H245438   0.331   7.519   3.268
15066WAT      O45439   6.182   1.050   5.098
15066WAT     H145440   6.262   1.002   5.062
15066WAT     H245441   6.211   1.119   5.164
15067WAT      O45442   6.445   6.507   6.824
15067WAT     H145443   6.407   6.596   6.851
15067WAT     H245444   6.452   6.504   6.724
15068WAT      O45445   8.416   7.429   1.501
15068WAT     H145446   8.486   7.380   1.449
15068WAT     H245447   8.353   7.362   1.541
15069WAT      O45448   9.455   0.332   9.794
15069WAT     H145449   9.381   0.397   9.774
15069WAT     H245450   9.424   0.267   9.863
15070WAT      O45451   9.745   2.000   5.075
15070WAT     H145452   9.666   1.959   5.029
15070WAT     H245453   9.719   2.028   5.168
15071WAT      O45454   7.650   7.146   9.496
15071WAT     H145455   7.658   7.159   9.397
15071WAT     H245456   7.604   7.225   9.537
15072WAT      O45457   5.316   9.214   9.092
15072WAT     H145458   5.400   9.177   9.131
15072WAT     H245459   5.339   9.282   9.022
15073WAT      O45460   1.163   5.247   1.447
15073WAT     H145461   1.205   5.162   1.480
15073WAT     H245462   1.114   5.228   1.362
15074WAT      O45463   7.114   3.443   1.781
15074WAT     H145464   7.121   3.542   1.771
15074WAT     H245465   7.048   3.408   1.714
15075WAT      O45466   3.388   3.693   0.120
15075WAT     H145467   3.319   3.723   0.185
15075WAT     H245468   3.443   3.771   0.091
15076WAT      O45469   2.432   9.175   9.204
15076WAT     H145470   2.419   9.253   9.266
15076WAT     H245471   2.381   9.096   9.239
15077WAT      O45472   3.542   7.232   0.323
15077WAT     H145473   3.545   7.250   0.224
15077WAT     H245474   3.523   7.135   0.338
15078WAT      O45475   3.626   3.641   3.547
15078WAT     H145476   3.717   3.683   3.543
15078WAT     H245477   3.633   3.549   3.586
15079WAT      O45478   7.412   3.243   1.548
15079WAT     H145479   7.463   3.257   1.633
15079WAT     H245480   7.474   3.209   1.477
15080WAT      O45481   2.373   8.177   3.118
15080WAT     H145482   2.426   8.247   3.071
15080WAT     H245483   2.355   8.101   3.056
15081WAT      O45484   4.319   6.828   2.198
15081WAT     H145485   4.383   6.900   2.171
15081WAT     H245486   4.231   6.843   2.153
15082WAT      O45487   0.960   2.251   0.501
15082WAT     H145488   1.039   2.190   0.507
15082WAT     H245489   0.892   2.212   0.439
15083WAT      O45490   6.735   7.237   7.121
15083WAT     H145491   6.747   7.138   7.114
15083WAT     H245492   6.643   7.258   7.154
15084WAT      O45493   8.129   5.756   0.549
15084WAT     H145494   8.221   5.720   0.561
15084WAT     H245495   8.063   5.681   0.553
15085WAT      O45496   2.575   8.218   8.767
15085WAT     H145497   2.597   8.190   8.860
15085WAT     H245498   2.507   8.157   8.728
15086WAT      O45499   6.052   6.883   5.918
15086WAT     H145500   5.967   6.871   5.968
15086WAT     H245501   6.036   6.865   5.821
15087WAT      O45502   3.110   9.455   7.963
15087WAT     H145503   3.191   9.396   7.966
15087WAT     H245504   3.034   9.409   8.008
15088WAT      O45505   4.257   1.343   2.211
15088WAT     H145506   4.314   1.403   2.267
15088WAT     H245507   4.298   1.252   2.207
15089WAT      O45508   3.487   1.777   9.158
15089WAT     H145509   3.432   1.813   9.233
15089WAT     H245510   3.581   1.812   9.165
15090WAT      O45511   7.398   1.267   3.354
15090WAT     H145512   7.447   1.352   3.378
15090WAT     H245513   7.344   1.237   3.433
15091WAT      O45514   6.072   2.078   4.372
15091WAT     H145515   5.989   2.088   4.317
15091WAT     H245516   6.049   2.040   4.461
15092WAT      O45517   6.227   1.132   8.766
15092WAT     H145518   6.205   1.205   8.832
15092WAT     H245519   6.306   1.080   8.800
15093WAT      O45520   2.874   5.481   2.198
15093WAT     H145521   2.908   5.389   2.218
15093WAT     H245522   2.880   5.537   2.281
15094WAT      O45523   7.180   4.305   6.813
15094WAT     H145524   7.147   4.250   6.736
15094WAT     H245525   7.279   4.297   6.820
15095WAT      O45526   3.634   0.072   8.273
15095WAT     H145527   3.607   0.165   8.299
15095WAT     H245528   3.580   0.042   8.195
15096WAT      O45529   3.811   0.901   5.980
15096WAT     H145530   3.760   0.818   6.005
15096WAT     H245531   3.876   0.879   5.908
15097WAT      O45532   8.820   8.473   6.820
15097WAT     H145533   8.722   8.469   6.800
15097WAT     H245534   8.846   8.393   6.873
15098WAT      O45535   6.503   0.843   1.383
15098WAT     H145536   6.502   0.748   1.352
15098WAT     H245537   6.479   0.847   1.480
15099WAT      O45538   6.477   1.186   4.128
15099WAT     H145539   6.536   1.120   4.175
15099WAT     H245540   6.467   1.268   4.185
15100WAT      O45541   5.224   2.660   8.399
15100WAT     H145542   5.279   2.608   8.465
15100WAT     H245543   5.279   2.733   8.361
15101WAT      O45544   3.604   3.901   3.369
15101WAT     H145545   3.558   3.932   3.286
15101WAT     H245546   3.601   3.801   3.375
15102WAT      O45547   1.199   2.261   1.126
15102WAT     H145548   1.295   2.289   1.127
15102WAT     H245549   1.141   2.340   1.146
15103WAT      O45550   2.906   9.313   8.041
15103WAT     H145551   2.845   9.297   8.119
15103WAT     H245552   2.859   9.370   7.974
15104WAT      O45553   9.826   9.487   8.267
15104WAT     H145554   9.916   9.446   8.255
15104WAT     H245555   9.824   9.537   8.354
15105WAT      O45556   4.804   6.475   2.285
15105WAT     H145557   4.829   6.399   2.345
15105WAT     H245558   4.737   6.532   2.332
15106WAT      O45559   7.938   9.729   7.581
15106WAT     H145560   7.930   9.802   7.649
15106WAT     H245561   7.983   9.765   7.499
15107WAT      O45562   7.169   1.560   5.923
15107WAT     H145563   7.181   1.500   5.844
15107WAT     H245564   7.082   1.608   5.915
15108WAT      O45565   8.370   5.245   8.726
15108WAT     H145566   8.452   5.190   8.741
15108WAT     H245567   8.390   5.317   8.659
15109WAT      O45568   9.191   4.790   2.507
15109WAT     H145569   9.258   4.788   2.581
15109WAT     H245570   9.106   4.832   2.540
15110WAT      O45571   9.578   7.274   5.357
15110WAT     H145572   9.572   7.217   5.439
15110WAT     H245573   9.645   7.347   5.372
15111WAT      O45574   0.116   8.896   8.874
15111WAT     H145575   0.031   8.942   8.896
15111WAT     H245576   0.165   8.947   8.804
15112WAT      O45577   4.534   2.796   0.838
15112WAT     H145578   4.536   2.704   0.797
15112WAT     H245579   4.442   2.815   0.871
15113WAT      O45580   6.047   9.059   2.190
15113WAT     H145581   5.998   9.136   2.229
15113WAT     H245582   5.982   8.992   2.154
15114WAT      O45583   8.094   0.505   7.452
15114WAT     H145584   8.059   0.423   7.499
15114WAT     H245585   8.191   0.516   7.472
15115WAT      O45586   9.417   5.201   8.261
15115WAT     H145587   9.399   5.131   8.329
15115WAT     H245588   9.391   5.291   8.297
15116WAT      O45589   1.566   9.464   9.611
15116WAT     H145590   1.632   9.398   9.646
15116WAT     H245591   1.612   9.532   9.554
15117WAT      O45592   4.408   1.692   6.940
15117WAT     H145593   4.432   1.770   6.882
15117WAT     H245594   4.351   1.723   7.016
15118WAT      O45595   7.132   9.183   7.505
15118WAT     H145596   7.085   9.268   7.482
15118WAT     H245597   7.219   9.179   7.457
15119WAT      O45598   3.594   4.800   6.272
15119WAT     H145599   3.691   4.799   6.298
15119WAT     H245600   3.541   4.846   6.344
15120WAT      O45601   9.491   1.026   3.234
15120WAT     H145602   9.425   1.097   3.207
15120WAT     H245603   9.443   0.941   3.251
15121WAT      O45604   4.533   6.002   8.352
15121WAT     H145605   4.478   6.085   8.347
15121WAT     H245606   4.495   5.933   8.289
15122WAT      O45607   3.474   8.083   7.459
15122WAT     H145608   3.473   8.026   7.377
15122WAT     H245609   3.385   8.078   7.505
15123WAT      O45610   7.032   3.608   2.035
15123WAT     H145611   7.119   3.630   1.990
15123WAT     H245612   7.038   3.517   2.075
15124WAT      O45613   0.868   9.273   4.473
15124WAT     H145614   0.942   9.326   4.515
15124WAT     H245615   0.780   9.315   4.495
15125WAT      O45616   8.980   1.568   9.063
15125WAT     H145617   8.936   1.512   9.133
15125WAT     H245618   9.077   1.578   9.084
15126WAT      O45619   8.771   4.001   0.256
15126WAT     H145620   8.689   4.011   0.199
15126WAT     H245621   8.825   4.085   0.250
15127WAT      O45622   8.516   6.008   4.277
15127WAT     H145623   8.466   5.943   4.219
15127WAT     H245624   8.582   5.959   4.334
15128WAT      O45625   8.280   5.259   9.434
15128WAT     H145626   8.264   5.355   9.414
15128WAT     H245627   8.234   5.234   9.519
15129WAT      O45628   2.309   0.920   5.044
15129WAT     H145629   2.353   0.871   5.119
15129WAT     H245630   2.280   1.010   5.075
15130WAT      O45631   4.096   9.829   4.776
15130WAT     H145632   4.169   9.862   4.835
15130WAT     H245633   4.136   9.782   4.697
15131WAT      O45634   8.613   0.521   4.012
15131WAT     H145635   8.664   0.461   4.074
15131WAT     H245636   8.515   0.498   4.017
15132WAT      O45637   9.658   9.135   0.283
15132WAT     H145638   9.694   9.156   0.192
15132WAT     H245639   9.562   9.165   0.289
15133WAT      O45640   3.744   0.192   2.017
15133WAT     H145641   3.711   0.256   1.948
15133WAT     H245642   3.811   0.129   1.976
15134WAT      O45643   2.547   8.036   9.794
15134WAT     H145644   2.618   8.106   9.796
15134WAT     H245645   2.485   8.049   9.871
15135WAT      O45646   3.581   6.568   3.941
15135WAT     H145647   3.523   6.563   3.860
15135WAT     H245648   3.599   6.476   3.975
15136WAT      O45649   3.443   6.602   8.570
15136WAT     H145650   3.365   6.545   8.545
15136WAT     H245651   3.498   6.555   8.639
15137WAT      O45652   7.818   3.265   5.863
15137WAT     H145653   7.785   3.347   5.909
15137WAT     H245654   7.865   3.206   5.929
15138WAT      O45655   2.892   6.689   7.665
15138WAT     H145656   2.849   6.777   7.687
15138WAT     H245657   2.835   6.615   7.701
15139WAT      O45658   7.624   6.465   0.233
15139WAT     H145659   7.719   6.478   0.261
15139WAT     H245660   7.619   6.389   0.168
15140WAT      O45661   6.312   0.741   6.504
15140WAT     H145662   6.264   0.828   6.518
15140WAT     H245663   6.261   0.667   6.548
15141WAT      O45664   1.239   6.058   7.828
15141WAT     H145665   1.285   5.973   7.854
15141WAT     H245666   1.220   6.111   7.910
15142WAT      O45667   8.338   8.858   5.829
15142WAT     H145668   8.365   8.876   5.924
15142WAT     H245669   8.239   8.845   5.824
15143WAT      O45670   5.401   9.614   2.213
15143WAT     H145671   5.473   9.553   2.247
15143WAT     H245672   5.421   9.708   2.242
15144WAT      O45673   2.151   0.584   6.589
15144WAT     H145674   2.226   0.518   6.597
15144WAT     H245675   2.070   0.548   6.635
15145WAT      O45676   4.183   1.110   9.529
15145WAT     H145677   4.239   1.031   9.504
15145WAT     H245678   4.220   1.192   9.485
15146WAT      O45679   3.418   4.374   0.779
15146WAT     H145680   3.457   4.319   0.705
15146WAT     H245681   3.334   4.332   0.812
15147WAT      O45682   6.874   6.767   8.379
15147WAT     H145683   6.957   6.713   8.394
15147WAT     H245684   6.882   6.855   8.425
15148WAT      O45685   1.181   1.702   0.926
15148WAT     H145686   1.166   1.608   0.896
15148WAT     H245687   1.277   1.715   0.947
15149WAT      O45688   7.490   9.396   5.092
15149WAT     H145689   7.502   9.308   5.139
15149WAT     H245690   7.534   9.468   5.146
15150WAT      O45691   2.399   6.053   4.419
15150WAT     H145692   2.389   6.113   4.498
15150WAT     H245693   2.453   5.973   4.444
15151WAT      O45694   8.146   3.580   4.854
15151WAT     H145695   8.174   3.646   4.784
15151WAT     H245696   8.226   3.529   4.885
15152WAT      O45697   1.756   8.691   2.067
15152WAT     H145698   1.659   8.668   2.075
15152WAT     H245699   1.775   8.773   2.121
15153WAT      O45700   2.506   6.104   7.782
15153WAT     H145701   2.547   6.030   7.835
15153WAT     H245702   2.563   6.123   7.702
15154WAT      O45703   5.697   2.497   3.890
15154WAT     H145704   5.669   2.410   3.932
15154WAT     H245705   5.642   2.571   3.928
15155WAT      O45706   7.996   5.201   2.267
15155WAT     H145707   8.029   5.248   2.348
15155WAT     H245708   8.068   5.141   2.231
15156WAT      O45709   4.557   6.562   5.615
15156WAT     H145710   4.582   6.659   5.611
15156WAT     H245711   4.612   6.516   5.685
15157WAT      O45712   9.094   5.146   0.258
15157WAT     H145713   9.025   5.183   0.321
15157WAT     H245714   9.072   5.051   0.237
15158WAT      O45715   5.725   4.775   7.270
15158WAT     H145716   5.717   4.811   7.177
15158WAT     H245717   5.818   4.742   7.285
15159WAT      O45718   9.291   3.138   1.433
15159WAT     H145719   9.290   3.234   1.462
15159WAT     H245720   9.200   3.098   1.448
15160WAT      O45721   6.969   3.954   4.842
15160WAT     H145722   6.973   4.052   4.862
15160WAT     H245723   6.960   3.941   4.743
15161WAT      O45724   7.871   5.745   3.271
15161WAT     H145725   7.952   5.688   3.287
15161WAT     H245726   7.850   5.747   3.174
15162WAT      O45727   2.956   1.570   2.345
15162WAT     H145728   2.911   1.654   2.314
15162WAT     H245729   2.961   1.504   2.270
15163WAT      O45730   5.169   4.333   7.338
15163WAT     H145731   5.156   4.428   7.307
15163WAT     H245732   5.157   4.328   7.437
15164WAT      O45733   6.690   2.992   8.545
15164WAT     H145734   6.731   3.022   8.459
15164WAT     H245735   6.645   2.904   8.531
15165WAT      O45736   4.659   0.260   2.071
15165WAT     H145737   4.662   0.171   2.115
15165WAT     H245738   4.707   0.255   1.983
15166WAT      O45739   6.749   7.325   7.515
15166WAT     H145740   6.833   7.306   7.465
15166WAT     H245741   6.740   7.424   7.529
15167WAT      O45742   4.833   7.985   5.027
15167WAT     H145743   4.907   7.925   5.058
15167WAT     H245744   4.747   7.956   5.068
15168WAT      O45745   8.890   9.456   6.424
15168WAT     H145746   8.811   9.400   6.399
15168WAT     H245747   8.969   9.428   6.370
15169WAT      O45748   9.095   5.088   6.687
15169WAT     H145749   9.127   5.117   6.777
15169WAT     H245750   9.018   5.147   6.658
15170WAT      O45751   4.524   0.169   6.015
15170WAT     H145752   4.611   0.119   6.012
15170WAT     H245753   4.496   0.181   6.110
15171WAT      O45754   5.569   0.729   3.783
15171WAT     H145755   5.640   0.757   3.719
15171WAT     H245756   5.574   0.785   3.866
15172WAT      O45757   7.194   7.008   9.494
15172WAT     H145758   7.215   7.105   9.501
15172WAT     H245759   7.190   6.982   9.397
15173WAT      O45760   9.194   3.668   0.502
15173WAT     H145761   9.131   3.650   0.427
15173WAT     H245762   9.157   3.631   0.587
15174WAT      O45763   8.347   8.094   7.746
15174WAT     H145764   8.275   8.164   7.744
15174WAT     H245765   8.392   8.090   7.657
15175WAT      O45766   6.161   9.077   1.953
15175WAT     H145767   6.171   8.985   1.915
15175WAT     H245768   6.120   9.071   2.044
15176WAT      O45769   9.196   4.438   7.655
15176WAT     H145770   9.217   4.412   7.561
15176WAT     H245771   9.161   4.358   7.704
15177WAT      O45772   3.716   3.212   4.448
15177WAT     H145773   3.621   3.186   4.464
15177WAT     H245774   3.770   3.191   4.530
15178WAT      O45775   6.985   9.389   8.204
15178WAT     H145776   6.972   9.298   8.242
15178WAT     H245777   7.079   9.400   8.172
15179WAT      O45778   8.750   8.136   2.747
15179WAT     H145779   8.802   8.120   2.831
15179WAT     H245780   8.780   8.073   2.676
15180WAT      O45781   1.417   5.373   0.733
15180WAT     H145782   1.501   5.397   0.782
15180WAT     H245783   1.430   5.287   0.684
15181WAT      O45784   6.436   8.669   3.327
15181WAT     H145785   6.377   8.598   3.289
15181WAT     H245786   6.526   8.630   3.346
15182WAT      O45787   7.107   8.105   9.769
15182WAT     H145788   7.169   8.026   9.768
15182WAT     H245789   7.094   8.136   9.863
15183WAT      O45790   7.378   7.728   5.940
15183WAT     H145791   7.328   7.652   5.898
15183WAT     H245792   7.476   7.714   5.929
15184WAT      O45793   2.453   6.201   1.598
15184WAT     H145794   2.550   6.223   1.609
15184WAT     H245795   2.407   6.275   1.549
15185WAT      O45796   0.044   4.830   1.926
15185WAT     H145797   0.065   4.905   1.863
15185WAT     H245798   0.109   4.755   1.911
15186WAT      O45799   6.858   3.083   1.149
15186WAT     H145800   6.845   3.118   1.056
15186WAT     H245801   6.952   3.099   1.178
15187WAT      O45802   7.925   5.855   6.157
15187WAT     H145803   8.017   5.893   6.153
15187WAT     H245804   7.890   5.840   6.065
15188WAT      O45805   5.173   3.764   7.845
15188WAT     H145806   5.192   3.671   7.813
15188WAT     H245807   5.074   3.777   7.855
15189WAT      O45808   7.994   8.785   4.774
15189WAT     H145809   8.039   8.874   4.780
15189WAT     H245810   7.911   8.793   4.718
15190WAT      O45811   6.483   8.203   8.526
15190WAT     H145812   6.552   8.145   8.571
15190WAT     H245813   6.428   8.147   8.464
15191WAT      O45814   8.533   8.259   3.321
15191WAT     H145815   8.458   8.300   3.269
15191WAT     H245816   8.504   8.245   3.416
15192WAT      O45817   7.438   9.032   3.586
15192WAT     H145818   7.405   9.110   3.639
15192WAT     H245819   7.360   8.983   3.547
15193WAT      O45820   8.666   2.579   2.435
15193WAT     H145821   8.727   2.656   2.452
15193WAT     H245822   8.689   2.535   2.349
15194WAT      O45823   9.308   0.339   9.325
15194WAT     H145824   9.406   0.324   9.315
15194WAT     H245825   9.287   0.435   9.308
15195WAT      O45826   4.161   6.048   9.086
15195WAT     H145827   4.192   6.071   9.178
15195WAT     H245828   4.203   5.962   9.057
15196WAT      O45829   6.606   1.721   7.760
15196WAT     H145830   6.665   1.705   7.680
15196WAT     H245831   6.539   1.792   7.738
15197WAT      O45832   8.294   9.420   6.506
15197WAT     H145833   8.250   9.495   6.555
15197WAT     H245834   8.237   9.391   6.430
15198WAT      O45835   4.699   0.571   0.256
15198WAT     H145836   4.734   0.480   0.278
15198WAT     H245837   4.767   0.620   0.202
15199WAT      O45838   7.607   8.989   4.366
15199WAT     H145839   7.562   8.954   4.285
15199WAT     H245840   7.555   8.962   4.447
15200WAT      O45841   3.097   5.768   2.509
15200WAT     H145842   3.110   5.860   2.547
15200WAT     H245843   3.156   5.704   2.557
15201WAT      O45844   0.775   5.774   2.968
15201WAT     H145845   0.833   5.838   3.018
15201WAT     H245846   0.758   5.809   2.876
15202WAT      O45847   8.695   8.978   3.437
15202WAT     H145848   8.660   9.008   3.526
15202WAT     H245849   8.772   9.037   3.411
15203WAT      O45850   5.488   8.362   6.911
15203WAT     H145851   5.457   8.339   7.003
15203WAT     H245852   5.507   8.279   6.859
15204WAT      O45853   5.113   9.549   6.981
15204WAT     H145854   5.134   9.629   6.925
15204WAT     H245855   5.030   9.566   7.035
15205WAT      O45856   0.715   3.413   8.753
15205WAT     H145857   0.654   3.338   8.728
15205WAT     H245858   0.810   3.384   8.743
15206WAT      O45859   3.648   3.785   1.386
15206WAT     H145860   3.643   3.704   1.329
15206WAT     H245861   3.736   3.831   1.371
15207WAT      O45862   0.068   7.451   8.368
15207WAT     H145863   0.141   7.518   8.358
15207WAT     H245864   0.043   7.413   8.279
15208WAT      O45865   8.049   3.059   0.017
15208WAT     H145866   8.012   3.026   0.103
15208WAT     H245867   7.986   3.035  -0.058
15209WAT      O45868   8.837   7.914   5.007
15209WAT     H145869   8.790   7.982   4.950
15209WAT     H245870   8.771   7.874   5.071
15210WAT      O45871   3.927   1.674   8.010
15210WAT     H145872   3.928   1.708   8.104
15210WAT     H245873   4.017   1.688   7.969
15211WAT      O45874   4.119   5.986   5.580
15211WAT     H145875   4.200   5.930   5.562
15211WAT     H245876   4.145   6.083   5.577
15212WAT      O45877   3.182   9.740   6.972
15212WAT     H145878   3.177   9.839   6.986
15212WAT     H245879   3.175   9.720   6.874
15213WAT      O45880   0.036   3.761   5.238
15213WAT     H145881   0.086   3.743   5.323
15213WAT     H245882   0.073   3.703   5.165
15214WAT      O45883   9.689   7.949   9.677
15214WAT     H145884   9.704   7.987   9.586
15214WAT     H245885   9.627   8.009   9.728
15215WAT      O45886   2.587   4.655   4.767
15215WAT     H145887   2.661   4.671   4.833
15215WAT     H245888   2.503   4.699   4.801
15216WAT      O45889   3.586   2.916   3.634
15216WAT     H145890   3.663   2.897   3.574
15216WAT     H245891   3.577   3.015   3.648
15217WAT      O45892   7.913   1.580   1.727
15217WAT     H145893   7.877   1.671   1.748
15217WAT     H245894   8.013   1.584   1.725
15218WAT      O45895   3.146   9.068   0.781
15218WAT     H145896   3.190   9.005   0.846
15218WAT     H245897   3.213   9.097   0.713
15219WAT      O45898   1.620   4.980   2.664
15219WAT     H145899   1.655   4.915   2.731
15219WAT     H245900   1.558   5.045   2.709
15220WAT      O45901   5.065   3.235   7.562
15220WAT     H145902   5.039   3.138   7.562
15220WAT     H245903   5.009   3.285   7.628
15221WAT      O45904   1.378   2.313   5.962
15221WAT     H145905   1.285   2.290   5.932
15221WAT     H245906   1.401   2.260   6.044
15222WAT      O45907   4.580   9.492   2.882
15222WAT     H145908   4.667   9.539   2.876
15222WAT     H245909   4.516   9.529   2.814
15223WAT      O45910   3.299   7.587   9.824
15223WAT     H145911   3.290   7.682   9.856
15223WAT     H245912   3.210   7.553   9.794
15224WAT      O45913   6.051   7.086   6.255
15224WAT     H145914   6.094   7.143   6.325
15224WAT     H245915   6.030   6.996   6.294
15225WAT      O45916   0.642   9.439   9.633
15225WAT     H145917   0.549   9.401   9.629
15225WAT     H245918   0.651   9.494   9.716
15226WAT      O45919   8.589   3.203   8.300
15226WAT     H145920   8.604   3.246   8.211
15226WAT     H245921   8.513   3.138   8.293
15227WAT      O45922   7.289   2.585   5.471
15227WAT     H145923   7.261   2.672   5.431
15227WAT     H245924   7.294   2.594   5.570
15228WAT      O45925   7.462   2.847   8.481
15228WAT     H145926   7.470   2.932   8.533
15228WAT     H245927   7.553   2.812   8.461
15229WAT      O45928   1.716   9.265   2.350
15229WAT     H145929   1.702   9.192   2.284
15229WAT     H245930   1.634   9.278   2.406
15230WAT      O45931   2.071   4.467   2.231
15230WAT     H145932   1.989   4.434   2.277
15230WAT     H245933   2.152   4.430   2.277
15231WAT      O45934   0.577   1.171   3.247
15231WAT     H145935   0.673   1.162   3.221
15231WAT     H245936   0.524   1.202   3.168
15232WAT      O45937   9.329   9.342   3.082
15232WAT     H145938   9.331   9.321   2.984
15232WAT     H245939   9.308   9.259   3.133
15233WAT      O45940   0.916   0.731   4.447
15233WAT     H145941   0.871   0.644   4.469
15233WAT     H245942   0.855   0.786   4.391
15234WAT      O45943   3.325   1.683   1.517
15234WAT     H145944   3.327   1.705   1.420
15234WAT     H245945   3.372   1.755   1.569
15235WAT      O45946   1.276   6.445   0.402
15235WAT     H145947   1.234   6.515   0.460
15235WAT     H245948   1.302   6.486   0.315
15236WAT      O45949   0.026   4.053   8.092
15236WAT     H145950   0.047   4.027   7.998
15236WAT     H245951  -0.029   4.137   8.092
15237WAT      O45952   0.739   7.844   3.869
15237WAT     H145953   0.752   7.837   3.967
15237WAT     H245954   0.796   7.917   3.832
15238WAT      O45955   1.461   8.926   7.190
15238WAT     H145956   1.362   8.930   7.177
15238WAT     H245957   1.495   9.017   7.213
15239WAT      O45958   6.817   4.763   6.383
15239WAT     H145959   6.760   4.681   6.374
15239WAT     H245960   6.901   4.752   6.329
15240WAT      O45961   6.957   4.533   6.204
15240WAT     H145962   6.993   4.440   6.213
15240WAT     H245963   7.025   4.599   6.234
15241WAT      O45964   6.561   1.943   4.114
15241WAT     H145965   6.513   1.989   4.188
15241WAT     H245966   6.501   1.936   4.035
15242WAT      O45967   4.055   6.797   0.363
15242WAT     H145968   4.085   6.813   0.268
15242WAT     H245969   4.019   6.883   0.401
15243WAT      O45970   3.575   4.005   9.521
15243WAT     H145971   3.584   4.012   9.422
15243WAT     H245972   3.647   4.058   9.566
15244WAT      O45973   6.958   2.834   7.333
15244WAT     H145974   6.958   2.851   7.432
15244WAT     H245975   6.866   2.805   7.305
15245WAT      O45976   1.753   1.777   7.507
15245WAT     H145977   1.833   1.754   7.450
15245WAT     H245978   1.680   1.711   7.490
15246WAT      O45979   8.352   3.936   8.603
15246WAT     H145980   8.271   3.930   8.660
15246WAT     H245981   8.414   3.860   8.625
15247WAT      O45982   7.766   0.643   1.939
15247WAT     H145983   7.733   0.652   1.845
15247WAT     H245984   7.688   0.631   2.000
15248WAT      O45985   9.818   8.254   4.767
15248WAT     H145986   9.908   8.222   4.796
15248WAT     H245987   9.827   8.310   4.685
15249WAT      O45988   7.502   5.755   9.024
15249WAT     H145989   7.497   5.678   9.087
15249WAT     H245990   7.416   5.762   8.973
15250WAT      O45991   8.079   0.364   7.826
15250WAT     H145992   8.128   0.442   7.787
15250WAT     H245993   8.053   0.384   7.920
15251WAT      O45994   8.142   3.645   8.132
15251WAT     H145995   8.045   3.668   8.131
15251WAT     H245996   8.155   3.554   8.171
15252WAT      O45997   8.909   6.854   7.515
15252WAT     H145998   8.891   6.794   7.437
15252WAT     H245999   8.893   6.949   7.489
15253WAT      O46000   7.852   3.678   4.410
15253WAT     H146001   7.774   3.730   4.377
15253WAT     H246002   7.926   3.682   4.343
15254WAT      O46003   8.907   6.046   1.887
15254WAT     H146004   8.957   6.007   1.964
15254WAT     H246005   8.904   6.145   1.897
15255WAT      O46006   6.750   4.526   5.998
15255WAT     H146007   6.687   4.604   6.004
15255WAT     H246008   6.802   4.519   6.083
15256WAT      O46009   1.168   0.288   1.243
15256WAT     H146010   1.196   0.219   1.177
15256WAT     H246011   1.248   0.327   1.288
15257WAT      O46012   1.305   3.824   5.036
15257WAT     H146013   1.384   3.825   4.974
15257WAT     H246014   1.335   3.844   5.129
15258WAT      O46015   9.133   0.720   1.759
15258WAT     H146016   9.054   0.660   1.766
15258WAT     H246017   9.109   0.811   1.793
15259WAT      O46018   7.577   5.045   5.354
15259WAT     H146019   7.615   5.048   5.261
15259WAT     H246020   7.606   5.127   5.404
15260WAT      O46021   0.038   8.800   0.693
15260WAT     H146022   0.040   8.880   0.753
15260WAT     H246023   0.008   8.720   0.745
15261WAT      O46024   2.702   7.917   8.969
15261WAT     H146025   2.690   7.869   9.056
15261WAT     H246026   2.690   8.015   8.982
15262WAT      O46027   9.832   6.742   1.583
15262WAT     H146028   9.766   6.722   1.511
15262WAT     H246029   9.915   6.780   1.543
15263WAT      O46030   6.182   7.618   1.596
15263WAT     H146031   6.254   7.686   1.604
15263WAT     H246032   6.201   7.540   1.656
15264WAT      O46033   1.504   5.217   1.696
15264WAT     H146034   1.544   5.287   1.637
15264WAT     H246035   1.573   5.181   1.758
15265WAT      O46036   0.314   1.536   5.267
15265WAT     H146037   0.238   1.542   5.202
15265WAT     H246038   0.289   1.581   5.352
15266WAT      O46039   1.385   6.812   6.950
15266WAT     H146040   1.417   6.739   7.010
15266WAT     H246041   1.448   6.889   6.953
15267WAT      O46042   2.995   2.728   7.470
15267WAT     H146043   2.966   2.701   7.561
15267WAT     H246044   2.919   2.717   7.406
15268WAT      O46045   9.304   9.569   7.705
15268WAT     H146046   9.211   9.539   7.726
15268WAT     H246047   9.346   9.507   7.638
15269WAT      O46048   5.971   7.391   6.059
15269WAT     H146049   6.016   7.303   6.043
15269WAT     H246050   5.876   7.386   6.029
15270WAT      O46051   3.637   1.106   3.239
15270WAT     H146052   3.666   1.018   3.275
15270WAT     H246053   3.704   1.138   3.172
15271WAT      O46054   1.643   4.927   0.298
15271WAT     H146055   1.719   4.984   0.265
15271WAT     H246056   1.671   4.880   0.381
15272WAT      O46057   7.660   0.085   3.078
15272WAT     H146058   7.759   0.068   3.082
15272WAT     H246059   7.635   0.151   3.149
15273WAT      O46060   3.209   3.544   9.862
15273WAT     H146061   3.189   3.475   9.932
15273WAT     H246062   3.268   3.615   9.900
15274WAT      O46063   4.188   3.662   6.868
15274WAT     H146064   4.127   3.592   6.903
15274WAT     H246065   4.222   3.635   6.778
15275WAT      O46066   4.824   7.995   3.944
15275WAT     H146067   4.742   7.952   3.905
15275WAT     H246068   4.879   7.925   3.990
15276WAT      O46069   8.287   0.923   1.313
15276WAT     H146070   8.236   0.849   1.269
15276WAT     H246071   8.223   0.984   1.361
15277WAT      O46072   8.131   6.684   6.966
15277WAT     H146073   8.107   6.736   6.883
15277WAT     H246074   8.054   6.685   7.029
15278WAT      O46075   3.129   0.667   1.960
15278WAT     H146076   3.150   0.765   1.952
15278WAT     H246077   3.207   0.614   1.927
15279WAT      O46078   7.886   0.823   5.700
15279WAT     H146079   7.812   0.837   5.635
15279WAT     H246080   7.850   0.784   5.785
15280WAT      O46081   3.688  -0.001   1.024
15280WAT     H146082   3.728  -0.019   0.934
15280WAT     H246083   3.627   0.078   1.019
15281WAT      O46084   6.793   3.484   6.878
15281WAT     H146085   6.712   3.541   6.865
15281WAT     H246086   6.874   3.536   6.850
15282WAT      O46087   6.350   9.709   6.570
15282WAT     H146088   6.442   9.672   6.578
15282WAT     H246089   6.292   9.670   6.641
15283WAT      O46090   2.947   8.994   1.162
15283WAT     H146091   2.906   9.011   1.073
15283WAT     H246092   3.041   9.027   1.162
15284WAT      O46093   9.324   5.825   4.818
15284WAT     H146094   9.283   5.735   4.827
15284WAT     H246095   9.415   5.824   4.859
15285WAT      O46096   4.612   7.571   2.538
15285WAT     H146097   4.699   7.553   2.492
15285WAT     H246098   4.576   7.659   2.508
15286WAT      O46099   1.442   2.461   8.319
15286WAT     H146100   1.409   2.550   8.350
15286WAT     H246101   1.483   2.412   8.396
15287WAT      O46102   2.618   4.762   9.466
15287WAT     H146103   2.688   4.690   9.464
15287WAT     H246104   2.636   4.822   9.544
15288WAT      O46105   1.155   0.613   0.145
15288WAT     H146106   1.099   0.693   0.166
15288WAT     H246107   1.252   0.638   0.149
15289WAT      O46108   3.373   9.699   3.764
15289WAT     H146109   3.303   9.696   3.692
15289WAT     H246110   3.351   9.772   3.829
15290WAT      O46111   8.982   5.163   1.766
15290WAT     H146112   8.897   5.187   1.719
15290WAT     H246113   9.028   5.090   1.717
15291WAT      O46114   2.191   1.698   6.950
15291WAT     H146115   2.261   1.764   6.922
15291WAT     H246116   2.187   1.623   6.884
15292WAT      O46117   3.356   4.101   8.716
15292WAT     H146118   3.275   4.079   8.664
15292WAT     H246119   3.409   4.171   8.668
15293WAT      O46120   2.527   0.782   3.870
15293WAT     H146121   2.576   0.694   3.868
15293WAT     H246122   2.471   0.791   3.788
15294WAT      O46123   3.638   3.584   3.885
15294WAT     H146124   3.629   3.535   3.799
15294WAT     H246125   3.714   3.649   3.879
15295WAT      O46126   3.067   7.922   2.325
15295WAT     H146127   3.134   7.970   2.268
15295WAT     H246128   3.098   7.922   2.420
15296WAT      O46129   9.327   0.529   4.456
15296WAT     H146130   9.247   0.551   4.512
15296WAT     H246131   9.351   0.432   4.467
15297WAT      O46132   5.951   7.975   8.501
15297WAT     H146133   5.866   8.008   8.459
15297WAT     H246134   5.979   7.889   8.458
15298WAT      O46135   7.494   2.136   9.284
15298WAT     H146136   7.408   2.188   9.280
15298WAT     H246137   7.566   2.189   9.238
15299WAT      O46138   0.687   0.180   8.853
15299WAT     H146139   0.678   0.217   8.760
15299WAT     H246140   0.602   0.193   8.902
15300WAT      O46141   1.205   1.999   0.263
15300WAT     H146142   1.163   1.976   0.351
15300WAT     H246143   1.305   1.997   0.273
15301WAT      O46144   1.926   7.633   6.713
15301WAT     H146145   1.985   7.666   6.787
15301WAT     H246146   1.960   7.545   6.680
15302WAT      O46147   9.091   1.903   4.546
15302WAT     H146148   9.068   1.822   4.601
15302WAT     H246149   9.088   1.880   4.449
15303WAT      O46150   8.634   9.393   1.253
15303WAT     H146151   8.697   9.329   1.209
15303WAT     H246152   8.544   9.351   1.262
15304WAT      O46153   5.511   6.002   9.692
15304WAT     H146154   5.471   5.922   9.646
15304WAT     H246155   5.473   6.011   9.784
15305WAT      O46156   8.463   0.289   9.050
15305WAT     H146157   8.511   0.343   9.120
15305WAT     H246158   8.420   0.351   8.984
15306WAT      O46159   6.225   8.727   4.258
15306WAT     H146160   6.288   8.800   4.231
15306WAT     H246161   6.256   8.641   4.219
15307WAT      O46162   2.671   5.945   7.978
15307WAT     H146163   2.770   5.958   7.981
15307WAT     H246164   2.644   5.877   8.045
15308WAT      O46165   2.033   1.276   0.676
15308WAT     H146166   1.978   1.279   0.592
15308WAT     H246167   2.042   1.368   0.713
15309WAT      O46168   6.918   7.851   4.379
15309WAT     H146169   6.966   7.935   4.353
15309WAT     H246170   6.909   7.792   4.299
15310WAT      O46171   4.349   3.086   2.205
15310WAT     H146172   4.267   3.072   2.148
15310WAT     H246173   4.420   3.130   2.150
15311WAT      O46174   2.997   3.035   4.556
15311WAT     H146175   2.898   3.037   4.543
15311WAT     H246176   3.020   2.969   4.627
15312WAT      O46177   3.583   8.578   3.165
15312WAT     H146178   3.615   8.487   3.139
15312WAT     H246179   3.660   8.642   3.162
15313WAT      O46180   2.388   8.334   4.693
15313WAT     H146181   2.448   8.409   4.666
15313WAT     H246182   2.309   8.369   4.743
15314WAT      O46183   4.566   1.501   2.042
15314WAT     H146184   4.614   1.532   1.961
15314WAT     H246185   4.491   1.564   2.063
15315WAT      O46186   5.216   7.571   7.388
15315WAT     H146187   5.116   7.581   7.387
15315WAT     H246188   5.256   7.646   7.440
15316WAT      O46189   5.211   8.482   3.736
15316WAT     H146190   5.145   8.414   3.703
15316WAT     H246191   5.277   8.438   3.796
15317WAT      O46192   4.315   2.916   0.474
15317WAT     H146193   4.281   2.831   0.515
15317WAT     H246194   4.415   2.914   0.470
15318WAT      O46195   0.285   3.229   0.470
15318WAT     H146196   0.311   3.317   0.431
15318WAT     H246197   0.340   3.210   0.551
15319WAT      O46198   4.133   5.497   6.595
15319WAT     H146199   4.194   5.575   6.584
15319WAT     H246200   4.038   5.528   6.594
15320WAT      O46201   3.513   7.459   6.076
15320WAT     H146202   3.596   7.421   6.034
15320WAT     H246203   3.491   7.546   6.033
15321WAT      O46204   0.827   1.502   3.543
15321WAT     H146205   0.755   1.437   3.518
15321WAT     H246206   0.907   1.486   3.486
15322WAT      O46207   5.621   0.580   1.780
15322WAT     H146208   5.624   0.485   1.751
15322WAT     H246209   5.526   0.606   1.796
15323WAT      O46210   0.294   5.372   7.474
15323WAT     H146211   0.325   5.398   7.565
15323WAT     H246212   0.199   5.401   7.462
15324WAT      O46213   4.751   0.962   6.105
15324WAT     H146214   4.830   0.922   6.151
15324WAT     H246215   4.745   1.059   6.128
15325WAT      O46216   9.478   9.291   4.159
15325WAT     H146217   9.408   9.342   4.109
15325WAT     H246218   9.438   9.253   4.243
15326WAT      O46219   2.937   6.048   7.611
15326WAT     H146220   3.010   6.113   7.629
15326WAT     H246221   2.866   6.091   7.555
15327WAT      O46222   4.052   7.808   5.579
15327WAT     H146223   4.019   7.764   5.662
15327WAT     H246224   4.024   7.904   5.579
15328WAT      O46225   1.799   1.919   9.465
15328WAT     H146226   1.737   1.932   9.543
15328WAT     H246227   1.842   1.828   9.472
15329WAT      O46228   0.148   2.749   0.292
15329WAT     H146229   0.218   2.784   0.354
15329WAT     H246230   0.191   2.704   0.214
15330WAT      O46231   0.363   5.171   9.506
15330WAT     H146232   0.447   5.117   9.502
15330WAT     H246233   0.369   5.246   9.440
15331WAT      O46234   0.171   6.670   5.610
15331WAT     H146235   0.243   6.736   5.633
15331WAT     H246236   0.083   6.718   5.604
15332WAT      O46237   5.801   5.647   9.702
15332WAT     H146238   5.879   5.618   9.647
15332WAT     H246239   5.796   5.591   9.785
15333WAT      O46240   6.484   6.300   3.167
15333WAT     H146241   6.474   6.224   3.230
15333WAT     H246242   6.445   6.383   3.208
15334WAT      O46243   0.547   1.573   1.499
15334WAT     H146244   0.450   1.578   1.478
15334WAT     H246245   0.598   1.550   1.416
15335WAT      O46246   4.039   3.091   5.706
15335WAT     H146247   3.971   3.092   5.632
15335WAT     H246248   4.123   3.135   5.674
15336WAT      O46249   4.669   5.353   1.434
15336WAT     H146250   4.708   5.316   1.517
15336WAT     H246251   4.599   5.291   1.399
15337WAT      O46252   7.033   1.742   9.864
15337WAT     H146253   7.025   1.788   9.775
15337WAT     H246254   7.042   1.643   9.849
15338WAT      O46255   7.991   9.684   1.498
15338WAT     H146256   7.953   9.754   1.558
15338WAT     H246257   7.951   9.693   1.407
15339WAT      O46258   0.287   6.321   9.447
15339WAT     H146259   0.294   6.266   9.363
15339WAT     H246260   0.251   6.264   9.521
15340WAT      O46261   1.173   0.936   1.248
15340WAT     H146262   1.100   0.893   1.302
15340WAT     H246263   1.143   0.943   1.153
15341WAT      O46264   3.606   5.393   7.581
15341WAT     H146265   3.578   5.330   7.508
15341WAT     H246266   3.581   5.355   7.670
15342WAT      O46267   9.598   9.549   5.248
15342WAT     H146268   9.663   9.602   5.193
15342WAT     H246269   9.599   9.583   5.342
15343WAT      O46270   2.580   2.575   2.603
15343WAT     H146271   2.539   2.537   2.521
15343WAT     H246272   2.548   2.669   2.617
15344WAT      O46273   9.076   9.422   7.732
15344WAT     H146274   9.047   9.332   7.700
15344WAT     H246275   9.007   9.490   7.710
15345WAT      O46276   2.286   7.051   5.508
15345WAT     H146277   2.267   7.029   5.413
15345WAT     H246278   2.250   6.978   5.566
15346WAT      O46279   0.819   5.708   4.066
15346WAT     H146280   0.902   5.657   4.041
15346WAT     H246281   0.788   5.680   4.157
15347WAT      O46282   3.167   6.995   2.560
15347WAT     H146283   3.153   7.005   2.462
15347WAT     H246284   3.167   7.085   2.603
15348WAT      O46285   1.110   7.515   1.355
15348WAT     H146286   1.104   7.417   1.376
15348WAT     H246287   1.060   7.567   1.423
15349WAT      O46288   7.972   7.106   0.272
15349WAT     H146289   7.967   7.193   0.223
15349WAT     H246290   7.879   7.076   0.297
15350WAT      O46291   1.588   1.627   6.796
15350WAT     H146292   1.521   1.699   6.776
15350WAT     H246293   1.543   1.538   6.789
15351WAT      O46294   8.139   8.663   1.022
15351WAT     H146295   8.202   8.627   0.953
15351WAT     H246296   8.145   8.607   1.105
15352WAT      O46297   1.677   2.894   2.273
15352WAT     H146298   1.651   2.990   2.268
15352WAT     H246299   1.611   2.844   2.329
15353WAT      O46300   8.673   3.943   3.220
15353WAT     H146301   8.604   3.908   3.283
15353WAT     H246302   8.699   3.871   3.155
15354WAT      O46303   6.198   3.619   3.861
15354WAT     H146304   6.203   3.680   3.940
15354WAT     H246305   6.112   3.633   3.813
15355WAT      O46306   2.522   4.333   7.622
15355WAT     H146307   2.560   4.299   7.537
15355WAT     H246308   2.508   4.432   7.615
15356WAT      O46309   4.689   6.143   3.968
15356WAT     H146310   4.745   6.114   4.045
15356WAT     H246311   4.611   6.082   3.959
15357WAT      O46312   6.294   0.306   4.076
15357WAT     H146313   6.394   0.309   4.083
15357WAT     H246314   6.268   0.242   4.004
15358WAT      O46315   7.922   7.492   6.490
15358WAT     H146316   7.936   7.429   6.414
15358WAT     H246317   7.824   7.507   6.504
15359WAT      O46318   6.988   7.923   1.106
15359WAT     H146319   6.962   7.865   1.184
15359WAT     H246320   6.942   7.890   1.024
15360WAT      O46321   5.755   2.441   3.166
15360WAT     H146322   5.785   2.456   3.072
15360WAT     H246323   5.699   2.359   3.171
15361WAT      O46324   5.641   0.849   7.348
15361WAT     H146325   5.652   0.947   7.336
15361WAT     H246326   5.727   0.809   7.378
15362WAT      O46327   5.201   1.575   7.450
15362WAT     H146328   5.245   1.542   7.366
15362WAT     H246329   5.269   1.623   7.505
15363WAT      O46330   7.804   6.913   8.601
15363WAT     H146331   7.809   6.859   8.685
15363WAT     H246332   7.885   6.973   8.595
15364WAT      O46333   8.868   4.723   5.451
15364WAT     H146334   8.892   4.626   5.446
15364WAT     H246335   8.942   4.778   5.411
15365WAT      O46336   6.056   6.915   9.559
15365WAT     H146337   6.032   6.989   9.622
15365WAT     H246338   5.972   6.868   9.530
15366WAT      O46339   5.689   6.343   1.050
15366WAT     H146340   5.680   6.244   1.033
15366WAT     H246341   5.766   6.379   0.998
15367WAT      O46342   6.375   8.404   8.240
15367WAT     H146343   6.388   8.475   8.310
15367WAT     H246344   6.380   8.447   8.150
15368WAT      O46345   0.135   1.655   0.878
15368WAT     H146346   0.176   1.725   0.820
15368WAT     H246347   0.138   1.566   0.831
15369WAT      O46348   4.163   0.138   3.740
15369WAT     H146349   4.263   0.131   3.749
15369WAT     H246350   4.123   0.047   3.747
15370WAT      O46351   2.212   6.681   6.145
15370WAT     H146352   2.147   6.651   6.215
15370WAT     H246353   2.261   6.761   6.178
15371WAT      O46354   4.802   9.554   1.146
15371WAT     H146355   4.777   9.505   1.229
15371WAT     H246356   4.785   9.652   1.160
15372WAT      O46357   9.332   8.697   2.905
15372WAT     H146358   9.407   8.633   2.922
15372WAT     H246359   9.270   8.658   2.837
15373WAT      O46360   5.085   6.759   1.494
15373WAT     H146361   5.132   6.671   1.506
15373WAT     H246362   5.146   6.833   1.519
15374WAT      O46363   8.186   3.187   2.000
15374WAT     H146364   8.114   3.240   2.045
15374WAT     H246365   8.248   3.249   1.952
15375WAT      O46366   1.991   3.329   0.518
15375WAT     H146367   2.034   3.286   0.439
15375WAT     H246368   1.911   3.382   0.488
15376WAT      O46369   3.626   0.516   2.239
15376WAT     H146370   3.646   0.445   2.172
15376WAT     H246371   3.536   0.500   2.280
15377WAT      O46372   4.296   2.315   5.716
15377WAT     H146373   4.207   2.341   5.755
15377WAT     H246374   4.282   2.276   5.625
15378WAT      O46375   2.548   8.484   6.169
15378WAT     H146376   2.493   8.429   6.232
15378WAT     H246377   2.549   8.579   6.200
15379WAT      O46378   9.593   5.735   5.561
15379WAT     H146379   9.634   5.779   5.481
15379WAT     H246380   9.501   5.702   5.537
15380WAT      O46381   7.532   7.830   9.672
15380WAT     H146382   7.496   7.907   9.620
15380WAT     H246383   7.615   7.858   9.720
15381WAT      O46384   6.669   1.172   5.633
15381WAT     H146385   6.635   1.265   5.620
15381WAT     H246386   6.769   1.172   5.632
15382WAT      O46387   4.713   5.570   4.589
15382WAT     H146388   4.803   5.549   4.628
15382WAT     H246389   4.697   5.669   4.594
15383WAT      O46390   2.360   2.110   9.293
15383WAT     H146391   2.344   2.049   9.371
15383WAT     H246392   2.326   2.067   9.210
15384WAT      O46393   6.626   8.176   0.075
15384WAT     H146394   6.684   8.195  -0.004
15384WAT     H246395   6.652   8.089   0.117
15385WAT      O46396   2.420   5.002   8.535
15385WAT     H146397   2.427   5.098   8.510
15385WAT     H246398   2.323   4.975   8.536
15386WAT      O46399   1.687   3.267   3.992
15386WAT     H146400   1.635   3.298   3.912
15386WAT     H246401   1.746   3.190   3.966
15387WAT      O46402   9.632   3.465   8.783
15387WAT     H146403   9.694   3.537   8.752
15387WAT     H246404   9.556   3.456   8.719
15388WAT      O46405   9.803   1.521   2.025
15388WAT     H146406   9.756   1.447   1.978
15388WAT     H246407   9.893   1.489   2.057
15389WAT      O46408   8.548   7.879   6.552
15389WAT     H146409   8.461   7.833   6.571
15389WAT     H246410   8.600   7.825   6.486
15390WAT      O46411   0.535   0.970   9.467
15390WAT     H146412   0.525   0.994   9.563
15390WAT     H246413   0.456   1.003   9.416
15391WAT      O46414   8.032   4.193   8.904
15391WAT     H146415   8.075   4.121   8.958
15391WAT     H246416   7.933   4.178   8.902
15392WAT      O46417   8.868   5.566   0.721
15392WAT     H146418   8.801   5.595   0.789
15392WAT     H246419   8.821   5.534   0.638
15393WAT      O46420   5.436   6.861   6.588
15393WAT     H146421   5.534   6.852   6.570
15393WAT     H246422   5.416   6.821   6.678
15394WAT      O46423   5.458   6.216   7.678
15394WAT     H146424   5.489   6.237   7.770
15394WAT     H246425   5.380   6.154   7.682
15395WAT      O46426   6.920   2.505   0.620
15395WAT     H146427   6.835   2.453   0.614
15395WAT     H246428   6.966   2.503   0.531
15396WAT      O46429   8.460   4.626   0.125
15396WAT     H146430   8.517   4.553   0.161
15396WAT     H246431   8.518   4.694   0.080
15397WAT      O46432   1.182   8.086   1.476
15397WAT     H146433   1.209   8.054   1.567
15397WAT     H246434   1.140   8.176   1.484
15398WAT      O46435   1.393   1.971   8.679
15398WAT     H146436   1.294   1.967   8.663
15398WAT     H246437   1.440   1.984   8.592
15399WAT      O46438   0.444   8.881   4.052
15399WAT     H146439   0.487   8.918   4.135
15399WAT     H246440   0.475   8.786   4.038
15400WAT      O46441   3.185   2.559   0.426
15400WAT     H146442   3.279   2.572   0.393
15400WAT     H246443   3.161   2.462   0.420
15401WAT      O46444   8.915   6.915   1.439
15401WAT     H146445   8.984   6.906   1.511
15401WAT     H246446   8.936   6.995   1.383
15402WAT      O46447   3.980   6.659   1.562
15402WAT     H146448   3.926   6.707   1.630
15402WAT     H246449   3.921   6.599   1.508
15403WAT      O46450   7.247   6.909   8.172
15403WAT     H146451   7.226   6.960   8.256
15403WAT     H246452   7.166   6.857   8.144
15404WAT      O46453   8.117   8.118   5.546
15404WAT     H146454   8.130   8.020   5.538
15404WAT     H246455   8.046   8.148   5.482
15405WAT      O46456   2.830   7.043   6.484
15405WAT     H146457   2.925   7.071   6.495
15405WAT     H246458   2.822   6.945   6.502
15406WAT      O46459   4.492   4.636   1.227
15406WAT     H146460   4.411   4.590   1.191
15406WAT     H246461   4.511   4.718   1.173
15407WAT      O46462   0.461   6.661   9.663
15407WAT     H146463   0.560   6.649   9.656
15407WAT     H246464   0.427   6.610   9.742
15408WAT      O46465   9.467   8.463   1.046
15408WAT     H146466   9.450   8.560   1.026
15408WAT     H246467   9.502   8.418   0.964
15409WAT      O46468   4.941   7.164   6.488
15409WAT     H146469   4.935   7.147   6.586
15409WAT     H246470   4.876   7.105   6.440
15410WAT      O46471   7.120   7.036   5.882
15410WAT     H146472   7.114   7.021   5.981
15410WAT     H246473   7.029   7.034   5.842
15411WAT      O46474   8.439   5.311   4.826
15411WAT     H146475   8.388   5.279   4.746
15411WAT     H246476   8.492   5.235   4.864
15412WAT      O46477   7.853   5.690   8.424
15412WAT     H146478   7.755   5.704   8.435
15412WAT     H246479   7.875   5.677   8.327
15413WAT      O46480   4.299   0.739   4.530
15413WAT     H146481   4.280   0.787   4.615
15413WAT     H246482   4.245   0.655   4.525
15414WAT      O46483   2.518   8.672   7.536
15414WAT     H146484   2.544   8.591   7.588
15414WAT     H246485   2.527   8.653   7.439
15415WAT      O46486   3.819   4.096   3.385
15415WAT     H146487   3.816   4.170   3.453
15415WAT     H246488   3.746   4.031   3.403
15416WAT      O46489   2.461   5.482   9.626
15416WAT     H146490   2.558   5.476   9.605
15416WAT     H246491   2.423   5.390   9.637
15417WAT      O46492   1.783   2.180   5.299
15417WAT     H146493   1.697   2.230   5.286
15417WAT     H246494   1.786   2.102   5.236
15418WAT      O46495   5.631   3.981   4.696
15418WAT     H146496   5.542   3.946   4.727
15418WAT     H246497   5.638   4.078   4.717
15419WAT      O46498   8.476   6.814   5.939
15419WAT     H146499   8.417   6.880   5.985
15419WAT     H246500   8.445   6.721   5.960
15420WAT      O46501   0.643   1.624   5.010
15420WAT     H146502   0.566   1.622   4.946
15420WAT     H246503   0.727   1.603   4.960
15421WAT      O46504   3.555   3.791   9.036
15421WAT     H146505   3.604   3.704   9.040
15421WAT     H246506   3.552   3.823   8.941
15422WAT      O46507   6.727   9.223   7.057
15422WAT     H146508   6.789   9.180   7.123
15422WAT     H246509   6.644   9.253   7.104
15423WAT      O46510   1.264   8.571   8.453
15423WAT     H146511   1.358   8.595   8.476
15423WAT     H246512   1.220   8.647   8.404
15424WAT      O46513   9.231   1.320   7.129
15424WAT     H146514   9.148   1.330   7.075
15424WAT     H246515   9.248   1.223   7.146
15425WAT      O46516   7.090   3.027   3.282
15425WAT     H146517   7.131   2.957   3.340
15425WAT     H246518   7.158   3.097   3.261
15426WAT      O46519   3.260   2.401   3.160
15426WAT     H146520   3.281   2.304   3.169
15426WAT     H246521   3.216   2.434   3.243
15427WAT      O46522   9.437   2.655   4.335
15427WAT     H146523   9.436   2.556   4.321
15427WAT     H246524   9.531   2.688   4.337
15428WAT      O46525   2.842   1.676   4.410
15428WAT     H146526   2.891   1.599   4.451
15428WAT     H246527   2.904   1.754   4.403
15429WAT      O46528   9.531   2.445   7.081
15429WAT     H146529   9.442   2.451   7.127
15429WAT     H246530   9.550   2.350   7.059
15430WAT      O46531   5.185   3.390   2.520
15430WAT     H146532   5.181   3.374   2.619
15430WAT     H246533   5.151   3.309   2.472
15431WAT      O46534   8.632   5.435   1.875
15431WAT     H146535   8.723   5.440   1.833
15431WAT     H246536   8.564   5.471   1.811
15432WAT      O46537   2.712   5.411   2.997
15432WAT     H146538   2.683   5.458   3.080
15432WAT     H246539   2.812   5.407   2.994
15433WAT      O46540   0.847   1.553   0.836
15433WAT     H146541   0.943   1.525   0.830
15433WAT     H246542   0.839   1.652   0.824
15434WAT      O46543   7.969   5.874   8.583
15434WAT     H146544   7.917   5.819   8.518
15434WAT     H246545   8.038   5.817   8.627
15435WAT      O46546   6.436   1.157   6.747
15435WAT     H146547   6.403   1.251   6.760
15435WAT     H246548   6.394   1.098   6.816
15436WAT      O46549   5.113   5.050   0.516
15436WAT     H146550   5.138   5.081   0.424
15436WAT     H246551   5.033   4.990   0.510
15437WAT      O46552   9.279   3.298   2.797
15437WAT     H146553   9.345   3.263   2.864
15437WAT     H246554   9.316   3.380   2.754
15438WAT      O46555   5.779   1.671   1.527
15438WAT     H146556   5.848   1.700   1.594
15438WAT     H246557   5.704   1.737   1.525
15439WAT      O46558   4.634   1.753   5.189
15439WAT     H146559   4.644   1.771   5.091
15439WAT     H246560   4.705   1.802   5.240
15440WAT      O46561   1.299   6.514   9.357
15440WAT     H146562   1.394   6.533   9.331
15440WAT     H246563   1.264   6.589   9.412
15441WAT      O46564   4.570   8.133   6.262
15441WAT     H146565   4.602   8.171   6.175
15441WAT     H246566   4.619   8.177   6.337
15442WAT      O46567   6.270   9.251   0.172
15442WAT     H146568   6.369   9.264   0.184
15442WAT     H246569   6.242   9.295   0.086
15443WAT      O46570   4.408   7.160   8.543
15443WAT     H146571   4.346   7.176   8.620
15443WAT     H246572   4.367   7.093   8.480
15444WAT      O46573   3.824   8.624   4.369
15444WAT     H146574   3.853   8.664   4.282
15444WAT     H246575   3.731   8.588   4.359
15445WAT      O46576   6.545   0.397   9.026
15445WAT     H146577   6.465   0.402   8.965
15445WAT     H246578   6.545   0.309   9.074
15446WAT      O46579   1.782   3.727   0.476
15446WAT     H146580   1.692   3.710   0.436
15446WAT     H246581   1.791   3.824   0.498
15447WAT      O46582   2.156   6.256   6.750
15447WAT     H146583   2.071   6.207   6.769
15447WAT     H246584   2.231   6.211   6.799
15448WAT      O46585   0.437   7.144   1.487
15448WAT     H146586   0.340   7.138   1.511
15448WAT     H246587   0.455   7.089   1.406
15449WAT      O46588   6.788   8.769   8.425
15449WAT     H146589   6.737   8.710   8.361
15449WAT     H246590   6.835   8.712   8.492
15450WAT      O46591   8.343   4.902   1.972
15450WAT     H146592   8.388   4.816   1.994
15450WAT     H246593   8.298   4.939   2.054
15451WAT      O46594   7.542   3.142   4.212
15451WAT     H146595   7.614   3.078   4.188
15451WAT     H246596   7.460   3.092   4.239
15452WAT      O46597   8.473   1.379   5.368
15452WAT     H146598   8.571   1.362   5.369
15452WAT     H246599   8.433   1.336   5.287
15453WAT      O46600   7.332   1.770   4.532
15453WAT     H146601   7.346   1.836   4.606
15453WAT     H246602   7.294   1.817   4.453
15454WAT      O46603   0.706   2.113   1.194
15454WAT     H146604   0.733   2.144   1.103
15454WAT     H246605   0.762   2.035   1.221
15455WAT      O46606   8.865   8.148   5.963
15455WAT     H146607   8.793   8.190   6.019
15455WAT     H246608   8.823   8.098   5.887
15456WAT      O46609   0.358   2.303   6.168
15456WAT     H146610   0.308   2.280   6.252
15456WAT     H246611   0.420   2.378   6.186
15457WAT      O46612   8.004   9.827   2.507
15457WAT     H146613   8.089   9.878   2.493
15457WAT     H246614   7.940   9.883   2.560
15458WAT      O46615   7.717   6.008   0.107
15458WAT     H146616   7.807   6.038   0.138
15458WAT     H246617   7.664   5.976   0.186
15459WAT      O46618   3.940   1.139   1.194
15459WAT     H146619   3.921   1.145   1.096
15459WAT     H246620   3.947   1.231   1.232
15460WAT      O46621   6.636   3.945   4.698
15460WAT     H146622   6.682   4.010   4.759
15460WAT     H246623   6.549   3.918   4.738
15461WAT      O46624   1.337   9.597   7.190
15461WAT     H146625   1.332   9.575   7.288
15461WAT     H246626   1.401   9.534   7.146
15462WAT      O46627   0.035   3.262   0.636
15462WAT     H146628   0.101   3.218   0.577
15462WAT     H246629   0.038   3.361   0.623
15463WAT      O46630   1.695   3.441   5.187
15463WAT     H146631   1.642   3.499   5.125
15463WAT     H246632   1.774   3.404   5.138
15464WAT      O46633   5.096   9.745   4.443
15464WAT     H146634   5.140   9.658   4.426
15464WAT     H246635   4.996   9.733   4.440
15465WAT      O46636   7.841   6.125   4.833
15465WAT     H146637   7.782   6.145   4.756
15465WAT     H246638   7.868   6.028   4.831
15466WAT      O46639   9.708   3.571   3.839
15466WAT     H146640   9.792   3.542   3.794
15466WAT     H246641   9.716   3.556   3.938
15467WAT      O46642   8.186   9.271   2.275
15467WAT     H146643   8.156   9.307   2.187
15467WAT     H246644   8.246   9.337   2.320
15468WAT      O46645   8.489   6.241   2.875
15468WAT     H146646   8.436   6.164   2.912
15468WAT     H246647   8.523   6.297   2.951
15469WAT      O46648   6.729   3.285   8.919
15469WAT     H146649   6.646   3.230   8.909
15469WAT     H246650   6.752   3.326   8.831
15470WAT      O46651   5.537   0.680   8.455
15470WAT     H146652   5.497   0.589   8.443
15470WAT     H246653   5.469   0.749   8.430
15471WAT      O46654   8.657   9.113   2.841
15471WAT     H146655   8.589   9.066   2.784
15471WAT     H246656   8.694   9.191   2.792
15472WAT      O46657   5.845   0.878   7.855
15472WAT     H146658   5.901   0.797   7.872
15472WAT     H246659   5.866   0.915   7.764
15473WAT      O46660   8.232   2.488   2.459
15473WAT     H146661   8.153   2.428   2.449
15473WAT     H246662   8.225   2.563   2.393
15474WAT      O46663   2.548   7.017   4.055
15474WAT     H146664   2.484   6.947   4.022
15474WAT     H246665   2.623   6.973   4.105
15475WAT      O46666   4.887   2.481   8.585
15475WAT     H146667   4.946   2.548   8.629
15475WAT     H246668   4.854   2.518   8.498
15476WAT      O46669   2.090   5.051   4.148
15476WAT     H146670   2.143   5.135   4.134
15476WAT     H246671   2.152   4.972   4.146
15477WAT      O46672   7.232   2.678   0.675
15477WAT     H146673   7.182   2.639   0.753
15477WAT     H246674   7.186   2.761   0.644
15478WAT      O46675   3.380   0.446   2.340
15478WAT     H146676   3.423   0.401   2.419
15478WAT     H246677   3.339   0.532   2.370
15479WAT      O46678   0.103   9.692   0.753
15479WAT     H146679   0.069   9.765   0.693
15479WAT     H246680   0.154   9.733   0.829
15480WAT      O46681   8.087   4.591   3.372
15480WAT     H146682   8.172   4.560   3.328
15480WAT     H246683   8.045   4.662   3.316
15481WAT      O46684   9.839   4.033   2.305
15481WAT     H146685   9.818   4.018   2.208
15481WAT     H246686   9.756   4.024   2.360
15482WAT      O46687   0.929   8.546   8.899
15482WAT     H146688   0.975   8.458   8.890
15482WAT     H246689   0.974   8.615   8.842
15483WAT      O46690   6.101   9.121   6.946
15483WAT     H146691   6.139   9.205   6.908
15483WAT     H246692   6.037   9.080   6.880
15484WAT      O46693   9.270   6.714   8.536
15484WAT     H146694   9.344   6.781   8.531
15484WAT     H246695   9.196   6.741   8.476
15485WAT      O46696   0.776   0.977   7.886
15485WAT     H146697   0.848   0.932   7.833
15485WAT     H246698   0.687   0.943   7.857
15486WAT      O46699   1.409   5.470   0.109
15486WAT     H146700   1.425   5.401   0.039
15486WAT     H246701   1.491   5.527   0.119
15487WAT      O46702   1.009   5.767   5.971
15487WAT     H146703   1.031   5.699   5.901
15487WAT     H246704   0.939   5.828   5.936
15488WAT      O46705   1.649   5.932   3.038
15488WAT     H146706   1.562   5.908   3.081
15488WAT     H246707   1.638   6.017   2.985
15489WAT      O46708   3.500   0.039   7.228
15489WAT     H146709   3.569   0.110   7.229
15489WAT     H246710   3.497  -0.004   7.137
15490WAT      O46711   0.955   0.264   5.782
15490WAT     H146712   0.909   0.215   5.708
15490WAT     H246713   1.010   0.338   5.744
15491WAT      O46714   0.110   3.194   1.130
15491WAT     H146715   0.061   3.110   1.103
15491WAT     H246716   0.096   3.265   1.061
15492WAT      O46717   9.808   4.861   6.619
15492WAT     H146718   9.862   4.850   6.703
15492WAT     H246719   9.711   4.867   6.643
15493WAT      O46720   9.697   6.195   8.973
15493WAT     H146721   9.655   6.210   9.062
15493WAT     H246722   9.731   6.102   8.966
15494WAT      O46723   3.065   8.164   0.320
15494WAT     H146724   3.065   8.083   0.378
15494WAT     H246725   3.033   8.243   0.373
15495WAT      O46726   8.244   7.006   2.413
15495WAT     H146727   8.156   7.036   2.375
15495WAT     H246728   8.285   6.938   2.352
15496WAT      O46729   0.474   2.515   7.533
15496WAT     H146730   0.451   2.611   7.550
15496WAT     H246731   0.564   2.495   7.571
15497WAT      O46732   8.867   3.596   2.254
15497WAT     H146733   8.824   3.593   2.344
15497WAT     H246734   8.909   3.507   2.234
15498WAT      O46735   8.457   0.877   5.244
15498WAT     H146736   8.423   0.873   5.150
15498WAT     H246737   8.444   0.789   5.288
15499WAT      O46738   8.764   6.513   5.571
15499WAT     H146739   8.826   6.569   5.626
15499WAT     H246740   8.801   6.502   5.479
15500WAT      O46741   0.020   7.752   5.328
15500WAT     H146742   0.119   7.756   5.337
15500WAT     H246743  -0.007   7.786   5.237
15501WAT      O46744   1.478   4.613   0.677
15501WAT     H146745   1.426   4.592   0.595
15501WAT     H246746   1.576   4.608   0.657
15502WAT      O46747   7.311   1.183   0.515
15502WAT     H146748   7.398   1.140   0.539
15502WAT     H246749   7.313   1.280   0.543
15503WAT      O46750   2.624   1.395   4.184
15503WAT     H146751   2.601   1.490   4.163
15503WAT     H246752   2.722   1.381   4.171
15504WAT      O46753   6.518   4.827   4.180
15504WAT     H146754   6.509   4.899   4.111
15504WAT     H246755   6.523   4.870   4.271
15505WAT      O46756   3.699   4.573   7.977
15505WAT     H146757   3.758   4.643   8.017
15505WAT     H246758   3.754   4.492   7.956
15506WAT      O46759   2.543   9.809   4.021
15506WAT     H146760   2.573   9.750   4.096
15506WAT     H246761   2.623   9.851   3.978
15507WAT      O46762   0.060   9.336   9.294
15507WAT     H146763   0.093   9.297   9.208
15507WAT     H246764   0.124   9.406   9.326
15508WAT      O46765   1.371   7.728   0.976
15508WAT     H146766   1.387   7.650   0.915
15508WAT     H246767   1.286   7.774   0.950
15509WAT      O46768   7.137   3.100   7.714
15509WAT     H146769   7.187   3.031   7.768
15509WAT     H246770   7.041   3.099   7.740
15510WAT      O46771   1.226   5.215   5.500
15510WAT     H146772   1.232   5.116   5.486
15510WAT     H246773   1.215   5.260   5.412
15511WAT      O46774   2.742   4.577   7.137
15511WAT     H146775   2.749   4.677   7.138
15511WAT     H246776   2.801   4.541   7.064
15512WAT      O46777   3.340   8.478   1.075
15512WAT     H146778   3.325   8.380   1.092
15512WAT     H246779   3.417   8.510   1.129
15513WAT      O46780   1.895   3.085   1.029
15513WAT     H146781   1.916   3.181   1.008
15513WAT     H246782   1.971   3.045   1.080
15514WAT      O46783   9.471   6.759   8.207
15514WAT     H146784   9.437   6.812   8.285
15514WAT     H246785   9.403   6.759   8.134
15515WAT      O46786   0.883   4.259   5.860
15515WAT     H146787   0.963   4.228   5.811
15515WAT     H246788   0.901   4.258   5.959
15516WAT      O46789   5.506   7.195   7.250
15516WAT     H146790   5.536   7.101   7.236
15516WAT     H246791   5.406   7.198   7.253
15517WAT      O46792   0.010   5.091   2.734
15517WAT     H146793  -0.079   5.109   2.775
15517WAT     H246794   0.021   4.993   2.720
15518WAT      O46795   7.483   7.403   9.492
15518WAT     H146796   7.452   7.475   9.554
15518WAT     H246797   7.535   7.443   9.417
15519WAT      O46798   8.579   7.872   5.551
15519WAT     H146799   8.607   7.806   5.482
15519WAT     H246800   8.543   7.954   5.507
15520WAT      O46801   6.007   9.726   1.437
15520WAT     H146802   6.029   9.631   1.416
15520WAT     H246803   5.923   9.752   1.390
15521WAT      O46804   3.616   2.359   5.571
15521WAT     H146805   3.528   2.370   5.617
15521WAT     H246806   3.632   2.262   5.553
15522WAT      O46807   3.448   5.546   8.173
15522WAT     H146808   3.426   5.576   8.080
15522WAT     H246809   3.450   5.447   8.177
15523WAT      O46810   4.593   3.924   9.803
15523WAT     H146811   4.672   3.933   9.744
15523WAT     H246812   4.511   3.906   9.748
15524WAT      O46813   1.104   8.590   4.991
15524WAT     H146814   1.155   8.627   4.914
15524WAT     H246815   1.065   8.501   4.965
15525WAT      O46816   2.695   4.659   4.326
15525WAT     H146817   2.641   4.743   4.330
15525WAT     H246818   2.674   4.602   4.405
15526WAT      O46819   9.769   9.691   1.009
15526WAT     H146820   9.795   9.626   0.938
15526WAT     H246821   9.841   9.761   1.017
15527WAT      O46822   1.972   2.609   1.969
15527WAT     H146823   2.049   2.622   1.906
15527WAT     H246824   2.005   2.565   2.053
15528WAT      O46825   0.449   2.579   3.295
15528WAT     H146826   0.353   2.576   3.267
15528WAT     H246827   0.469   2.502   3.356
15529WAT      O46828   4.294   0.978   3.614
15529WAT     H146829   4.386   0.949   3.642
15529WAT     H246830   4.228   0.906   3.634
15530WAT      O46831   2.797   0.491   6.575
15530WAT     H146832   2.841   0.409   6.539
15530WAT     H246833   2.866   0.562   6.590
15531WAT      O46834   5.404   1.061   9.448
15531WAT     H146835   5.393   0.962   9.441
15531WAT     H246836   5.414   1.087   9.544
15532WAT      O46837   1.652   8.126   1.296
15532WAT     H146838   1.556   8.152   1.288
15532WAT     H246839   1.661   8.047   1.358
15533WAT      O46840   3.765   2.586   5.555
15533WAT     H146841   3.720   2.500   5.578
15533WAT     H246842   3.707   2.639   5.492
15534WAT      O46843   7.107   6.563   9.831
15534WAT     H146844   7.049   6.643   9.818
15534WAT     H246845   7.201   6.593   9.851
15535WAT      O46846   5.617   1.743   7.079
15535WAT     H146847   5.566   1.666   7.040
15535WAT     H246848   5.581   1.829   7.041
15536WAT      O46849   3.352   1.684   4.056
15536WAT     H146850   3.280   1.713   4.119
15536WAT     H246851   3.361   1.752   3.982
15537WAT      O46852   9.832   9.446   4.651
15537WAT     H146853   9.895   9.457   4.574
15537WAT     H246854   9.744   9.487   4.628
15538WAT      O46855   1.152   1.040   5.624
15538WAT     H146856   1.160   0.966   5.557
15538WAT     H246857   1.107   1.119   5.581
15539WAT      O46858   8.507   4.970   6.430
15539WAT     H146859   8.584   4.949   6.490
15539WAT     H246860   8.526   4.937   6.338
15540WAT      O46861   8.526   6.373   6.151
15540WAT     H146862   8.536   6.337   6.244
15540WAT     H246863   8.545   6.301   6.085
15541WAT      O46864   9.720   8.409   7.632
15541WAT     H146865   9.716   8.379   7.537
15541WAT     H246866   9.652   8.481   7.647
15542WAT      O46867   9.606   7.481   6.748
15542WAT     H146868   9.553   7.561   6.720
15542WAT     H246869   9.591   7.407   6.682
15543WAT      O46870   6.338   1.750   5.747
15543WAT     H146871   6.315   1.847   5.742
15543WAT     H246872   6.437   1.739   5.737
15544WAT      O46873   7.903   8.689   0.252
15544WAT     H146874   7.803   8.683   0.263
15544WAT     H246875   7.940   8.750   0.322
15545WAT      O46876   0.808   2.116   3.075
15545WAT     H146877   0.805   2.126   2.975
15545WAT     H246878   0.727   2.066   3.106
15546WAT      O46879   4.983   3.992   7.878
15546WAT     H146880   5.061   4.002   7.939
15546WAT     H246881   4.997   4.049   7.797
15547WAT      O46882   7.101   4.977   0.761
15547WAT     H146883   7.145   5.030   0.689
15547WAT     H246884   7.001   4.986   0.753
15548WAT      O46885   1.242   0.208   8.524
15548WAT     H146886   1.163   0.223   8.464
15548WAT     H246887   1.253   0.286   8.585
15549WAT      O46888   5.362   0.605   7.164
15549WAT     H146889   5.361   0.522   7.108
15549WAT     H246890   5.425   0.592   7.241
15550WAT      O46891   2.173   5.413   2.438
15550WAT     H146892   2.161   5.453   2.347
15550WAT     H246893   2.107   5.453   2.501
15551WAT      O46894   9.218   3.689   5.348
15551WAT     H146895   9.222   3.649   5.439
15551WAT     H246896   9.222   3.615   5.280
15552WAT      O46897   7.820   7.423   1.910
15552WAT     H146898   7.837   7.326   1.894
15552WAT     H246899   7.872   7.454   1.990
15553WAT      O46900   0.840   9.609   9.500
15553WAT     H146901   0.779   9.593   9.578
15553WAT     H246902   0.803   9.564   9.419
15554WAT      O46903   2.905   0.824   4.774
15554WAT     H146904   2.806   0.828   4.787
15554WAT     H246905   2.943   0.746   4.825
15555WAT      O46906   0.787   2.100   0.898
15555WAT     H146907   0.825   2.136   0.813
15555WAT     H246908   0.809   2.003   0.907
15556WAT      O46909   6.519   0.828   3.733
15556WAT     H146910   6.517   0.858   3.828
15556WAT     H246911   6.556   0.901   3.676
15557WAT      O46912   3.059   0.384   8.131
15557WAT     H146913   3.119   0.358   8.055
15557WAT     H246914   3.103   0.455   8.185
15558WAT      O46915   5.281   2.111   6.783
15558WAT     H146916   5.376   2.121   6.753
15558WAT     H246917   5.220   2.145   6.711
15559WAT      O46918   4.762   4.852   1.375
15559WAT     H146919   4.744   4.941   1.417
15559WAT     H246920   4.751   4.859   1.276
15560WAT      O46921   0.872   0.408   3.174
15560WAT     H146922   0.801   0.446   3.233
15560WAT     H246923   0.939   0.359   3.229
15561WAT      O46924   8.065   0.206   1.036
15561WAT     H146925   8.096   0.301   1.037
15561WAT     H246926   8.057   0.174   0.941
15562WAT      O46927   2.507   3.771   1.073
15562WAT     H146928   2.461   3.744   1.158
15562WAT     H246929   2.573   3.700   1.047
15563WAT      O46930   0.187   0.513   8.042
15563WAT     H146931   0.280   0.486   8.068
15563WAT     H246932   0.127   0.433   8.044
15564WAT      O46933   4.801   5.948   6.539
15564WAT     H146934   4.841   5.861   6.569
15564WAT     H246935   4.819   5.961   6.441
15565WAT      O46936   2.999   1.116   9.735
15565WAT     H146937   2.937   1.075   9.802
15565WAT     H246938   2.957   1.198   9.697
15566WAT      O46939   8.346   3.066   7.607
15566WAT     H146940   8.374   3.073   7.703
15566WAT     H246941   8.280   2.991   7.597
15567WAT      O46942   4.244   4.404   7.388
15567WAT     H146943   4.154   4.370   7.413
15567WAT     H246944   4.279   4.465   7.459
15568WAT      O46945   4.435   8.797   9.020
15568WAT     H146946   4.514   8.762   9.071
15568WAT     H246947   4.359   8.733   9.026
15569WAT      O46948   8.613   2.354   2.897
15569WAT     H146949   8.608   2.350   2.797
15569WAT     H246950   8.678   2.425   2.923
15570WAT      O46951   8.328   7.328   2.617
15570WAT     H146952   8.237   7.370   2.613
15570WAT     H246953   8.325   7.247   2.676
15571WAT      O46954   0.872   0.103   8.121
15571WAT     H146955   0.943   0.118   8.052
15571WAT     H246956   0.808   0.180   8.119
15572WAT      O46957   1.909   2.351   4.015
15572WAT     H146958   1.902   2.450   4.011
15572WAT     H246959   1.984   2.320   3.956
15573WAT      O46960   9.213   5.408   5.203
15573WAT     H146961   9.183   5.348   5.278
15573WAT     H246962   9.140   5.472   5.181
15574WAT      O46963   5.513   2.973   9.655
15574WAT     H146964   5.536   3.048   9.717
15574WAT     H246965   5.425   2.993   9.610
15575WAT      O46966   1.418   0.721   3.922
15575WAT     H146967   1.446   0.752   3.832
15575WAT     H246968   1.332   0.765   3.948
15576WAT      O46969   9.146   7.313   9.319
15576WAT     H146970   9.203   7.264   9.253
15576WAT     H246971   9.161   7.275   9.411
15577WAT      O46972   0.706   5.873   5.184
15577WAT     H146973   0.740   5.922   5.264
15577WAT     H246974   0.619   5.912   5.155
15578WAT      O46975   1.128   3.200   4.284
15578WAT     H146976   1.201   3.131   4.286
15578WAT     H246977   1.159   3.278   4.230
15579WAT      O46978   7.509   0.747   4.060
15579WAT     H146979   7.458   0.800   4.129
15579WAT     H246980   7.581   0.805   4.021
15580WAT      O46981   8.611   8.978   2.342
15580WAT     H146982   8.650   9.007   2.254
15580WAT     H246983   8.680   8.988   2.413
15581WAT      O46984   5.117   4.357   4.852
15581WAT     H146985   5.018   4.355   4.834
15581WAT     H246986   5.163   4.292   4.791
15582WAT      O46987   6.794   0.928   4.669
15582WAT     H146988   6.836   0.849   4.623
15582WAT     H246989   6.772   0.998   4.601
15583WAT      O46990   2.423   1.595   5.359
15583WAT     H146991   2.504   1.541   5.339
15583WAT     H246992   2.407   1.595   5.458
15584WAT      O46993   5.058   1.350   8.008
15584WAT     H146994   5.055   1.252   7.988
15584WAT     H246995   5.058   1.364   8.107
15585WAT      O46996   8.873   0.304   4.024
15585WAT     H146997   8.879   0.287   3.926
15585WAT     H246998   8.806   0.242   4.065
15586WAT      O46999   9.457   6.888   0.491
15586WAT     H147000   9.408   6.837   0.562
15586WAT     H247001   9.392   6.924   0.425
15587WAT      O47002   6.045   1.338   7.465
15587WAT     H147003   6.037   1.416   7.526
15587WAT     H247004   6.141   1.321   7.444
15588WAT      O47005   6.476   1.905   2.382
15588WAT     H147006   6.497   2.002   2.368
15588WAT     H247007   6.423   1.894   2.466
15589WAT      O47008   3.743   7.917   2.087
15589WAT     H147009   3.803   7.838   2.082
15589WAT     H247010   3.653   7.893   2.052
15590WAT      O47011   7.239   0.866   6.496
15590WAT     H147012   7.229   0.861   6.396
15590WAT     H247013   7.153   0.842   6.539
15591WAT      O47014   6.960   9.764   8.300
15591WAT     H147015   6.936   9.699   8.373
15591WAT     H247016   6.949   9.720   8.211
15592WAT      O47017   5.783   7.520   6.452
15592WAT     H147018   5.688   7.511   6.480
15592WAT     H247019   5.840   7.458   6.506
15593WAT      O47020   1.401   6.514   0.147
15593WAT     H147021   1.485   6.562   0.123
15593WAT     H247022   1.326   6.581   0.156
15594WAT      O47023   6.740   7.925   3.435
15594WAT     H147024   6.660   7.865   3.440
15594WAT     H247025   6.801   7.907   3.512
15595WAT      O47026   9.537   1.560   7.405
15595WAT     H147027   9.574   1.517   7.488
15595WAT     H247028   9.438   1.554   7.405
15596WAT      O47029   6.728   9.652   8.858
15596WAT     H147030   6.750   9.731   8.915
15596WAT     H247031   6.805   9.630   8.799
15597WAT      O47032   8.164   1.572   4.004
15597WAT     H147033   8.155   1.527   4.093
15597WAT     H247034   8.111   1.521   3.936
15598WAT      O47035   7.705   1.747   2.730
15598WAT     H147036   7.615   1.750   2.687
15598WAT     H247037   7.715   1.662   2.781
15599WAT      O47038   7.120   1.989   4.409
15599WAT     H147039   7.114   1.930   4.328
15599WAT     H247040   7.061   1.954   4.481
15600WAT      O47041   0.944   8.285   4.246
15600WAT     H147042   0.979   8.193   4.230
15600WAT     H247043   0.988   8.324   4.327
15601WAT      O47044   1.951   5.269   8.919
15601WAT     H147045   1.991   5.221   8.841
15601WAT     H247046   2.011   5.344   8.947
15602WAT      O47047   7.813   5.954   3.811
15602WAT     H147048   7.759   5.972   3.729
15602WAT     H247049   7.755   5.912   3.881
15603WAT      O47050   0.628   7.738   1.110
15603WAT     H147051   0.609   7.819   1.164
15603WAT     H247052   0.708   7.691   1.146
15604WAT      O47053   5.524   5.787   6.164
15604WAT     H147054   5.484   5.700   6.134
15604WAT     H247055   5.559   5.777   6.257
15605WAT      O47056   0.843   3.287   0.653
15605WAT     H147057   0.852   3.260   0.749
15605WAT     H247058   0.801   3.213   0.601
15606WAT      O47059   5.455   2.778   7.823
15606WAT     H147060   5.547   2.811   7.802
15606WAT     H247061   5.459   2.710   7.896
15607WAT      O47062   6.748   1.413   8.443
15607WAT     H147063   6.720   1.390   8.536
15607WAT     H247064   6.771   1.511   8.438
15608WAT      O47065   2.596   3.446   1.207
15608WAT     H147066   2.581   3.531   1.256
15608WAT     H247067   2.625   3.465   1.114
15609WAT      O47068   9.472   4.280   5.805
15609WAT     H147069   9.425   4.238   5.727
15609WAT     H247070   9.532   4.212   5.848
15610WAT      O47071   5.885   2.758   7.411
15610WAT     H147072   5.945   2.759   7.331
15610WAT     H247073   5.858   2.851   7.433
15611WAT      O47074   6.561   4.655   2.823
15611WAT     H147075   6.574   4.670   2.921
15611WAT     H247076   6.507   4.731   2.785
15612WAT      O47077   0.587   1.643   2.185
15612WAT     H147078   0.685   1.641   2.206
15612WAT     H247079   0.556   1.738   2.184
15613WAT      O47080   0.214   2.276   6.403
15613WAT     H147081   0.129   2.242   6.363
15613WAT     H247082   0.200   2.295   6.500
15614WAT      O47083   2.760   3.515   9.433
15614WAT     H147084   2.719   3.425   9.445
15614WAT     H247085   2.748   3.569   9.517
15615WAT      O47086   2.121   8.348   6.037
15615WAT     H147087   2.138   8.439   6.074
15615WAT     H247088   2.193   8.323   5.973
15616WAT      O47089   1.693   5.850   4.871
15616WAT     H147090   1.762   5.866   4.800
15616WAT     H247091   1.731   5.790   4.941
15617WAT      O47092   8.272   4.956   2.330
15617WAT     H147093   8.224   4.945   2.243
15617WAT     H247094   8.273   4.868   2.378
15618WAT      O47095   0.566   1.454   0.769
15618WAT     H147096   0.665   1.438   0.773
15618WAT     H247097   0.523   1.413   0.849
15619WAT      O47098   9.684   2.394   5.816
15619WAT     H147099   9.736   2.387   5.731
15619WAT     H247100   9.601   2.448   5.800
15620WAT      O47101   2.681   2.038   2.203
15620WAT     H147102   2.732   2.112   2.159
15620WAT     H247103   2.588   2.069   2.224
15621WAT      O47104   7.392   4.464   6.324
15621WAT     H147105   7.368   4.388   6.384
15621WAT     H247106   7.467   4.517   6.364
15622WAT      O47107   3.182   3.199   6.535
15622WAT     H147108   3.156   3.278   6.480
15622WAT     H247109   3.241   3.139   6.482
15623WAT      O47110   5.559   9.799   8.503
15623WAT     H147111   5.549   9.700   8.511
15623WAT     H247112   5.470   9.841   8.488
15624WAT      O47113   0.836   6.506   8.477
15624WAT     H147114   0.815   6.437   8.546
15624WAT     H247115   0.850   6.462   8.388
15625WAT      O47116   3.499   6.384   6.412
15625WAT     H147117   3.583   6.420   6.373
15625WAT     H247118   3.426   6.388   6.344
15626WAT      O47119   3.174   0.200   0.183
15626WAT     H147120   3.253   0.261   0.174
15626WAT     H247121   3.136   0.181   0.093
15627WAT      O47122   3.689   8.496   3.963
15627WAT     H147123   3.601   8.450   3.950
15627WAT     H247124   3.675   8.594   3.972
15628WAT      O47125   7.043   9.030   9.408
15628WAT     H147126   6.970   9.000   9.348
15628WAT     H247127   7.090   9.108   9.368
15629WAT      O47128   5.859   4.634   6.961
15629WAT     H147129   5.893   4.605   7.051
15629WAT     H247130   5.936   4.658   6.902
15630WAT      O47131   2.991   0.617   9.270
15630WAT     H147132   2.992   0.594   9.367
15630WAT     H247133   2.983   0.533   9.216
15631WAT      O47134   5.633   8.178   2.057
15631WAT     H147135   5.563   8.224   2.111
15631WAT     H247136   5.702   8.244   2.028
15632WAT      O47137   4.147   9.262   3.368
15632WAT     H147138   4.210   9.224   3.301
15632WAT     H247139   4.071   9.198   3.383
15633WAT      O47140   1.461   1.019   3.270
15633WAT     H147141   1.546   0.970   3.291
15633WAT     H247142   1.477   1.084   3.196
15634WAT      O47143   6.383   8.879   4.971
15634WAT     H147144   6.285   8.861   4.963
15634WAT     H247145   6.435   8.804   4.931
15635WAT      O47146   3.966   0.095   8.662
15635WAT     H147147   3.986   0.054   8.573
15635WAT     H247148   3.949   0.023   8.729
15636WAT      O47149   0.656   2.166   9.853
15636WAT     H147150   0.624   2.088   9.906
15636WAT     H247151   0.744   2.144   9.811
15637WAT      O47152   7.931   0.086   3.111
15637WAT     H147153   7.955   0.173   3.069
15637WAT     H247154   8.005   0.020   3.095
15638WAT      O47155   1.876   1.073   6.471
15638WAT     H147156   1.861   0.989   6.523
15638WAT     H247157   1.941   1.055   6.398
15639WAT      O47158   0.478   1.964   4.886
15639WAT     H147159   0.527   1.892   4.935
15639WAT     H247160   0.535   2.046   4.882
15640WAT      O47161   5.692   4.512   6.399
15640WAT     H147162   5.757   4.474   6.333
15640WAT     H247163   5.697   4.612   6.397
15641WAT      O47164   9.330   2.703   6.833
15641WAT     H147165   9.272   2.662   6.903
15641WAT     H247166   9.367   2.631   6.774
15642WAT      O47167   5.244   9.779   6.773
15642WAT     H147168   5.282   9.814   6.859
15642WAT     H247169   5.306   9.710   6.735
15643WAT      O47170   1.565   0.864   2.605
15643WAT     H147171   1.532   0.944   2.654
15643WAT     H247172   1.487   0.814   2.566
15644WAT      O47173   3.645   0.509   2.976
15644WAT     H147174   3.743   0.497   2.992
15644WAT     H247175   3.624   0.607   2.972
15645WAT      O47176   8.774   6.621   4.183
15645WAT     H147177   8.801   6.679   4.260
15645WAT     H247178   8.855   6.602   4.126
15646WAT      O47179   8.905   4.490   2.356
15646WAT     H147180   8.837   4.519   2.423
15646WAT     H247181   8.995   4.523   2.384
15647WAT      O47182   6.924   3.881   7.963
15647WAT     H147183   7.002   3.841   7.916
15647WAT     H247184   6.875   3.809   8.013
15648WAT      O47185   5.041   3.365   0.630
15648WAT     H147186   5.100   3.296   0.672
15648WAT     H247187   4.990   3.413   0.702
15649WAT      O47188   5.998   5.767   7.123
15649WAT     H147189   6.098   5.764   7.120
15649WAT     H247190   5.962   5.675   7.108
15650WAT      O47191   5.682   6.350   4.752
15650WAT     H147192   5.635   6.378   4.835
15650WAT     H247193   5.768   6.304   4.776
15651WAT      O47194   5.640   1.524   5.252
15651WAT     H147195   5.590   1.438   5.255
15651WAT     H247196   5.738   1.506   5.264
15652WAT      O47197   9.505   3.038   3.610
15652WAT     H147198   9.594   3.078   3.631
15652WAT     H247199   9.448   3.106   3.563
15653WAT      O47200   6.128   4.060   7.127
15653WAT     H147201   6.219   4.046   7.089
15653WAT     H247202   6.059   4.027   7.062
15654WAT      O47203   7.712   4.006   3.407
15654WAT     H147204   7.692   4.071   3.335
15654WAT     H247205   7.805   3.971   3.396
15655WAT      O47206   6.394   2.594   3.549
15655WAT     H147207   6.439   2.610   3.461
15655WAT     H247208   6.302   2.634   3.547
15656WAT      O47209   6.950   2.105   2.396
15656WAT     H147210   6.871   2.044   2.390
15656WAT     H247211   7.018   2.065   2.458
15657WAT      O47212   6.113   5.306   7.539
15657WAT     H147213   6.207   5.330   7.562
15657WAT     H247214   6.053   5.383   7.557
15658WAT      O47215   8.056   3.213   1.280
15658WAT     H147216   8.144   3.168   1.260
15658WAT     H247217   8.040   3.213   1.378
15659WAT      O47218   7.280   2.725   3.024
15659WAT     H147219   7.197   2.780   3.031
15659WAT     H247220   7.265   2.650   2.959
15660WAT      O47221   8.974   1.121   7.572
15660WAT     H147222   8.933   1.203   7.611
15660WAT     H247223   8.940   1.041   7.621
15661WAT      O47224   9.057   4.652   3.880
15661WAT     H147225   9.078   4.633   3.784
15661WAT     H247226   9.134   4.698   3.923
15662WAT      O47227   4.804   3.633   8.156
15662WAT     H147228   4.795   3.724   8.197
15662WAT     H247229   4.733   3.573   8.192
15663WAT      O47230   4.739   1.703   0.247
15663WAT     H147231   4.764   1.676   0.340
15663WAT     H247232   4.691   1.791   0.249
15664WAT      O47233   9.682   6.848   7.667
15664WAT     H147234   9.659   6.751   7.659
15664WAT     H247235   9.776   6.857   7.701
15665WAT      O47236   8.536   2.409   7.193
15665WAT     H147237   8.455   2.353   7.176
15665WAT     H247238   8.507   2.502   7.218
15666WAT      O47239   3.943   5.450   1.189
15666WAT     H147240   3.962   5.374   1.128
15666WAT     H247241   3.939   5.417   1.284
15667WAT      O47242   3.168   6.692   0.637
15667WAT     H147243   3.244   6.712   0.699
15667WAT     H247244   3.084   6.679   0.690
15668WAT      O47245   5.720   7.859   1.268
15668WAT     H147246   5.639   7.803   1.250
15668WAT     H247247   5.728   7.875   1.367
15669WAT      O47248   2.764   2.505   0.735
15669WAT     H147249   2.758   2.419   0.684
15669WAT     H247250   2.698   2.504   0.810
15670WAT      O47251   1.885   9.352   6.243
15670WAT     H147252   1.896   9.353   6.343
15670WAT     H247253   1.794   9.318   6.220
15671WAT      O47254   2.253   8.785   8.682
15671WAT     H147255   2.346   8.752   8.699
15671WAT     H247256   2.251   8.884   8.688
15672WAT      O47257   9.575   5.737   3.933
15672WAT     H147258   9.585   5.637   3.928
15672WAT     H247259   9.531   5.770   3.850
15673WAT      O47260   6.957   8.039   4.732
15673WAT     H147261   6.930   8.099   4.657
15673WAT     H247262   6.978   7.948   4.696
15674WAT      O47263   1.653   0.353   9.540
15674WAT     H147264   1.671   0.388   9.632
15674WAT     H247265   1.654   0.429   9.475
15675WAT      O47266   5.831   3.752   7.461
15675WAT     H147267   5.848   3.846   7.431
15675WAT     H247268   5.788   3.753   7.551
15676WAT      O47269   3.902   3.430   1.716
15676WAT     H147270   3.806   3.403   1.707
15676WAT     H247271   3.907   3.528   1.737
15677WAT      O47272   1.673   4.404   1.409
15677WAT     H147273   1.606   4.365   1.473
15677WAT     H247274   1.732   4.467   1.459
15678WAT      O47275   4.298   2.349   8.535
15678WAT     H147276   4.212   2.374   8.579
15678WAT     H247277   4.374   2.387   8.588
15679WAT      O47278   1.412   1.584   0.526
15679WAT     H147279   1.391   1.676   0.558
15679WAT     H247280   1.415   1.521   0.604
15680WAT      O47281   0.744   1.288   5.062
15680WAT     H147282   0.666   1.333   5.106
15680WAT     H247283   0.765   1.204   5.112
15681WAT      O47284   8.741   3.990   8.393
15681WAT     H147285   8.671   3.996   8.321
15681WAT     H247286   8.698   3.963   8.479
15682WAT      O47287   2.678   5.793   6.736
15682WAT     H147288   2.709   5.851   6.812
15682WAT     H247289   2.757   5.763   6.683
15683WAT      O47290   6.493   3.912   7.703
15683WAT     H147291   6.412   3.886   7.651
15683WAT     H247292   6.574   3.868   7.663
15684WAT      O47293   6.455   7.015   2.873
15684WAT     H147294   6.423   6.934   2.825
15684WAT     H247295   6.383   7.084   2.876
15685WAT      O47296   1.763   5.759   1.517
15685WAT     H147297   1.735   5.674   1.472
15685WAT     H247298   1.746   5.751   1.615
15686WAT      O47299   3.003   6.867   6.136
15686WAT     H147300   3.077   6.934   6.134
15686WAT     H247301   2.992   6.826   6.045
15687WAT      O47302   0.803   8.106   1.253
15687WAT     H147303   0.780   8.037   1.322
15687WAT     H247304   0.794   8.197   1.294
15688WAT      O47305   6.722   3.279   0.054
15688WAT     H147306   6.707   3.299  -0.043
15688WAT     H247307   6.767   3.190   0.063
15689WAT      O47308   4.797   8.998   4.363
15689WAT     H147309   4.719   9.044   4.406
15689WAT     H247310   4.843   9.062   4.302
15690WAT      O47311   0.829   0.820   0.386
15690WAT     H147312   0.790   0.804   0.296
15690WAT     H247313   0.770   0.882   0.439
15691WAT      O47314   9.827   4.387   6.430
15691WAT     H147315   9.753   4.333   6.471
15691WAT     H247316   9.791   4.438   6.352
15692WAT      O47317   5.651   3.898   5.120
15692WAT     H147318   5.619   3.863   5.032
15692WAT     H247319   5.734   3.952   5.107
15693WAT      O47320   6.004   4.212   3.764
15693WAT     H147321   6.087   4.208   3.708
15693WAT     H247322   6.029   4.234   3.858
15694WAT      O47323   3.004   6.446   3.040
15694WAT     H147324   3.012   6.546   3.031
15694WAT     H247325   3.059   6.402   2.969
15695WAT      O47326   6.367   9.516   0.901
15695WAT     H147327   6.387   9.437   0.842
15695WAT     H247328   6.445   9.535   0.960
15696WAT      O47329   2.366   3.882   2.821
15696WAT     H147330   2.466   3.875   2.811
15696WAT     H247331   2.332   3.959   2.768
15697WAT      O47332   2.294   3.165   6.550
15697WAT     H147333   2.226   3.197   6.616
15697WAT     H247334   2.345   3.089   6.589
15698WAT      O47335   1.368   4.735   6.395
15698WAT     H147336   1.271   4.729   6.420
15698WAT     H247337   1.424   4.700   6.470
15699WAT      O47338   1.103   3.542   8.674
15699WAT     H147339   1.156   3.559   8.757
15699WAT     H247340   1.040   3.466   8.691
15700WAT      O47341   5.492   3.229   8.020
15700WAT     H147342   5.573   3.178   7.989
15700WAT     H247343   5.423   3.229   7.948
15701WAT      O47344   2.212   3.108   8.559
15701WAT     H147345   2.254   3.033   8.507
15701WAT     H247346   2.271   3.131   8.636
15702WAT      O47347   6.409   4.025   1.256
15702WAT     H147348   6.365   4.082   1.326
15702WAT     H247349   6.460   3.951   1.299
15703WAT      O47350   3.256   1.671   4.708
15703WAT     H147351   3.239   1.576   4.732
15703WAT     H247352   3.260   1.727   4.791
15704WAT      O47353   0.491   1.530   3.801
15704WAT     H147354   0.516   1.596   3.871
15704WAT     H247355   0.459   1.445   3.844
15705WAT      O47356   8.235   4.942   9.359
15705WAT     H147357   8.136   4.948   9.345
15705WAT     H247358   8.254   4.894   9.444
15706WAT      O47359   7.772   2.418   6.487
15706WAT     H147360   7.854   2.442   6.540
15706WAT     H247361   7.795   2.347   6.421
15707WAT      O47362   5.046   8.625   1.232
15707WAT     H147363   5.012   8.663   1.146
15707WAT     H247364   5.093   8.539   1.213
15708WAT      O47365   5.262   0.700   9.650
15708WAT     H147366   5.245   0.781   9.707
15708WAT     H247367   5.276   0.620   9.709
15709WAT      O47368   0.277   4.511   4.957
15709WAT     H147369   0.348   4.552   4.899
15709WAT     H247370   0.319   4.473   5.039
15710WAT      O47371   9.713   7.714   6.458
15710WAT     H147372   9.672   7.712   6.549
15710WAT     H247373   9.670   7.785   6.403
15711WAT      O47374   8.980   8.161   1.119
15711WAT     H147375   8.986   8.104   1.201
15711WAT     H247376   8.884   8.183   1.101
15712WAT      O47377   8.512   5.116   3.801
15712WAT     H147378   8.490   5.022   3.826
15712WAT     H247379   8.500   5.128   3.703
15713WAT      O47380   3.869   7.273   3.954
15713WAT     H147381   3.826   7.183   3.960
15713WAT     H247382   3.957   7.272   4.003
15714WAT      O47383   1.964   3.798   6.010
15714WAT     H147384   2.055   3.772   5.978
15714WAT     H247385   1.972   3.847   6.097
15715WAT      O47386   4.121   4.694   0.627
15715WAT     H147387   4.191   4.627   0.601
15715WAT     H247388   4.165   4.780   0.650
15716WAT      O47389   7.791   1.503   3.713
15716WAT     H147390   7.712   1.499   3.774
15716WAT     H247391   7.849   1.581   3.738
15717WAT      O47392   7.739   3.885   9.859
15717WAT     H147393   7.771   3.810   9.801
15717WAT     H247394   7.762   3.866   9.954
15718WAT      O47395   5.587   5.900   3.348
15718WAT     H147396   5.497   5.872   3.314
15718WAT     H247397   5.580   5.990   3.391
15719WAT      O47398   8.046   9.308   4.680
15719WAT     H147399   7.955   9.348   4.689
15719WAT     H247400   8.115   9.377   4.699
15720WAT      O47401   9.492   9.740   2.933
15720WAT     H147402   9.492   9.796   2.850
15720WAT     H247403   9.547   9.786   3.003
15721WAT      O47404   8.624   3.121   0.578
15721WAT     H147405   8.586   3.041   0.625
15721WAT     H247406   8.719   3.134   0.607
15722WAT      O47407   6.740   8.082   7.014
15722WAT     H147408   6.834   8.112   7.027
15722WAT     H247409   6.737   8.010   6.944
15723WAT      O47410   5.758   2.147   5.284
15723WAT     H147411   5.701   2.229   5.287
15723WAT     H247412   5.703   2.068   5.312
15724WAT      O47413   0.039   8.571   2.817
15724WAT     H147414   0.035   8.585   2.916
15724WAT     H247415   0.129   8.598   2.784
15725WAT      O47416   8.852   5.750   5.389
15725WAT     H147417   8.760   5.790   5.387
15725WAT     H247418   8.888   5.745   5.296
15726WAT      O47419   5.455   8.691   0.848
15726WAT     H147420   5.479   8.777   0.893
15726WAT     H247421   5.361   8.666   0.872
15727WAT      O47422   8.553   8.250   1.890
15727WAT     H147423   8.462   8.243   1.850
15727WAT     H247424   8.612   8.178   1.853
15728WAT      O47425   9.322   7.455   7.522
15728WAT     H147426   9.349   7.490   7.432
15728WAT     H247427   9.266   7.373   7.510
15729WAT      O47428   5.854   8.016   0.292
15729WAT     H147429   5.821   8.070   0.370
15729WAT     H247430   5.912   8.073   0.234
15730WAT      O47431   5.180   8.340   8.082
15730WAT     H147432   5.083   8.364   8.087
15730WAT     H247433   5.217   8.367   7.993
15731WAT      O47434   1.294   0.425   0.851
15731WAT     H147435   1.364   0.382   0.795
15731WAT     H247436   1.246   0.495   0.798
15732WAT      O47437   4.981   7.324   2.262
15732WAT     H147438   5.041   7.373   2.199
15732WAT     H247439   5.032   7.294   2.342
15733WAT      O47440   0.178   5.976   5.512
15733WAT     H147441   0.088   6.014   5.491
15733WAT     H247442   0.184   5.959   5.610
15734WAT      O47443   1.371   7.071   1.725
15734WAT     H147444   1.333   7.162   1.708
15734WAT     H247445   1.447   7.079   1.789
15735WAT      O47446   3.148   4.251   6.804
15735WAT     H147447   3.057   4.211   6.799
15735WAT     H247448   3.205   4.215   6.729
15736WAT      O47449   6.711   3.882   8.756
15736WAT     H147450   6.786   3.888   8.690
15736WAT     H247451   6.626   3.910   8.713
15737WAT      O47452   0.486   2.844   3.850
15737WAT     H147453   0.406   2.874   3.797
15737WAT     H247454   0.539   2.924   3.878
15738WAT      O47455   7.988   1.092   9.450
15738WAT     H147456   7.937   1.007   9.444
15738WAT     H247457   8.042   1.093   9.534
15739WAT      O47458   3.877   7.063   6.772
15739WAT     H147459   3.934   7.096   6.697
15739WAT     H247460   3.860   6.965   6.760
15740WAT      O47461   0.204   7.205   4.296
15740WAT     H147462   0.116   7.192   4.341
15740WAT     H247463   0.233   7.301   4.304
15741WAT      O47464   5.257   9.836   4.084
15741WAT     H147465   5.191   9.765   4.110
15741WAT     H247466   5.229   9.923   4.125
15742WAT      O47467   7.858   9.267   6.068
15742WAT     H147468   7.842   9.174   6.101
15742WAT     H247469   7.844   9.269   5.969
15743WAT      O47470   5.560   4.402   7.280
15743WAT     H147471   5.555   4.411   7.379
15743WAT     H247472   5.578   4.491   7.239
15744WAT      O47473   6.712   6.470   1.409
15744WAT     H147474   6.657   6.425   1.339
15744WAT     H247475   6.809   6.454   1.389
15745WAT      O47476   7.842   5.279   0.662
15745WAT     H147477   7.878   5.214   0.729
15745WAT     H247478   7.823   5.367   0.708
15746WAT      O47479   1.788   3.117   6.376
15746WAT     H147480   1.774   3.194   6.438
15746WAT     H247481   1.712   3.052   6.386
15747WAT      O47482   9.886   8.063   8.823
15747WAT     H147483   9.896   8.159   8.794
15747WAT     H247484   9.845   8.060   8.914
15748WAT      O47485   4.430   6.719   1.731
15748WAT     H147486   4.495   6.738   1.805
15748WAT     H247487   4.480   6.698   1.647
15749WAT      O47488   4.513   5.304   7.045
15749WAT     H147489   4.430   5.351   7.015
15749WAT     H247490   4.568   5.278   6.965
15750WAT      O47491   4.286   9.153   1.913
15750WAT     H147492   4.291   9.124   1.817
15750WAT     H247493   4.228   9.233   1.921
15751WAT      O47494   7.143   0.739   1.764
15751WAT     H147495   7.085   0.796   1.822
15751WAT     H247496   7.119   0.752   1.668
15752WAT      O47497   3.939   4.189   0.411
15752WAT     H147498   3.916   4.252   0.338
15752WAT     H247499   4.009   4.230   0.470
15753WAT      O47500   4.703   4.622   4.955
15753WAT     H147501   4.774   4.692   4.949
15753WAT     H247502   4.624   4.650   4.900
15754WAT      O47503   6.732   0.160   1.739
15754WAT     H147504   6.778   0.084   1.786
15754WAT     H247505   6.800   0.231   1.717
15755WAT      O47506   0.470   1.985   1.274
15755WAT     H147507   0.469   2.064   1.213
15755WAT     H247508   0.472   1.901   1.220
15756WAT      O47509   4.706   1.783   8.165
15756WAT     H147510   4.678   1.877   8.145
15756WAT     H247511   4.798   1.767   8.130
15757WAT      O47512   4.269   6.290   2.427
15757WAT     H147513   4.316   6.288   2.339
15757WAT     H247514   4.194   6.224   2.427
15758WAT      O47515   5.288   6.588   0.117
15758WAT     H147516   5.293   6.622   0.211
15758WAT     H247517   5.224   6.643   0.064
15759WAT      O47518   1.878   6.652   1.569
15759WAT     H147519   1.826   6.610   1.495
15759WAT     H247520   1.867   6.751   1.565
15760WAT      O47521   2.520   6.538   9.627
15760WAT     H147522   2.561   6.537   9.536
15760WAT     H247523   2.502   6.632   9.655
15761WAT      O47524   2.680   9.445   5.479
15761WAT     H147525   2.673   9.402   5.389
15761WAT     H247526   2.589   9.451   5.520
15762WAT      O47527   0.112   0.087   6.625
15762WAT     H147528   0.035   0.132   6.579
15762WAT     H247529   0.086  -0.006   6.649
15763WAT      O47530   2.161   8.213   0.796
15763WAT     H147531   2.107   8.130   0.781
15763WAT     H247532   2.189   8.218   0.892
15764WAT      O47533   1.945   4.729   5.773
15764WAT     H147534   1.868   4.674   5.806
15764WAT     H247535   1.911   4.815   5.735
15765WAT      O47536   5.350   5.411   8.798
15765WAT     H147537   5.409   5.347   8.749
15765WAT     H247538   5.286   5.361   8.856
15766WAT      O47539   4.503   5.582   5.453
15766WAT     H147540   4.551   5.551   5.535
15766WAT     H247541   4.446   5.508   5.418
15767WAT      O47542   0.257   0.107   1.359
15767WAT     H147543   0.265   0.153   1.270
15767WAT     H247544   0.217   0.171   1.425
15768WAT      O47545   5.152   7.847   9.094
15768WAT     H147546   5.066   7.881   9.133
15768WAT     H247547   5.134   7.765   9.040
15769WAT      O47548   1.622   9.699   1.033
15769WAT     H147549   1.523   9.710   1.043
15769WAT     H247550   1.666   9.711   1.122
15770WAT      O47551   2.336   4.976   5.016
15770WAT     H147552   2.410   4.958   5.080
15770WAT     H247553   2.249   4.947   5.056
15771WAT      O47554   7.249   2.756   5.947
15771WAT     H147555   7.258   2.784   6.042
15771WAT     H247556   7.203   2.828   5.895
15772WAT      O47557   2.517   1.401   3.643
15772WAT     H147558   2.509   1.332   3.572
15772WAT     H247559   2.426   1.423   3.679
15773WAT      O47560   3.076   6.131   5.536
15773WAT     H147561   3.101   6.204   5.599
15773WAT     H247562   3.136   6.135   5.456
15774WAT      O47563   6.424   7.892   6.214
15774WAT     H147564   6.405   7.986   6.244
15774WAT     H247565   6.384   7.877   6.124
15775WAT      O47566   7.066   9.814   6.072
15775WAT     H147567   7.114   9.727   6.084
15775WAT     H247568   7.104   9.882   6.134
15776WAT      O47569   9.047   5.186   7.869
15776WAT     H147570   9.112   5.159   7.798
15776WAT     H247571   8.979   5.114   7.882
15777WAT      O47572   1.090   8.062   7.978
15777WAT     H147573   1.064   7.984   7.922
15777WAT     H247574   1.030   8.139   7.958
15778WAT      O47575   0.118   7.310   5.908
15778WAT     H147576   0.111   7.262   5.996
15778WAT     H247577   0.031   7.302   5.859
15779WAT      O47578   7.387   8.768   0.119
15779WAT     H147579   7.453   8.705   0.077
15779WAT     H247580   7.337   8.817   0.048
15780WAT      O47581   9.527   0.045   9.108
15780WAT     H147582   9.546   0.063   9.012
15780WAT     H247583   9.562   0.120   9.164
15781WAT      O47584   7.889   0.167   1.958
15781WAT     H147585   7.870   0.173   2.056
15781WAT     H247586   7.903   0.258   1.921
15782WAT      O47587   6.091   4.714   7.584
15782WAT     H147588   6.123   4.741   7.493
15782WAT     H247589   6.168   4.681   7.638
15783WAT      O47590   8.604   3.423   8.794
15783WAT     H147591   8.669   3.389   8.863
15783WAT     H247592   8.653   3.477   8.726
15784WAT      O47593   9.075   5.611   8.341
15784WAT     H147594   9.096   5.670   8.263
15784WAT     H247595   8.998   5.552   8.317
15785WAT      O47596   3.667   5.897   2.768
15785WAT     H147597   3.711   5.809   2.783
15785WAT     H247598   3.662   5.947   2.854
15786WAT      O47599   8.208   1.308   9.484
15786WAT     H147600   8.204   1.219   9.528
15786WAT     H247601   8.201   1.380   9.554
15787WAT      O47602   7.754   6.247   7.526
15787WAT     H147603   7.667   6.267   7.480
15787WAT     H247604   7.813   6.327   7.521
15788WAT      O47605   8.581   1.831   6.714
15788WAT     H147606   8.501   1.787   6.753
15788WAT     H247607   8.584   1.927   6.743
15789WAT      O47608   5.942   6.038   7.754
15789WAT     H147609   5.907   6.132   7.749
15789WAT     H247610   5.873   5.979   7.796
15790WAT      O47611   1.943   5.609   4.115
15790WAT     H147612   2.010   5.681   4.135
15790WAT     H247613   1.928   5.554   4.197
15791WAT      O47614   7.576   7.794   0.786
15791WAT     H147615   7.548   7.756   0.874
15791WAT     H247616   7.676   7.787   0.777
15792WAT      O47617   8.457   2.594   3.803
15792WAT     H147618   8.371   2.549   3.827
15792WAT     H247619   8.494   2.639   3.885
15793WAT      O47620   1.452   3.731   3.199
15793WAT     H147621   1.385   3.748   3.271
15793WAT     H247622   1.404   3.719   3.112
15794WAT      O47623   1.325   5.041   8.563
15794WAT     H147624   1.291   5.134   8.550
15794WAT     H247625   1.330   4.994   8.475
15795WAT      O47626   0.367   6.209   9.197
15795WAT     H147627   0.375   6.115   9.231
15795WAT     H247628   0.430   6.221   9.120
15796WAT      O47629   6.490   2.347   2.149
15796WAT     H147630   6.445   2.436   2.153
15796WAT     H247631   6.427   2.280   2.109
15797WAT      O47632   2.701   2.246   0.679
15797WAT     H147633   2.663   2.207   0.596
15797WAT     H247634   2.724   2.173   0.743
15798WAT      O47635   5.149   4.649   4.165
15798WAT     H147636   5.129   4.681   4.073
15798WAT     H247637   5.080   4.583   4.194
15799WAT      O47638   3.725   9.584   5.832
15799WAT     H147639   3.797   9.654   5.835
15799WAT     H247640   3.732   9.525   5.912
15800WAT      O47641   6.927   9.420   6.192
15800WAT     H147642   6.990   9.478   6.140
15800WAT     H247643   6.972   9.392   6.277
15801WAT      O47644   9.292   2.454   7.805
15801WAT     H147645   9.291   2.460   7.905
15801WAT     H247646   9.262   2.541   7.765
15802WAT      O47647   2.441   3.127   7.458
15802WAT     H147648   2.489   3.044   7.430
15802WAT     H247649   2.399   3.112   7.548
15803WAT      O47650   4.505   2.786   2.705
15803WAT     H147651   4.431   2.760   2.644
15803WAT     H247652   4.575   2.836   2.653
15804WAT      O47653   5.263   1.114   0.508
15804WAT     H147654   5.204   1.036   0.529
15804WAT     H247655   5.260   1.133   0.410
15805WAT      O47656   1.951   9.230   8.048
15805WAT     H147657   1.940   9.300   7.978
15805WAT     H247658   1.956   9.140   8.006
15806WAT      O47659   8.231   1.234   8.171
15806WAT     H147660   8.329   1.217   8.154
15806WAT     H247661   8.183   1.241   8.083
15807WAT      O47662   3.167   1.440   9.277
15807WAT     H147663   3.127   1.532   9.269
15807WAT     H247664   3.229   1.437   9.355
15808WAT      O47665   9.386   2.567   1.779
15808WAT     H147666   9.441   2.601   1.702
15808WAT     H247667   9.407   2.470   1.793
15809WAT      O47668   6.373   5.240   0.728
15809WAT     H147669   6.330   5.190   0.804
15809WAT     H247670   6.304   5.261   0.659
15810WAT      O47671   7.578   3.146   7.246
15810WAT     H147672   7.677   3.134   7.237
15810WAT     H247673   7.558   3.243   7.264
15811WAT      O47674   9.013   3.897   8.309
15811WAT     H147675   9.087   3.861   8.365
15811WAT     H247676   8.936   3.923   8.367
15812WAT      O47677   5.398   0.868   7.189
15812WAT     H147678   5.475   0.891   7.249
15812WAT     H247679   5.398   0.770   7.171
15813WAT      O47680   7.121   7.524   6.998
15813WAT     H147681   7.209   7.567   6.979
15813WAT     H247682   7.051   7.595   7.010
15814WAT      O47683   4.000   1.797   9.716
15814WAT     H147684   4.096   1.823   9.705
15814WAT     H247685   3.965   1.834   9.802
15815WAT      O47686   6.102   8.083   5.033
15815WAT     H147687   6.082   8.018   5.106
15815WAT     H247688   6.033   8.156   5.035
15816WAT      O47689   1.176   7.689   7.465
15816WAT     H147690   1.088   7.697   7.417
15816WAT     H247691   1.205   7.779   7.497
15817WAT      O47692   7.292   9.472   3.864
15817WAT     H147693   7.194   9.468   3.885
15817WAT     H247694   7.333   9.550   3.911
15818WAT      O47695   3.287   8.856   0.103
15818WAT     H147696   3.225   8.783   0.133
15818WAT     H247697   3.292   8.926   0.174
15819WAT      O47698   6.951   4.234   8.906
15819WAT     H147699   6.915   4.267   8.819
15819WAT     H247700   7.028   4.172   8.889
15820WAT      O47701   4.233   2.545   4.252
15820WAT     H147702   4.231   2.593   4.340
15820WAT     H247703   4.251   2.611   4.179
15821WAT      O47704   6.956   3.380   3.506
15821WAT     H147705   6.969   3.424   3.418
15821WAT     H247706   7.003   3.291   3.506
15822WAT      O47707   6.134   8.837   0.535
15822WAT     H147708   6.074   8.916   0.517
15822WAT     H247709   6.229   8.868   0.539
15823WAT      O47710   5.553   1.471   3.664
15823WAT     H147711   5.623   1.411   3.625
15823WAT     H247712   5.545   1.554   3.609
15824WAT      O47713   9.731   1.164   1.220
15824WAT     H147714   9.752   1.229   1.147
15824WAT     H247715   9.762   1.073   1.195
15825WAT      O47716   6.525   6.113   8.182
15825WAT     H147717   6.541   6.120   8.084
15825WAT     H247718   6.531   6.204   8.224
15826WAT      O47719   7.623   0.747   8.358
15826WAT     H147720   7.667   0.725   8.444
15826WAT     H247721   7.649   0.840   8.331
15827WAT      O47722   7.512   1.936   0.106
15827WAT     H147723   7.435   1.990   0.139
15827WAT     H247724   7.487   1.892   0.019
15828WAT      O47725   8.893   0.830   5.717
15828WAT     H147726   8.982   0.852   5.756
15828WAT     H247727   8.828   0.810   5.791
15829WAT      O47728   1.325   4.104   8.781
15829WAT     H147729   1.422   4.111   8.806
15829WAT     H247730   1.277   4.054   8.853
15830WAT      O47731   6.624   2.713   5.223
15830WAT     H147732   6.708   2.665   5.250
15830WAT     H247733   6.621   2.722   5.124
15831WAT      O47734   1.219   7.326   9.550
15831WAT     H147735   1.180   7.238   9.578
15831WAT     H247736   1.319   7.321   9.557
15832WAT      O47737   7.111   4.422   7.034
15832WAT     H147738   7.171   4.383   6.964
15832WAT     H247739   7.038   4.358   7.054
15833WAT      O47740   3.071   3.658   0.606
15833WAT     H147741   3.070   3.621   0.699
15833WAT     H247742   2.981   3.697   0.585
15834WAT      O47743   5.254   9.473   2.887
15834WAT     H147744   5.207   9.499   2.803
15834WAT     H247745   5.282   9.556   2.936
15835WAT      O47746   2.045   8.219   4.811
15835WAT     H147747   1.958   8.202   4.764
15835WAT     H247748   2.075   8.136   4.858
15836WAT      O47749   3.782   3.676   6.732
15836WAT     H147750   3.788   3.615   6.811
15836WAT     H247751   3.726   3.633   6.661
15837WAT      O47752   6.969   4.310   4.258
15837WAT     H147753   7.066   4.303   4.233
15837WAT     H247754   6.928   4.386   4.207
15838WAT      O47755   1.475   9.721   3.602
15838WAT     H147756   1.428   9.808   3.616
15838WAT     H247757   1.553   9.735   3.541
15839WAT      O47758   7.122   9.278   1.435
15839WAT     H147759   7.194   9.278   1.504
15839WAT     H247760   7.133   9.199   1.375
15840WAT      O47761   5.739   7.970   9.382
15840WAT     H147762   5.685   8.011   9.456
15840WAT     H247763   5.726   8.023   9.298
15841WAT      O47764   3.361   5.807   4.573
15841WAT     H147765   3.424   5.881   4.592
15841WAT     H247766   3.267   5.837   4.593
15842WAT      O47767   7.276   7.125   6.746
15842WAT     H147768   7.235   7.037   6.721
15842WAT     H247769   7.229   7.162   6.827
15843WAT      O47770   7.959   2.439   9.740
15843WAT     H147771   7.894   2.506   9.705
15843WAT     H247772   7.913   2.351   9.752
15844WAT      O47773   0.752   0.534   7.003
15844WAT     H147774   0.740   0.448   7.053
15844WAT     H247775   0.790   0.603   7.064
15845WAT      O47776   7.831   7.694   0.755
15845WAT     H147777   7.829   7.621   0.686
15845WAT     H247778   7.895   7.765   0.726
15846WAT      O47779   1.336   6.797   1.633
15846WAT     H147780   1.394   6.769   1.557
15846WAT     H247781   1.368   6.884   1.670
15847WAT      O47782   1.425   3.268   6.708
15847WAT     H147783   1.415   3.204   6.784
15847WAT     H247784   1.516   3.256   6.667
15848WAT      O47785   9.586   2.111   8.964
15848WAT     H147786   9.513   2.112   8.895
15848WAT     H247787   9.651   2.184   8.945
15849WAT      O47788   5.932   5.999   1.161
15849WAT     H147789   5.934   6.064   1.236
15849WAT     H247790   5.838   5.983   1.132
15850WAT      O47791   8.516   2.283   9.351
15850WAT     H147792   8.560   2.261   9.439
15850WAT     H247793   8.553   2.369   9.316
15851WAT      O47794   1.263   2.366   8.944
15851WAT     H147795   1.236   2.457   8.913
15851WAT     H247796   1.331   2.374   9.017
15852WAT      O47797   4.144   6.530   7.085
15852WAT     H147798   4.144   6.629   7.095
15852WAT     H247799   4.119   6.506   6.991
15853WAT      O47800   8.537   6.962   7.810
15853WAT     H147801   8.533   6.862   7.812
15853WAT     H247802   8.450   6.998   7.775
15854WAT      O47803   5.605   0.828   5.387
15854WAT     H147804   5.549   0.880   5.323
15854WAT     H247805   5.655   0.890   5.447
15855WAT      O47806   4.380   1.125   6.658
15855WAT     H147807   4.339   1.128   6.567
15855WAT     H247808   4.471   1.167   6.656
15856WAT      O47809   9.279   5.371   8.904
15856WAT     H147810   9.263   5.468   8.923
15856WAT     H247811   9.374   5.359   8.873
15857WAT      O47812   6.692   0.591   2.492
15857WAT     H147813   6.645   0.676   2.470
15857WAT     H247814   6.637   0.537   2.555
15858WAT      O47815   9.522   4.210   1.434
15858WAT     H147816   9.470   4.277   1.487
15858WAT     H247817   9.542   4.131   1.492
15859WAT      O47818   7.545   0.592   8.962
15859WAT     H147819   7.589   0.635   9.040
15859WAT     H247820   7.464   0.644   8.937
15860WAT      O47821   9.032   2.766   6.826
15860WAT     H147822   9.064   2.857   6.849
15860WAT     H247823   9.075   2.699   6.886
15861WAT      O47824   2.179   0.653   1.783
15861WAT     H147825   2.187   0.572   1.842
15861WAT     H247826   2.101   0.708   1.813
15862WAT      O47827   5.035   1.614   5.449
15862WAT     H147828   4.948   1.609   5.497
15862WAT     H247829   5.044   1.703   5.405
15863WAT      O47830   0.081   1.972   4.904
15863WAT     H147831   0.013   1.981   4.978
15863WAT     H247832   0.098   1.876   4.886
15864WAT      O47833   1.033   1.176   2.046
15864WAT     H147834   1.101   1.124   2.098
15864WAT     H247835   1.067   1.191   1.953
15865WAT      O47836   8.472   7.377   6.455
15865WAT     H147837   8.474   7.453   6.390
15865WAT     H247838   8.521   7.403   6.538
15866WAT      O47839   1.666   5.243   5.204
15866WAT     H147840   1.567   5.241   5.190
15866WAT     H247841   1.689   5.196   5.289
15867WAT      O47842   1.302   1.994   7.105
15867WAT     H147843   1.346   1.988   7.016
15867WAT     H247844   1.366   1.965   7.176
15868WAT      O47845   5.061   2.873   0.462
15868WAT     H147846   5.017   2.878   0.552
15868WAT     H247847   5.152   2.833   0.471
15869WAT      O47848   9.704   2.788   7.268
15869WAT     H147849   9.637   2.820   7.201
15869WAT     H247850   9.696   2.842   7.352
15870WAT      O47851   2.363   1.054   2.279
15870WAT     H147852   2.440   1.059   2.216
15870WAT     H247853   2.314   0.967   2.265
15871WAT      O47854   2.924   3.453   1.186
15871WAT     H147855   3.017   3.452   1.149
15871WAT     H247856   2.859   3.429   1.113
15872WAT      O47857   0.812   2.595   9.016
15872WAT     H147858   0.717   2.624   9.029
15872WAT     H247859   0.845   2.551   9.100
15873WAT      O47860   2.621   0.093   0.349
15873WAT     H147861   2.694   0.161   0.342
15873WAT     H247862   2.571   0.089   0.263
15874WAT      O47863   5.994   0.063   0.495
15874WAT     H147864   6.016   0.152   0.455
15874WAT     H247865   5.904   0.067   0.539
15875WAT      O47866   2.017   2.776   8.246
15875WAT     H147867   2.049   2.787   8.340
15875WAT     H247868   2.094   2.751   8.187
15876WAT      O47869   8.628   4.513   7.194
15876WAT     H147870   8.602   4.565   7.112
15876WAT     H247871   8.619   4.415   7.176
15877WAT      O47872   9.034   4.654   1.881
15877WAT     H147873   8.975   4.574   1.892
15877WAT     H247874   9.063   4.660   1.785
15878WAT      O47875   2.101   3.373   5.093
15878WAT     H147876   2.099   3.471   5.110
15878WAT     H247877   2.014   3.344   5.053
15879WAT      O47878   3.456   9.787   6.175
15879WAT     H147879   3.380   9.797   6.110
15879WAT     H247880   3.456   9.695   6.213
15880WAT      O47881   3.893   2.418   4.993
15880WAT     H147882   3.982   2.403   4.950
15880WAT     H247883   3.840   2.334   4.991
15881WAT      O47884   0.347   2.493   8.152
15881WAT     H147885   0.315   2.414   8.101
15881WAT     H247886   0.304   2.576   8.116
15882WAT      O47887   7.965   6.004   3.059
15882WAT     H147888   7.922   5.921   3.022
15882WAT     H247889   8.038   6.034   2.997
15883WAT      O47890   3.153   2.979   7.286
15883WAT     H147891   3.091   3.050   7.318
15883WAT     H247892   3.192   2.931   7.364
15884WAT      O47893   0.882   5.000   1.638
15884WAT     H147894   0.924   5.070   1.696
15884WAT     H247895   0.861   4.919   1.692
15885WAT      O47896   3.398   6.650   3.247
15885WAT     H147897   3.353   6.585   3.185
15885WAT     H247898   3.481   6.686   3.204
15886WAT      O47899   2.089   8.495   8.225
15886WAT     H147900   1.989   8.500   8.229
15886WAT     H247901   2.123   8.574   8.174
15887WAT      O47902   6.643   1.981   4.984
15887WAT     H147903   6.632   2.077   4.958
15887WAT     H247904   6.734   1.967   5.023
15888WAT      O47905   4.890   2.548   0.926
15888WAT     H147906   4.880   2.646   0.937
15888WAT     H247907   4.802   2.503   0.940
15889WAT      O47908   2.359   8.725   2.222
15889WAT     H147909   2.317   8.759   2.306
15889WAT     H247910   2.456   8.708   2.238
15890WAT      O47911   7.931   0.144   1.251
15890WAT     H147912   7.992   0.163   1.328
15890WAT     H247913   7.982   0.153   1.165
15891WAT      O47914   7.531   3.977   8.113
15891WAT     H147915   7.484   3.970   8.025
15891WAT     H247916   7.515   4.068   8.152
15892WAT      O47917   7.959   9.263   7.421
15892WAT     H147918   8.033   9.211   7.465
15892WAT     H247919   7.893   9.200   7.382
15893WAT      O47920   4.070   9.605   9.563
15893WAT     H147921   4.020   9.605   9.650
15893WAT     H247922   4.159   9.561   9.576
15894WAT      O47923   6.679   5.480   6.062
15894WAT     H147924   6.591   5.438   6.085
15894WAT     H247925   6.664   5.561   6.006
15895WAT      O47926   2.225   0.788   3.689
15895WAT     H147927   2.161   0.747   3.754
15895WAT     H247928   2.234   0.886   3.709
15896WAT      O47929   1.513   7.334   4.180
15896WAT     H147930   1.612   7.328   4.173
15896WAT     H247931   1.487   7.416   4.230
15897WAT      O47932   8.765   7.385   9.868
15897WAT     H147933   8.811   7.372   9.956
15897WAT     H247934   8.783   7.477   9.834
15898WAT      O47935   5.784   6.809   9.454
15898WAT     H147936   5.737   6.897   9.446
15898WAT     H247937   5.716   6.736   9.459
15899WAT      O47938   3.617   4.875   7.689
15899WAT     H147939   3.552   4.876   7.765
15899WAT     H247940   3.568   4.882   7.603
15900WAT      O47941   0.626   4.670   0.204
15900WAT     H147942   0.668   4.759   0.224
15900WAT     H247943   0.602   4.625   0.290
15901WAT      O47944   4.979   1.308   3.655
15901WAT     H147945   5.066   1.332   3.612
15901WAT     H247946   4.904   1.346   3.601
15902WAT      O47947   4.148   0.122   2.489
15902WAT     H147948   4.176   0.190   2.557
15902WAT     H247949   4.051   0.101   2.501
15903WAT      O47950   9.254   8.538   0.747
15903WAT     H147951   9.217   8.474   0.814
15903WAT     H247952   9.202   8.622   0.748
15904WAT      O47953   7.505   4.620   0.221
15904WAT     H147954   7.423   4.570   0.192
15904WAT     H247955   7.559   4.562   0.283
15905WAT      O47956   4.687   9.346   5.857
15905WAT     H147957   4.755   9.328   5.785
15905WAT     H247958   4.631   9.265   5.872
15906WAT      O47959   2.790   5.219   0.917
15906WAT     H147960   2.762   5.315   0.911
15906WAT     H247961   2.881   5.214   0.959
15907WAT      O47962   2.636   3.362   8.276
15907WAT     H147963   2.713   3.313   8.235
15907WAT     H247964   2.592   3.419   8.206
15908WAT      O47965   0.523   3.216   2.008
15908WAT     H147966   0.608   3.209   2.061
15908WAT     H247967   0.461   3.282   2.053
15909WAT      O47968   7.433   9.346   4.835
15909WAT     H147969   7.453   9.374   4.929
15909WAT     H247970   7.340   9.373   4.812
15910WAT      O47971   8.379   4.168   3.022
15910WAT     H147972   8.351   4.130   3.110
15910WAT     H247973   8.478   4.185   3.023
15911WAT      O47974   0.503   1.474   9.317
15911WAT     H147975   0.464   1.566   9.318
15911WAT     H247976   0.432   1.408   9.292
15912WAT      O47977   6.570   1.423   7.731
15912WAT     H147978   6.637   1.358   7.695
15912WAT     H247979   6.614   1.511   7.745
15913WAT      O47980   9.546   7.039   6.751
15913WAT     H147981   9.609   6.998   6.817
15913WAT     H247982   9.586   7.033   6.659
15914WAT      O47983   0.729   7.352   6.648
15914WAT     H147984   0.687   7.315   6.565
15914WAT     H247985   0.810   7.405   6.624
15915WAT      O47986   9.176   2.068   1.688
15915WAT     H147987   9.082   2.099   1.680
15915WAT     H247988   9.234   2.145   1.718
15916WAT      O47989   0.630   7.208   4.289
15916WAT     H147990   0.635   7.232   4.193
15916WAT     H247991   0.717   7.166   4.318
15917WAT      O47992   2.139   2.966   1.144
15917WAT     H147993   2.231   2.943   1.176
15917WAT     H247994   2.072   2.920   1.202
15918WAT      O47995   6.916   9.013   2.006
15918WAT     H147996   6.903   9.084   1.937
15918WAT     H247997   6.841   8.948   2.001
15919WAT      O47998   8.394   8.809   4.698
15919WAT     H147999   8.476   8.763   4.665
15919WAT     H248000   8.361   8.763   4.781
15920WAT      O48001   0.739   3.117   5.834
15920WAT     H148002   0.693   3.104   5.746
15920WAT     H248003   0.794   3.200   5.831
15921WAT      O48004   4.080   4.938   5.601
15921WAT     H148005   3.997   4.895   5.637
15921WAT     H248006   4.054   5.016   5.544
15922WAT      O48007   5.627   3.669   8.299
15922WAT     H148008   5.621   3.760   8.339
15922WAT     H248009   5.710   3.623   8.331
15923WAT      O48010   1.290   2.085   6.563
15923WAT     H148011   1.228   2.022   6.611
15923WAT     H248012   1.384   2.065   6.589
15924WAT      O48013   9.027   4.113   5.272
15924WAT     H148014   9.062   4.191   5.220
15924WAT     H248015   9.098   4.042   5.278
15925WAT      O48016   8.009   6.183   6.880
15925WAT     H148017   7.957   6.212   6.800
15925WAT     H248018   8.097   6.230   6.882
15926WAT      O48019   4.233   2.395   4.640
15926WAT     H148020   4.205   2.303   4.667
15926WAT     H248021   4.317   2.389   4.587
15927WAT      O48022   2.500   3.006   3.932
15927WAT     H148023   2.408   2.977   3.960
15927WAT     H248024   2.506   3.005   3.833
15928WAT      O48025   1.135   4.914   8.945
15928WAT     H148026   1.160   5.011   8.956
15928WAT     H248027   1.167   4.882   8.856
15929WAT      O48028   1.518   0.440   9.219
15929WAT     H148029   1.533   0.508   9.291
15929WAT     H248030   1.507   0.487   9.131
15930WAT      O48031   6.869   3.822   2.210
15930WAT     H148032   6.948   3.882   2.224
15930WAT     H248033   6.900   3.734   2.174
15931WAT      O48034   3.381   6.771   7.739
15931WAT     H148035   3.415   6.803   7.828
15931WAT     H248036   3.282   6.766   7.741
15932WAT      O48037   0.505   4.835   4.353
15932WAT     H148038   0.557   4.848   4.437
15932WAT     H248039   0.410   4.814   4.374
15933WAT      O48040   4.664   5.567   6.740
15933WAT     H148041   4.763   5.568   6.753
15933WAT     H248042   4.621   5.625   6.809
15934WAT      O48043   7.238   9.197   5.419
15934WAT     H148044   7.324   9.227   5.461
15934WAT     H248045   7.241   9.213   5.321
15935WAT      O48046   1.817   9.829   0.441
15935WAT     H148047   1.884   9.884   0.490
15935WAT     H248048   1.738   9.885   0.418
15936WAT      O48049   4.633   7.505   6.839
15936WAT     H148050   4.626   7.421   6.785
15936WAT     H248051   4.727   7.540   6.835
15937WAT      O48052   5.797   6.732   0.449
15937WAT     H148053   5.759   6.821   0.425
15937WAT     H248054   5.826   6.733   0.545
15938WAT      O48055   5.668   3.016   8.689
15938WAT     H148056   5.585   3.009   8.633
15938WAT     H248057   5.646   3.059   8.777
15939WAT      O48058   3.138   7.017   0.868
15939WAT     H148059   3.161   6.993   0.963
15939WAT     H248060   3.221   7.037   0.817
15940WAT      O48061   1.643   0.586   4.922
15940WAT     H148062   1.577   0.661   4.924
15940WAT     H248063   1.595   0.499   4.936
15941WAT      O48064   6.679   5.896   1.257
15941WAT     H148065   6.771   5.933   1.242
15941WAT     H248066   6.621   5.919   1.180
15942WAT      O48067   4.874   4.217   5.544
15942WAT     H148068   4.841   4.133   5.499
15942WAT     H248069   4.826   4.229   5.630
15943WAT      O48070   6.023   7.981   9.801
15943WAT     H148071   5.937   7.952   9.760
15943WAT     H248072   6.007   8.060   9.860
15944WAT      O48073   3.424   0.802   9.454
15944WAT     H148074   3.392   0.869   9.386
15944WAT     H248075   3.510   0.761   9.422
15945WAT      O48076   9.398   8.344   3.094
15945WAT     H148077   9.326   8.387   3.148
15945WAT     H248078   9.439   8.270   3.146
15946WAT      O48079   8.347   5.791   7.063
15946WAT     H148080   8.406   5.783   6.983
15946WAT     H248081   8.257   5.752   7.042
15947WAT      O48082   1.235   0.961   9.717
15947WAT     H148083   1.306   1.030   9.711
15947WAT     H248084   1.222   0.934   9.812
15948WAT      O48085   8.632   9.666   9.827
15948WAT     H148086   8.560   9.702   9.886
15948WAT     H248087   8.691   9.605   9.881
15949WAT      O48088   6.151   2.129   7.175
15949WAT     H148089   6.242   2.171   7.173
15949WAT     H248090   6.124   2.113   7.270
15950WAT      O48091   5.464   3.256   2.775
15950WAT     H148092   5.495   3.162   2.791
15950WAT     H248093   5.500   3.288   2.688
15951WAT      O48094   9.854   4.526   9.757
15951WAT     H148095   9.906   4.608   9.784
15951WAT     H248096   9.884   4.497   9.667
15952WAT      O48097   5.940   1.042   5.272
15952WAT     H148098   6.032   1.045   5.235
15952WAT     H248099   5.895   1.130   5.259
15953WAT      O48100   8.655   4.762   8.994
15953WAT     H148101   8.577   4.820   8.973
15953WAT     H248102   8.740   4.814   8.982
15954WAT      O48103   1.498   4.647   8.882
15954WAT     H148104   1.573   4.581   8.878
15954WAT     H248105   1.441   4.639   8.800
15955WAT      O48106   0.642   2.771   3.296
15955WAT     H148107   0.573   2.700   3.304
15955WAT     H248108   0.668   2.803   3.388
15956WAT      O48109   1.357   0.078   2.704
15956WAT     H148110   1.285   0.125   2.755
15956WAT     H248111   1.350  -0.020   2.718
15957WAT      O48112   2.899   7.418   1.472
15957WAT     H148113   2.934   7.479   1.542
15957WAT     H248114   2.864   7.472   1.395
15958WAT      O48115   8.871   8.595   3.614
15958WAT     H148116   8.854   8.606   3.712
15958WAT     H248117   8.785   8.605   3.564
15959WAT      O48118   3.060   4.022   2.869
15959WAT     H148119   3.130   4.090   2.845
15959WAT     H248120   3.090   3.970   2.949
15960WAT      O48121   0.710   7.203   2.022
15960WAT     H148122   0.772   7.274   1.990
15960WAT     H248123   0.669   7.231   2.109
15961WAT      O48124   4.672   3.836   5.452
15961WAT     H148125   4.677   3.737   5.439
15961WAT     H248126   4.760   3.878   5.426
15962WAT      O48127   8.489   0.277   2.966
15962WAT     H148128   8.462   0.362   3.010
15962WAT     H248129   8.433   0.202   3.000
15963WAT      O48130   5.217   9.379   2.004
15963WAT     H148131   5.234   9.477   1.991
15963WAT     H248132   5.266   9.348   2.085
15964WAT      O48133   3.632   4.257   2.730
15964WAT     H148134   3.726   4.232   2.707
15964WAT     H248135   3.632   4.315   2.812
15965WAT      O48136   6.547   5.889   6.045
15965WAT     H148137   6.563   5.980   6.084
15965WAT     H248138   6.490   5.897   5.963
15966WAT      O48139   8.217   1.104   6.271
15966WAT     H148140   8.123   1.121   6.298
15966WAT     H248141   8.275   1.099   6.352
15967WAT      O48142   1.243   5.267   0.943
15967WAT     H148143   1.242   5.334   1.017
15967WAT     H248144   1.261   5.314   0.857
15968WAT      O48145   9.333   7.629   9.479
15968WAT     H148146   9.262   7.679   9.529
15968WAT     H248147   9.423   7.654   9.514
15969WAT      O48148   1.618   8.471   9.224
15969WAT     H148149   1.521   8.498   9.218
15969WAT     H248150   1.655   8.462   9.132
15970WAT      O48151   0.202   7.825   0.857
15970WAT     H148152   0.215   7.770   0.940
15970WAT     H248153   0.197   7.922   0.881
15971WAT      O48154   6.061   9.005   9.816
15971WAT     H148155   6.134   8.940   9.798
15971WAT     H248156   6.044   9.010   9.915
15972WAT      O48157   3.303   0.653   6.925
15972WAT     H148158   3.226   0.598   6.892
15972WAT     H248159   3.269   0.734   6.973
15973WAT      O48160   7.861   2.003   9.268
15973WAT     H148161   7.883   2.070   9.197
15973WAT     H248162   7.786   1.945   9.236
15974WAT      O48163   9.653   1.543   7.153
15974WAT     H148164   9.699   1.629   7.127
15974WAT     H248165   9.613   1.553   7.244
15975WAT      O48166   9.311   7.655   7.915
15975WAT     H148167   9.361   7.616   7.992
15975WAT     H248168   9.271   7.582   7.860
15976WAT      O48169   7.400   4.375   7.963
15976WAT     H148170   7.312   4.350   7.923
15976WAT     H248171   7.385   4.435   8.042
15977WAT      O48172   2.031   3.100   6.958
15977WAT     H148173   1.983   3.015   6.938
15977WAT     H248174   1.965   3.175   6.967
15978WAT      O48175   7.318   7.294   7.227
15978WAT     H148176   7.410   7.281   7.190
15978WAT     H248177   7.276   7.204   7.243
15979WAT      O48178   6.605   8.242   6.425
15979WAT     H148179   6.667   8.321   6.438
15979WAT     H248180   6.660   8.159   6.413
15980WAT      O48181   4.992   6.225   5.726
15980WAT     H148182   5.028   6.133   5.714
15980WAT     H248183   5.054   6.278   5.784
15981WAT      O48184   6.507   2.178   3.399
15981WAT     H148185   6.434   2.241   3.426
15981WAT     H248186   6.550   2.140   3.481
15982WAT      O48187   6.143   2.614   8.124
15982WAT     H148188   6.155   2.570   8.213
15982WAT     H248189   6.064   2.574   8.078
15983WAT      O48190   8.958   8.770   5.960
15983WAT     H148191   9.033   8.704   5.968
15983WAT     H248192   8.927   8.774   5.866
15984WAT      O48193   2.015   7.916   8.932
15984WAT     H148194   2.105   7.875   8.942
15984WAT     H248195   1.944   7.846   8.939
15985WAT      O48196   9.772   6.821   2.095
15985WAT     H148197   9.827   6.894   2.136
15985WAT     H248198   9.787   6.819   1.997
15986WAT      O48199   1.054   6.921   7.593
15986WAT     H148200   0.969   6.890   7.636
15986WAT     H248201   1.033   6.963   7.504
15987WAT      O48202   6.576   8.472   4.641
15987WAT     H148203   6.645   8.530   4.598
15987WAT     H248204   6.503   8.529   4.677
15988WAT      O48205   2.883   9.816   0.118
15988WAT     H148206   2.940   9.757   0.175
15988WAT     H248207   2.874   9.906   0.162
15989WAT      O48208   7.611   8.849   4.083
15989WAT     H148209   7.642   8.801   4.165
15989WAT     H248210   7.641   8.799   4.001
15990WAT      O48211   4.471   0.651   8.812
15990WAT     H148212   4.533   0.573   8.812
15990WAT     H248213   4.482   0.704   8.728
15991WAT      O48214   0.036   6.627   8.688
15991WAT     H148215   0.037   6.644   8.786
15991WAT     H248216  -0.056   6.643   8.652
15992WAT      O48217   7.049   6.843   1.663
15992WAT     H148218   7.058   6.841   1.762
15992WAT     H248219   7.022   6.935   1.634
15993WAT      O48220   0.931   6.672   5.678
15993WAT     H148221   1.016   6.688   5.627
15993WAT     H248222   0.921   6.743   5.748
15994WAT      O48223   2.469   6.521   6.312
15994WAT     H148224   2.382   6.532   6.264
15994WAT     H248225   2.481   6.595   6.379
15995WAT      O48226   0.491   6.325   5.835
15995WAT     H148227   0.426   6.393   5.800
15995WAT     H248228   0.572   6.371   5.870
15996WAT      O48229   4.862   1.795   1.665
15996WAT     H148230   4.856   1.744   1.750
15996WAT     H248231   4.868   1.731   1.588
15997WAT      O48232   1.305   5.456   3.212
15997WAT     H148233   1.377   5.519   3.182
15997WAT     H248234   1.332   5.362   3.190
15998WAT      O48235   2.011   3.036   1.900
15998WAT     H148236   1.946   3.074   1.965
15998WAT     H248237   2.031   3.104   1.829
15999WAT      O48238   3.819   9.818   5.541
15999WAT     H148239   3.910   9.849   5.513
15999WAT     H248240   3.812   9.822   5.641
16000WAT      O48241   0.446   4.042   8.022
16000WAT     H148242   0.443   4.133   7.981
16000WAT     H248243   0.519   3.988   7.980
16001WAT      O48244   0.448   6.063   4.734
16001WAT     H148245   0.444   6.153   4.689
16001WAT     H248246   0.523   6.064   4.800
16002WAT      O48247   4.461   1.991   7.074
16002WAT     H148248   4.374   1.991   7.123
16002WAT     H248249   4.471   2.077   7.024
16003WAT      O48250   1.993   2.541   6.118
16003WAT     H148251   1.993   2.457   6.172
16003WAT     H248252   1.972   2.618   6.178
16004WAT      O48253   9.268   0.465   0.331
16004WAT     H148254   9.296   0.561   0.334
16004WAT     H248255   9.349   0.407   0.328
16005WAT      O48256   2.551   3.183   0.924
16005WAT     H148257   2.585   3.270   0.960
16005WAT     H248258   2.478   3.149   0.984
16006WAT      O48259   8.127   8.350   2.904
16006WAT     H148260   8.167   8.275   2.956
16006WAT     H248261   8.134   8.435   2.956
16007WAT      O48262   5.837   1.508   0.495
16007WAT     H148263   5.832   1.583   0.561
16007WAT     H248264   5.759   1.514   0.432
16008WAT      O48265   2.382   5.972   5.844
16008WAT     H148266   2.456   5.980   5.777
16008WAT     H248267   2.301   5.933   5.801
16009WAT      O48268   2.772   2.379   2.992
16009WAT     H148269   2.687   2.416   3.028
16009WAT     H248270   2.786   2.411   2.898
16010WAT      O48271   0.383   6.314   4.639
16010WAT     H148272   0.293   6.281   4.611
16010WAT     H248273   0.418   6.379   4.571
16011WAT      O48274   9.050   5.338   5.560
16011WAT     H148275   9.052   5.336   5.660
16011WAT     H248276   8.972   5.393   5.530
16012WAT      O48277   7.153   8.339   9.620
16012WAT     H148278   7.095   8.419   9.635
16012WAT     H248279   7.124   8.265   9.681
16013WAT      O48280   2.838   6.541   1.528
16013WAT     H148281   2.787   6.566   1.446
16013WAT     H248282   2.882   6.623   1.566
16014WAT      O48283   5.788   0.139   4.902
16014WAT     H148284   5.693   0.151   4.876
16014WAT     H248285   5.797   0.059   4.961
16015WAT      O48286   6.582   4.936   0.496
16015WAT     H148287   6.602   5.015   0.555
16015WAT     H248288   6.667   4.892   0.470
16016WAT      O48289   3.798   8.423   1.548
16016WAT     H148290   3.760   8.478   1.622
16016WAT     H248291   3.884   8.465   1.516
16017WAT      O48292   6.421   8.183   3.527
16017WAT     H148293   6.352   8.255   3.531
16017WAT     H248294   6.477   8.196   3.445
16018WAT      O48295   6.988   1.735   6.268
16018WAT     H148296   7.040   1.788   6.335
16018WAT     H248297   7.022   1.754   6.176
16019WAT      O48298   4.714   1.043   0.825
16019WAT     H148299   4.696   0.945   0.833
16019WAT     H248300   4.701   1.086   0.914
16020WAT      O48301   0.882   3.021   5.445
16020WAT     H148302   0.898   2.976   5.533
16020WAT     H248303   0.970   3.041   5.402
16021WAT      O48304   9.414   9.372   1.976
16021WAT     H148305   9.413   9.391   1.878
16021WAT     H248306   9.329   9.326   2.002
16022WAT      O48307   2.415   4.867   0.240
16022WAT     H148308   2.379   4.918   0.162
16022WAT     H248309   2.474   4.793   0.207
16023WAT      O48310   6.727   1.212   7.651
16023WAT     H148311   6.751   1.156   7.730
16023WAT     H248312   6.803   1.212   7.586
16024WAT      O48313   7.943   3.766   7.705
16024WAT     H148314   7.858   3.752   7.755
16024WAT     H248315   8.020   3.744   7.764
16025WAT      O48316   1.754   5.494   7.985
16025WAT     H148317   1.852   5.476   7.997
16025WAT     H248318   1.740   5.550   7.904
16026WAT      O48319   5.629   5.775   4.244
16026WAT     H148320   5.673   5.750   4.331
16026WAT     H248321   5.560   5.706   4.221
16027WAT      O48322   2.987   5.287   5.179
16027WAT     H148323   3.040   5.260   5.260
16027WAT     H248324   2.993   5.386   5.167
16028WAT      O48325   0.920   0.636   3.758
16028WAT     H148326   0.947   0.628   3.663
16028WAT     H248327   0.825   0.667   3.764
16029WAT      O48328   7.878   1.927   8.187
16029WAT     H148329   7.816   1.995   8.150
16029WAT     H248330   7.883   1.849   8.125
16030WAT      O48331   5.613   6.027   1.698
16030WAT     H148332   5.608   5.928   1.681
16030WAT     H248333   5.687   6.046   1.762
16031WAT      O48334   1.063   2.083   9.349
16031WAT     H148335   1.037   2.006   9.408
16031WAT     H248336   1.038   2.063   9.254
16032WAT      O48337   0.462   3.317   7.182
16032WAT     H148338   0.441   3.376   7.259
16032WAT     H248339   0.498   3.371   7.106
16033WAT      O48340   9.284   3.298   9.845
16033WAT     H148341   9.281   3.339   9.936
16033WAT     H248342   9.194   3.307   9.801
16034WAT      O48343   9.849   2.044   0.891
16034WAT     H148344   9.923   1.992   0.932
16034WAT     H248345   9.841   2.022   0.794
16035WAT      O48346   1.590   1.995   7.879
16035WAT     H148347   1.562   1.901   7.859
16035WAT     H248348   1.571   2.016   7.975
16036WAT      O48349   7.318   7.306   0.861
16036WAT     H148350   7.355   7.266   0.945
16036WAT     H248351   7.292   7.401   0.878
16037WAT      O48352   6.771   8.832   9.714
16037WAT     H148353   6.716   8.860   9.792
16037WAT     H248354   6.723   8.762   9.662
16038WAT      O48355   6.309   4.903   0.042
16038WAT     H148356   6.219   4.865   0.060
16038WAT     H248357   6.352   4.854  -0.034
16039WAT      O48358   8.489   1.411   6.082
16039WAT     H148359   8.471   1.410   6.180
16039WAT     H248360   8.434   1.342   6.036
16040WAT      O48361   7.339   2.001   4.741
16040WAT     H148362   7.436   2.010   4.719
16040WAT     H248363   7.328   1.971   4.836
16041WAT      O48364   6.411   1.910   7.702
16041WAT     H148365   6.396   1.994   7.754
16041WAT     H248366   6.416   1.932   7.604
16042WAT      O48367   5.483   3.423   3.380
16042WAT     H148368   5.412   3.371   3.333
16042WAT     H248369   5.449   3.454   3.469
16043WAT      O48370   2.490   2.539   8.648
16043WAT     H148371   2.508   2.444   8.674
16043WAT     H248372   2.402   2.545   8.603
16044WAT      O48373   1.442   5.858   3.221
16044WAT     H148374   1.481   5.767   3.205
16044WAT     H248375   1.383   5.883   3.144
16045WAT      O48376   9.496   2.413   6.169
16045WAT     H148377   9.496   2.502   6.124
16045WAT     H248378   9.530   2.424   6.263
16046WAT      O48379   1.340   4.241   5.327
16046WAT     H148380   1.375   4.256   5.234
16046WAT     H248381   1.267   4.173   5.324
16047WAT      O48382   1.089   7.741   4.978
16047WAT     H148383   1.078   7.836   4.947
16047WAT     H248384   1.071   7.736   5.076
16048WAT      O48385   1.039   2.126   3.657
16048WAT     H148386   0.941   2.122   3.637
16048WAT     H248387   1.089   2.154   3.575
16049WAT      O48388   0.176   1.093   6.117
16049WAT     H148389   0.273   1.113   6.101
16049WAT     H248390   0.153   1.004   6.076
16050WAT      O48391   8.482   8.772   9.301
16050WAT     H148392   8.396   8.723   9.288
16050WAT     H248393   8.499   8.786   9.398
16051WAT      O48394   4.967   9.034   1.260
16051WAT     H148395   4.972   9.002   1.166
16051WAT     H248396   4.892   9.099   1.269
16052WAT      O48397   7.121   7.223   0.129
16052WAT     H148398   7.090   7.304   0.079
16052WAT     H248399   7.156   7.251   0.219
16053WAT      O48400   4.834   6.940   4.187
16053WAT     H148401   4.836   6.973   4.281
16053WAT     H248402   4.741   6.946   4.151
16054WAT      O48403   2.123   0.508   8.095
16054WAT     H148404   2.122   0.551   8.185
16054WAT     H248405   2.197   0.440   8.091
16055WAT      O48406   3.785   9.329   8.798
16055WAT     H148407   3.861   9.263   8.808
16055WAT     H248408   3.712   9.287   8.743
16056WAT      O48409   6.467   7.307   3.256
16056WAT     H148410   6.460   7.208   3.270
16056WAT     H248411   6.375   7.345   3.244
16057WAT      O48412   7.858   8.003   0.875
16057WAT     H148413   7.916   8.072   0.920
16057WAT     H248414   7.763   8.016   0.903
16058WAT      O48415   1.666   6.519   7.269
16058WAT     H148416   1.648   6.422   7.281
16058WAT     H248417   1.693   6.559   7.357
16059WAT      O48418   9.140   1.827   7.580
16059WAT     H148419   9.160   1.881   7.498
16059WAT     H248420   9.126   1.888   7.658
16060WAT      O48421   9.384   6.505   7.453
16060WAT     H148422   9.299   6.536   7.496
16060WAT     H248423   9.405   6.564   7.376
16061WAT      O48424   1.582   2.653   1.320
16061WAT     H148425   1.503   2.609   1.362
16061WAT     H248426   1.606   2.605   1.235
16062WAT      O48427   1.514   7.622   4.370
16062WAT     H148428   1.551   7.629   4.462
16062WAT     H248429   1.581   7.657   4.304
16063WAT      O48430   1.520   5.029   5.737
16063WAT     H148431   1.568   5.058   5.820
16063WAT     H248432   1.426   5.063   5.739
16064WAT      O48433   0.133   3.177   9.149
16064WAT     H148434   0.200   3.247   9.122
16064WAT     H248435   0.145   3.156   9.246
16065WAT      O48436   9.472   3.411   8.577
16065WAT     H148437   9.450   3.464   8.495
16065WAT     H248438   9.515   3.325   8.550
16066WAT      O48439   9.636   7.679   8.666
16066WAT     H148440   9.633   7.778   8.683
16066WAT     H248441   9.681   7.662   8.579
16067WAT      O48442   2.657   5.355   7.178
16067WAT     H148443   2.702   5.443   7.161
16067WAT     H248444   2.601   5.331   7.098
16068WAT      O48445   5.790   3.973   6.742
16068WAT     H148446   5.691   3.985   6.750
16068WAT     H248447   5.809   3.895   6.681
16069WAT      O48448   5.841   3.797   6.517
16069WAT     H148449   5.892   3.737   6.579
16069WAT     H248450   5.841   3.758   6.426
16070WAT      O48451   6.321   8.876   7.591
16070WAT     H148452   6.313   8.867   7.691
16070WAT     H248453   6.230   8.870   7.550
16071WAT      O48454   6.337   7.949   6.682
16071WAT     H148455   6.340   7.912   6.775
16071WAT     H248456   6.341   7.874   6.616
16072WAT      O48457   2.067   1.871   7.159
16072WAT     H148458   2.029   1.946   7.213
16072WAT     H248459   2.123   1.908   7.085
16073WAT      O48460   7.819   5.653   1.234
16073WAT     H148461   7.910   5.664   1.194
16073WAT     H248462   7.767   5.738   1.224
16074WAT      O48463   9.179   0.533   5.465
16074WAT     H148464   9.139   0.561   5.553
16074WAT     H248465   9.139   0.446   5.437
16075WAT      O48466   3.059   3.626   7.361
16075WAT     H148467   3.096   3.549   7.310
16075WAT     H248468   2.987   3.595   7.422
16076WAT      O48469   8.785   6.535   6.016
16076WAT     H148470   8.790   6.615   5.956
16076WAT     H248471   8.766   6.454   5.961
16077WAT      O48472   6.959   2.671   1.095
16077WAT     H148473   7.001   2.721   1.020
16077WAT     H248474   6.904   2.595   1.059
16078WAT      O48475   6.089   5.051   7.131
16078WAT     H148476   6.100   4.960   7.090
16078WAT     H248477   6.139   5.118   7.077
16079WAT      O48478   6.314   2.156   2.088
16079WAT     H148479   6.307   2.065   2.130
16079WAT     H248480   6.236   2.171   2.028
16080WAT      O48481   9.482   7.110   2.712
16080WAT     H148482   9.389   7.078   2.693
16080WAT     H248483   9.483   7.210   2.717
16081WAT      O48484   7.329   5.021   8.496
16081WAT     H148485   7.420   5.064   8.497
16081WAT     H248486   7.264   5.082   8.451
16082WAT      O48487   7.959   7.290   6.314
16082WAT     H148488   7.927   7.203   6.350
16082WAT     H248489   8.059   7.294   6.319
16083WAT      O48490   8.577   1.932   8.088
16083WAT     H148491   8.511   1.925   8.013
16083WAT     H248492   8.668   1.949   8.051
16084WAT      O48493   7.980   7.121   1.060
16084WAT     H148494   7.936   7.171   0.985
16084WAT     H248495   8.058   7.173   1.094
16085WAT      O48496   8.815   9.533   3.272
16085WAT     H148497   8.894   9.481   3.241
16085WAT     H248498   8.767   9.481   3.343
16086WAT      O48499   7.716   4.680   7.953
16086WAT     H148500   7.635   4.725   7.991
16086WAT     H248501   7.715   4.583   7.978
16087WAT      O48502   1.836   8.760   1.185
16087WAT     H148503   1.837   8.681   1.246
16087WAT     H248504   1.776   8.831   1.222
16088WAT      O48505   7.018   8.120   9.182
16088WAT     H148506   7.052   8.111   9.276
16088WAT     H248507   7.074   8.065   9.120
16089WAT      O48508   6.196   9.105   1.281
16089WAT     H148509   6.245   9.037   1.335
16089WAT     H248510   6.204   9.195   1.324
16090WAT      O48511   9.438   5.815   3.710
16090WAT     H148512   9.340   5.815   3.689
16090WAT     H248513   9.462   5.900   3.757
16091WAT      O48514   9.863   8.458   5.986
16091WAT     H148515   9.832   8.547   5.954
16091WAT     H248516   9.943   8.429   5.933
16092WAT      O48517   0.851   4.744   7.553
16092WAT     H148518   0.849   4.647   7.578
16092WAT     H248519   0.764   4.786   7.576
16093WAT      O48520   4.843   6.490   7.065
16093WAT     H148521   4.746   6.475   7.045
16093WAT     H248522   4.898   6.452   6.991
16094WAT      O48523   0.541   3.515   5.237
16094WAT     H148524   0.640   3.503   5.242
16094WAT     H248525   0.515   3.546   5.145
16095WAT      O48526   2.029   4.058   8.588
16095WAT     H148527   2.113   4.111   8.585
16095WAT     H248528   1.992   4.059   8.681
16096WAT      O48529   0.781   4.217   9.435
16096WAT     H148530   0.743   4.148   9.497
16096WAT     H248531   0.784   4.179   9.342
16097WAT      O48532   8.706   4.166   7.485
16097WAT     H148533   8.691   4.098   7.414
16097WAT     H248534   8.618   4.200   7.518
16098WAT      O48535   5.613   6.834   7.956
16098WAT     H148536   5.521   6.829   7.918
16098WAT     H248537   5.672   6.766   7.912
16099WAT      O48538   1.040   8.720   9.113
16099WAT     H148539   0.985   8.732   9.196
16099WAT     H248540   1.004   8.643   9.061
16100WAT      O48541   3.888   0.872   1.116
16100WAT     H148542   3.914   0.967   1.130
16100WAT     H248543   3.930   0.837   1.033
16101WAT      O48544   8.462   1.927   4.072
16101WAT     H148545   8.485   2.002   4.134
16101WAT     H248546   8.443   1.845   4.125
16102WAT      O48547   5.766   4.183   7.220
16102WAT     H148548   5.813   4.206   7.135
16102WAT     H248549   5.705   4.258   7.246
16103WAT      O48550   1.171   1.037   2.269
16103WAT     H148551   1.150   1.034   2.367
16103WAT     H248552   1.262   1.075   2.255
16104WAT      O48553   0.546   6.264   2.374
16104WAT     H148554   0.571   6.337   2.310
16104WAT     H248555   0.459   6.224   2.347
16105WAT      O48556   6.170   6.996   8.001
16105WAT     H148557   6.130   6.984   7.910
16105WAT     H248558   6.222   6.915   8.026
16106WAT      O48559   2.347   0.625   7.882
16106WAT     H148560   2.271   0.564   7.860
16106WAT     H248561   2.400   0.586   7.957
16107WAT      O48562   9.618   2.510   2.765
16107WAT     H148563   9.585   2.421   2.734
16107WAT     H248564   9.717   2.510   2.769
16108WAT      O48565   3.802   0.885   2.177
16108WAT     H148566   3.721   0.869   2.120
16108WAT     H248567   3.783   0.959   2.242
16109WAT      O48568   1.432   8.525   4.366
16109WAT     H148569   1.491   8.597   4.328
16109WAT     H248570   1.482   8.439   4.368
16110WAT      O48571   1.874   6.070   1.056
16110WAT     H148572   1.887   5.998   0.988
16110WAT     H248573   1.863   6.029   1.146
16111WAT      O48574   1.273   4.272   2.941
16111WAT     H148575   1.251   4.265   2.844
16111WAT     H248576   1.189   4.271   2.995
16112WAT      O48577   3.086   7.876   5.928
16112WAT     H148578   3.162   7.820   5.897
16112WAT     H248579   3.029   7.823   5.991
16113WAT      O48580   9.124   7.710   4.261
16113WAT     H148581   9.061   7.649   4.309
16113WAT     H248582   9.151   7.785   4.321
16114WAT      O48583   3.592   9.634   2.550
16114WAT     H148584   3.673   9.638   2.609
16114WAT     H248585   3.510   9.633   2.607
16115WAT      O48586   5.053   5.486   9.802
16115WAT     H148587   5.014   5.443   9.720
16115WAT     H248588   4.984   5.490   9.874
16116WAT      O48589   6.892   7.409   3.265
16116WAT     H148590   6.923   7.502   3.285
16116WAT     H248591   6.815   7.386   3.325
16117WAT      O48592   4.554   7.287   5.024
16117WAT     H148593   4.629   7.235   5.066
16117WAT     H248594   4.503   7.335   5.095
16118WAT      O48595   5.746   8.022   8.926
16118WAT     H148596   5.671   8.073   8.884
16118WAT     H248597   5.816   8.002   8.856
16119WAT      O48598   5.587   1.128   4.433
16119WAT     H148599   5.571   1.067   4.510
16119WAT     H248600   5.539   1.214   4.449
16120WAT      O48601   2.642   4.312   5.247
16120WAT     H148602   2.732   4.338   5.280
16120WAT     H248603   2.608   4.380   5.182
16121WAT      O48604   0.261   1.337   1.657
16121WAT     H148605   0.352   1.296   1.647
16121WAT     H248606   0.270   1.436   1.667
16122WAT      O48607   5.413   1.415   1.692
16122WAT     H148608   5.430   1.510   1.721
16122WAT     H248609   5.465   1.396   1.608
16123WAT      O48610   7.390   5.272   9.036
16123WAT     H148611   7.468   5.218   9.065
16123WAT     H248612   7.400   5.296   8.940
16124WAT      O48613   2.475   2.336   2.425
16124WAT     H148614   2.420   2.345   2.508
16124WAT     H248615   2.442   2.401   2.356
16125WAT      O48616   9.213   4.754   2.202
16125WAT     H148617   9.169   4.812   2.133
16125WAT     H248618   9.186   4.785   2.294
16126WAT      O48619   4.951   9.196   4.285
16126WAT     H148620   4.911   9.288   4.280
16126WAT     H248621   5.035   9.199   4.339
16127WAT      O48622   9.364   3.614   3.361
16127WAT     H148623   9.318   3.583   3.277
16127WAT     H248624   9.303   3.676   3.411
16128WAT      O48625   3.990   3.532   8.077
16128WAT     H148626   3.934   3.507   8.156
16128WAT     H248627   4.019   3.627   8.086
16129WAT      O48628   1.649   5.431   2.429
16129WAT     H148629   1.670   5.526   2.407
16129WAT     H248630   1.582   5.428   2.503
16130WAT      O48631   9.827   4.745   0.707
16130WAT     H148632   9.778   4.704   0.784
16130WAT     H248633   9.826   4.681   0.630
16131WAT      O48634   2.815   6.072   5.745
16131WAT     H148635   2.851   6.017   5.820
16131WAT     H248636   2.856   6.042   5.659
16132WAT      O48637   6.682   6.959   6.025
16132WAT     H148638   6.606   6.955   6.089
16132WAT     H248639   6.724   7.050   6.028
16133WAT      O48640   0.079   3.142   9.693
16133WAT     H148641  -0.020   3.126   9.689
16133WAT     H248642   0.122   3.072   9.750
16134WAT      O48643   8.710   5.292   9.501
16134WAT     H148644   8.686   5.271   9.596
16134WAT     H248645   8.632   5.276   9.442
16135WAT      O48646   9.007   2.622   7.943
16135WAT     H148647   9.074   2.616   8.017
16135WAT     H248648   9.038   2.690   7.876
16136WAT      O48649   7.244   9.704   4.413
16136WAT     H148650   7.148   9.697   4.437
16136WAT     H248651   7.270   9.627   4.356
16137WAT      O48652   1.259   0.126   2.427
16137WAT     H148653   1.242   0.224   2.439
16137WAT     H248654   1.330   0.096   2.490
16138WAT      O48655   1.976   2.362   5.905
16138WAT     H148656   1.993   2.433   5.973
16138WAT     H248657   2.035   2.284   5.923
16139WAT      O48658   6.551   3.946   4.407
16139WAT     H148659   6.591   4.034   4.379
16139WAT     H248660   6.553   3.938   4.507
16140WAT      O48661   6.531   6.728   5.087
16140WAT     H148662   6.595   6.705   5.013
16140WAT     H248663   6.558   6.678   5.170
16141WAT      O48664   8.661   5.340   3.499
16141WAT     H148665   8.753   5.318   3.532
16141WAT     H248666   8.664   5.361   3.402
16142WAT      O48667   6.952   4.165   0.450
16142WAT     H148668   7.021   4.207   0.391
16142WAT     H248669   6.936   4.224   0.530
16143WAT      O48670   4.057   4.941   7.772
16143WAT     H148671   4.031   5.037   7.760
16143WAT     H248672   4.157   4.934   7.780
16144WAT      O48673   9.157   2.808   0.598
16144WAT     H148674   9.198   2.739   0.538
16144WAT     H248675   9.217   2.823   0.677
16145WAT      O48676   1.116   2.181   5.132
16145WAT     H148677   1.215   2.165   5.134
16145WAT     H248678   1.073   2.137   5.211
16146WAT      O48679   2.057   5.345   0.498
16146WAT     H148680   2.129   5.335   0.567
16146WAT     H248681   2.067   5.433   0.453
16147WAT      O48682   8.724   8.922   1.053
16147WAT     H148683   8.771   8.895   1.137
16147WAT     H248684   8.682   8.841   1.011
16148WAT      O48685   3.934   1.025   1.705
16148WAT     H148686   3.975   1.088   1.639
16148WAT     H248687   3.856   0.980   1.663
16149WAT      O48688   0.193   4.593   1.877
16149WAT     H148689   0.289   4.605   1.902
16149WAT     H248690   0.156   4.512   1.923
16150WAT      O48691   0.710   5.650   3.623
16150WAT     H148692   0.764   5.566   3.615
16150WAT     H248693   0.745   5.704   3.700
16151WAT      O48694   0.970   4.157   5.104
16151WAT     H148695   1.010   4.093   5.038
16151WAT     H248696   0.988   4.124   5.197
16152WAT      O48697   6.188   5.762   1.145
16152WAT     H148698   6.238   5.690   1.193
16152WAT     H248699   6.250   5.808   1.081
16153WAT      O48700   8.068   4.458   5.466
16153WAT     H148701   8.168   4.457   5.462
16153WAT     H248702   8.036   4.375   5.512
16154WAT      O48703   1.249   0.421   5.929
16154WAT     H148704   1.233   0.466   5.841
16154WAT     H248705   1.235   0.487   6.003
16155WAT      O48706   8.760   0.706   2.372
16155WAT     H148707   8.663   0.719   2.353
16155WAT     H248708   8.783   0.750   2.459
16156WAT      O48709   2.122   8.436   1.159
16156WAT     H148710   2.130   8.507   1.229
16156WAT     H248711   2.186   8.455   1.085
16157WAT      O48712   1.696   6.444   1.271
16157WAT     H148713   1.791   6.431   1.299
16157WAT     H248714   1.637   6.443   1.351
16158WAT      O48715   9.751   3.464   8.293
16158WAT     H148716   9.746   3.391   8.360
16158WAT     H248717   9.825   3.445   8.227
16159WAT      O48718   8.297   9.723   4.421
16159WAT     H148719   8.201   9.696   4.410
16159WAT     H248720   8.303   9.823   4.427
16160WAT      O48721   7.389   2.268   2.781
16160WAT     H148722   7.339   2.344   2.822
16160WAT     H248723   7.375   2.185   2.835
16161WAT      O48724   3.467   1.040   7.910
16161WAT     H148725   3.379   1.087   7.921
16161WAT     H248726   3.526   1.094   7.851
16162WAT      O48727   3.732   8.173   0.554
16162WAT     H148728   3.655   8.197   0.613
16162WAT     H248729   3.699   8.130   0.470
16163WAT      O48730   0.999   4.379   1.269
16163WAT     H148731   0.910   4.383   1.224
16163WAT     H248732   1.055   4.307   1.228
16164WAT      O48733   6.576   8.769   3.072
16164WAT     H148734   6.639   8.811   3.007
16164WAT     H248735   6.590   8.811   3.162
16165WAT      O48736   5.043   2.707   5.011
16165WAT     H148737   5.009   2.756   4.931
16165WAT     H248738   4.970   2.651   5.049
16166WAT      O48739   6.022   5.674   8.346
16166WAT     H148740   6.003   5.654   8.442
16166WAT     H248741   6.053   5.769   8.338
16167WAT      O48742   3.792   8.129   5.064
16167WAT     H148743   3.797   8.211   5.122
16167WAT     H248744   3.841   8.146   4.978
16168WAT      O48745   2.859   0.792   2.300
16168WAT     H148746   2.797   0.760   2.371
16168WAT     H248747   2.895   0.714   2.249
16169WAT      O48748   9.101   3.720   5.876
16169WAT     H148749   9.180   3.689   5.929
16169WAT     H248750   9.063   3.802   5.919
16170WAT      O48751   3.629   4.711   7.332
16170WAT     H148752   3.644   4.640   7.400
16170WAT     H248753   3.649   4.675   7.241
16171WAT      O48754   0.268   8.882   8.065
16171WAT     H148755   0.248   8.800   8.119
16171WAT     H248756   0.214   8.881   7.981
16172WAT      O48757   0.544   5.978   0.358
16172WAT     H148758   0.624   6.037   0.364
16172WAT     H248759   0.565   5.897   0.303
16173WAT      O48760   3.419   3.246   3.748
16173WAT     H148761   3.462   3.212   3.831
16173WAT     H248762   3.321   3.256   3.762
16174WAT      O48763   4.213   9.749   7.802
16174WAT     H148764   4.295   9.693   7.790
16174WAT     H248765   4.227   9.837   7.757
16175WAT      O48766   7.191   1.130   0.295
16175WAT     H148767   7.245   1.159   0.374
16175WAT     H248768   7.187   1.204   0.228
16176WAT      O48769   2.209   2.053   1.274
16176WAT     H148770   2.155   2.132   1.304
16176WAT     H248771   2.298   2.085   1.241
16177WAT      O48772   6.590   5.384   2.224
16177WAT     H148773   6.688   5.376   2.236
16177WAT     H248774   6.554   5.454   2.286
16178WAT      O48775   5.872   1.713   9.160
16178WAT     H148776   5.855   1.625   9.115
16178WAT     H248777   5.963   1.712   9.202
16179WAT      O48778   1.731   2.196   8.814
16179WAT     H148779   1.799   2.196   8.741
16179WAT     H248780   1.640   2.208   8.775
16180WAT      O48781   1.456   5.138   0.180
16180WAT     H148782   1.510   5.058   0.205
16180WAT     H248783   1.512   5.199   0.123
16181WAT      O48784   4.719   7.962   1.284
16181WAT     H148785   4.764   8.049   1.263
16181WAT     H248786   4.626   7.963   1.248
16182WAT      O48787   2.515   7.622   2.369
16182WAT     H148788   2.498   7.715   2.403
16182WAT     H248789   2.438   7.563   2.395
16183WAT      O48790   1.547   1.265   6.530
16183WAT     H148791   1.603   1.182   6.529
16183WAT     H248792   1.576   1.326   6.456
16184WAT      O48793   4.448   8.613   0.770
16184WAT     H148794   4.382   8.563   0.826
16184WAT     H248795   4.401   8.657   0.694
16185WAT      O48796   2.574   5.008   4.682
16185WAT     H148797   2.613   5.080   4.624
16185WAT     H248798   2.618   4.921   4.662
16186WAT      O48799   5.416   8.077   0.383
16186WAT     H148800   5.426   8.159   0.440
16186WAT     H248801   5.487   8.012   0.407
16187WAT      O48802   3.856   3.780   3.909
16187WAT     H148803   3.873   3.764   4.006
16187WAT     H248804   3.809   3.868   3.898
16188WAT      O48805   2.032   3.573   7.095
16188WAT     H148806   2.128   3.552   7.113
16188WAT     H248807   2.020   3.594   6.998
16189WAT      O48808   8.008   8.325   7.993
16189WAT     H148809   7.954   8.362   8.068
16189WAT     H248810   7.947   8.293   7.920
16190WAT      O48811   2.007   6.936   1.099
16190WAT     H148812   2.005   7.009   1.031
16190WAT     H248813   2.005   6.975   1.191
16191WAT      O48814   8.817   2.144   6.730
16191WAT     H148815   8.732   2.195   6.745
16191WAT     H248816   8.879   2.158   6.807
16192WAT      O48817   3.353   3.869   3.908
16192WAT     H148818   3.304   3.948   3.871
16192WAT     H248819   3.355   3.796   3.840
16193WAT      O48820   5.166   8.967   3.493
16193WAT     H148821   5.183   8.896   3.561
16193WAT     H248822   5.174   9.057   3.537
16194WAT      O48823   0.778   8.700   2.690
16194WAT     H148824   0.713   8.758   2.642
16194WAT     H248825   0.862   8.694   2.637
16195WAT      O48826   9.174   9.210   1.999
16195WAT     H148827   9.112   9.275   1.956
16195WAT     H248828   9.172   9.123   1.950
16196WAT      O48829   2.358   3.946   9.144
16196WAT     H148830   2.295   3.993   9.082
16196WAT     H248831   2.407   3.874   9.094
16197WAT      O48832   2.175   8.027   4.284
16197WAT     H148833   2.164   7.950   4.347
16197WAT     H248834   2.260   8.076   4.305
16198WAT      O48835   4.717   8.840   1.668
16198WAT     H148836   4.717   8.823   1.569
16198WAT     H248837   4.804   8.808   1.706
16199WAT      O48838   3.570   1.723   2.720
16199WAT     H148839   3.594   1.664   2.643
16199WAT     H248840   3.471   1.732   2.725
16200WAT      O48841   4.415   2.961   0.171
16200WAT     H148842   4.419   3.056   0.201
16200WAT     H248843   4.342   2.950   0.104
16201WAT      O48844   9.509   0.495   1.963
16201WAT     H148845   9.502   0.429   2.038
16201WAT     H248846   9.448   0.467   1.888
16202WAT      O48847   5.234   2.777   2.020
16202WAT     H148848   5.160   2.760   1.955
16202WAT     H248849   5.317   2.804   1.970
16203WAT      O48850   7.837   6.028   8.191
16203WAT     H148851   7.918   5.999   8.242
16203WAT     H248852   7.766   6.058   8.256
16204WAT      O48853   7.151   0.043   7.557
16204WAT     H148854   7.215   0.008   7.488
16204WAT     H248855   7.077   0.091   7.512
16205WAT      O48856   1.147   9.380   2.079
16205WAT     H148857   1.196   9.462   2.048
16205WAT     H248858   1.195   9.299   2.048
16206WAT      O48859   4.951   5.656   9.234
16206WAT     H148860   5.005   5.664   9.318
16206WAT     H248861   4.855   5.639   9.258
16207WAT      O48862   1.493   5.067   3.412
16207WAT     H148863   1.428   5.050   3.486
16207WAT     H248864   1.446   5.108   3.334
16208WAT      O48865   6.156   7.562   3.003
16208WAT     H148866   6.127   7.535   3.096
16208WAT     H248867   6.255   7.551   2.995
16209WAT      O48868   1.528   6.713   1.428
16209WAT     H148869   1.532   6.622   1.468
16209WAT     H248870   1.478   6.709   1.341
16210WAT      O48871   7.203   2.703   0.007
16210WAT     H148872   7.134   2.772  -0.015
16210WAT     H248873   7.203   2.686   0.106
16211WAT      O48874   1.931   9.384   3.290
16211WAT     H148875   1.987   9.441   3.230
16211WAT     H248876   1.974   9.379   3.380
16212WAT      O48877   8.916   8.072   6.683
16212WAT     H148878   8.989   8.076   6.615
16212WAT     H248879   8.948   8.113   6.769
16213WAT      O48880   5.844   4.561   2.277
16213WAT     H148881   5.925   4.611   2.248
16213WAT     H248882   5.818   4.592   2.369
16214WAT      O48883   9.485   9.596   0.847
16214WAT     H148884   9.414   9.550   0.794
16214WAT     H248885   9.544   9.527   0.889
16215WAT      O48886   5.321   0.500   1.761
16215WAT     H148887   5.254   0.427   1.768
16215WAT     H248888   5.338   0.539   1.852
16216WAT      O48889   2.275   4.256   8.065
16216WAT     H148890   2.308   4.196   8.138
16216WAT     H248891   2.335   4.246   7.985
16217WAT      O48892   6.485   4.169   2.412
16217WAT     H148893   6.425   4.220   2.351
16217WAT     H248894   6.567   4.140   2.362
16218WAT      O48895   4.117   3.873   9.740
16218WAT     H148896   4.053   3.802   9.711
16218WAT     H248897   4.068   3.941   9.795
16219WAT      O48898   3.248   3.098   1.500
16219WAT     H148899   3.156   3.136   1.487
16219WAT     H248900   3.252   3.007   1.460
16220WAT      O48901   8.442   5.360   5.450
16220WAT     H148902   8.465   5.358   5.548
16220WAT     H248903   8.479   5.444   5.410
16221WAT      O48904   5.004   8.653   9.177
16221WAT     H148905   4.962   8.741   9.198
16221WAT     H248906   5.081   8.667   9.115
16222WAT      O48907   2.209   3.511   3.700
16222WAT     H148908   2.258   3.532   3.616
16222WAT     H248909   2.269   3.527   3.778
16223WAT      O48910   5.500   6.866   3.548
16223WAT     H148911   5.492   6.963   3.572
16223WAT     H248912   5.574   6.825   3.600
16224WAT      O48913   3.789   1.761   4.777
16224WAT     H148914   3.787   1.860   4.789
16224WAT     H248915   3.825   1.740   4.686
16225WAT      O48916   6.813   6.713   5.793
16225WAT     H148917   6.749   6.649   5.835
16225WAT     H248918   6.766   6.798   5.771
16226WAT      O48919   0.817   6.988   0.757
16226WAT     H148920   0.782   7.012   0.847
16226WAT     H248921   0.745   7.001   0.689
16227WAT      O48922   6.141   7.808   3.178
16227WAT     H148923   6.191   7.894   3.190
16227WAT     H248924   6.104   7.803   3.085
16228WAT      O48925   8.427   9.460   8.719
16228WAT     H148926   8.410   9.403   8.800
16228WAT     H248927   8.525   9.478   8.711
16229WAT      O48928   2.636   1.275   9.857
16229WAT     H148929   2.676   1.334   9.927
16229WAT     H248930   2.540   1.258   9.878
16230WAT      O48931   9.433   0.903   0.583
16230WAT     H148932   9.369   0.836   0.546
16230WAT     H248933   9.467   0.872   0.672
16231WAT      O48934   8.089   2.982   6.447
16231WAT     H148935   8.059   2.892   6.479
16231WAT     H248936   8.165   2.970   6.382
16232WAT      O48937   8.074   7.785   9.710
16232WAT     H148938   7.985   7.748   9.733
16232WAT     H248939   8.063   7.861   9.646
16233WAT      O48940   6.110   1.011   1.440
16233WAT     H148941   6.042   0.953   1.484
16233WAT     H248942   6.140   0.970   1.354
16234WAT      O48943   6.919   3.156   2.937
16234WAT     H148944   6.867   3.076   2.966
16234WAT     H248945   6.896   3.179   2.843
16235WAT      O48946   7.246   5.576   2.149
16235WAT     H148947   7.295   5.577   2.062
16235WAT     H248948   7.151   5.547   2.133
16236WAT      O48949   1.897   4.962   5.949
16236WAT     H148950   1.931   4.960   5.855
16236WAT     H248951   1.971   4.984   6.011
16237WAT      O48952   8.607   9.356   6.350
16237WAT     H148953   8.642   9.314   6.266
16237WAT     H248954   8.539   9.425   6.327
16238WAT      O48955   6.598   4.580   2.038
16238WAT     H148956   6.646   4.532   2.111
16238WAT     H248957   6.634   4.551   1.949
16239WAT      O48958   8.326   0.681   6.720
16239WAT     H148959   8.376   0.631   6.649
16239WAT     H248960   8.230   0.653   6.720
16240WAT      O48961   7.748   3.155   1.225
16240WAT     H148962   7.766   3.165   1.323
16240WAT     H248963   7.791   3.071   1.192
16241WAT      O48964   3.727   1.338   3.822
16241WAT     H148965   3.740   1.240   3.838
16241WAT     H248966   3.756   1.389   3.903
16242WAT      O48967   4.465   7.422   8.902
16242WAT     H148968   4.475   7.355   8.828
16242WAT     H248969   4.405   7.495   8.872
16243WAT      O48970   6.643   3.353   7.070
16243WAT     H148971   6.635   3.260   7.035
16243WAT     H248972   6.713   3.402   7.018
16244WAT      O48973   1.098   8.768   0.190
16244WAT     H148974   1.054   8.721   0.266
16244WAT     H248975   1.142   8.701   0.130
16245WAT      O48976   5.830   7.704   8.630
16245WAT     H148977   5.919   7.748   8.638
16245WAT     H248978   5.837   7.625   8.569
16246WAT      O48979   2.926   2.210   6.707
16246WAT     H148980   3.010   2.164   6.737
16246WAT     H248981   2.947   2.305   6.683
16247WAT      O48982   6.579   2.961   3.724
16247WAT     H148983   6.516   2.955   3.646
16247WAT     H248984   6.672   2.978   3.691
16248WAT      O48985   5.974   1.203   8.400
16248WAT     H148986   5.957   1.105   8.405
16248WAT     H248987   5.988   1.230   8.304
16249WAT      O48988   9.020   2.921   4.724
16249WAT     H148989   9.101   2.967   4.688
16249WAT     H248990   9.033   2.822   4.722
16250WAT      O48991   9.133   0.955   0.593
16250WAT     H148992   9.134   1.048   0.554
16250WAT     H248993   9.124   0.888   0.520
16251WAT      O48994   7.319   7.920   3.525
16251WAT     H148995   7.373   7.869   3.592
16251WAT     H248996   7.381   7.962   3.459
16252WAT      O48997   2.304   2.003   0.781
16252WAT     H148998   2.253   2.046   0.855
16252WAT     H248999   2.310   1.904   0.798
16253WAT      O49000   8.705   9.358   2.248
16253WAT     H149001   8.669   9.318   2.163
16253WAT     H249002   8.805   9.351   2.248
16254WAT      O49003   3.071   8.738   8.871
16254WAT     H149004   2.983   8.786   8.871
16254WAT     H249005   3.101   8.725   8.776
16255WAT      O49006   3.929   9.656   0.454
16255WAT     H149007   3.895   9.685   0.365
16255WAT     H249008   3.852   9.639   0.516
16256WAT      O49009   9.234   9.530   6.664
16256WAT     H149010   9.288   9.535   6.580
16256WAT     H249011   9.251   9.612   6.720
16257WAT      O49012   0.881   5.916   3.209
16257WAT     H149013   0.857   5.893   3.303
16257WAT     H249014   0.980   5.905   3.197
16258WAT      O49015   7.205   3.566   9.451
16258WAT     H149016   7.269   3.616   9.509
16258WAT     H249017   7.127   3.625   9.429
16259WAT      O49018   7.277   0.794   9.151
16259WAT     H149019   7.200   0.731   9.158
16259WAT     H249020   7.328   0.794   9.237
16260WAT      O49021   3.621   2.551   1.370
16260WAT     H149022   3.719   2.566   1.361
16260WAT     H249023   3.572   2.635   1.348
16261WAT      O49024   0.356   5.082   2.792
16261WAT     H149025   0.355   5.174   2.832
16261WAT     H249026   0.369   5.014   2.865
16262WAT      O49027   4.020   8.607   6.484
16262WAT     H149028   4.040   8.676   6.414
16262WAT     H249029   3.923   8.581   6.479
16263WAT      O49030   2.600   4.220   7.362
16263WAT     H149031   2.527   4.152   7.371
16263WAT     H249032   2.570   4.293   7.301
16264WAT      O49033   0.942   5.899   1.923
16264WAT     H149034   1.031   5.894   1.878
16264WAT     H249035   0.953   5.935   2.016
16265WAT      O49036   1.296   0.424   5.374
16265WAT     H149037   1.375   0.393   5.322
16265WAT     H249038   1.322   0.440   5.469
16266WAT      O49039   4.098   5.147   9.098
16266WAT     H149040   4.107   5.239   9.136
16266WAT     H249041   4.117   5.150   9.000
16267WAT      O49042   7.787   9.025   3.777
16267WAT     H149043   7.873   9.013   3.827
16267WAT     H249044   7.738   9.104   3.813
16268WAT      O49045   5.736   8.725   7.037
16268WAT     H149046   5.658   8.753   6.981
16268WAT     H249047   5.745   8.787   7.115
16269WAT      O49048   8.925   3.625   8.755
16269WAT     H149049   8.960   3.555   8.818
16269WAT     H249050   8.989   3.637   8.679
16270WAT      O49051   5.785   1.497   2.806
16270WAT     H149052   5.743   1.421   2.757
16270WAT     H249053   5.726   1.524   2.882
16271WAT      O49054   7.790   4.609   4.895
16271WAT     H149055   7.854   4.626   4.970
16271WAT     H249056   7.700   4.645   4.919
16272WAT      O49057   8.234   6.154   4.695
16272WAT     H149058   8.236   6.222   4.621
16272WAT     H249059   8.323   6.153   4.741
16273WAT      O49060   3.565   9.685   4.684
16273WAT     H149061   3.519   9.619   4.625
16273WAT     H249062   3.658   9.701   4.651
16274WAT      O49063   1.970   0.359   2.670
16274WAT     H149064   2.022   0.355   2.585
16274WAT     H249065   1.944   0.266   2.698
16275WAT      O49066   6.124   3.665   4.851
16275WAT     H149067   6.035   3.644   4.891
16275WAT     H249068   6.114   3.737   4.782
16276WAT      O49069   3.297   5.089   4.402
16276WAT     H149070   3.269   5.166   4.345
16276WAT     H249071   3.327   5.014   4.344
16277WAT      O49072   0.811   5.615   6.075
16277WAT     H149073   0.809   5.658   6.165
16277WAT     H249074   0.884   5.655   6.019
16278WAT      O49075   8.112   3.010   8.682
16278WAT     H149076   8.204   3.042   8.658
16278WAT     H249077   8.102   2.914   8.654
16279WAT      O49078   6.038   1.620   7.256
16279WAT     H149079   6.025   1.672   7.172
16279WAT     H249080   6.013   1.524   7.240
16280WAT      O49081   5.586   9.320   3.777
16280WAT     H149082   5.686   9.317   3.778
16280WAT     H249083   5.551   9.317   3.870
16281WAT      O49084   6.477   7.724   1.294
16281WAT     H149085   6.386   7.700   1.326
16281WAT     H249086   6.483   7.711   1.195
16282WAT      O49087   2.967   4.548   0.305
16282WAT     H149088   3.019   4.621   0.349
16282WAT     H249089   3.008   4.526   0.216
16283WAT      O49090   7.218   1.656   1.887
16283WAT     H149091   7.132   1.609   1.907
16283WAT     H249092   7.295   1.594   1.905
16284WAT      O49093   3.941   2.107   5.067
16284WAT     H149094   3.870   2.082   5.132
16284WAT     H249095   4.026   2.128   5.116
16285WAT      O49096   5.252   2.404   1.792
16285WAT     H149097   5.277   2.367   1.703
16285WAT     H249098   5.243   2.329   1.858
16286WAT      O49099   0.267   7.682   1.308
16286WAT     H149100   0.289   7.745   1.383
16286WAT     H249101   0.291   7.589   1.334
16287WAT      O49102   4.355   2.471   5.984
16287WAT     H149103   4.376   2.429   6.073
16287WAT     H249104   4.363   2.402   5.912
16288WAT      O49105   1.956   5.898   3.457
16288WAT     H149106   2.010   5.814   3.453
16288WAT     H249107   1.876   5.883   3.514
16289WAT      O49108   2.776   8.680   7.123
16289WAT     H149109   2.753   8.662   7.027
16289WAT     H249110   2.823   8.768   7.130
16290WAT      O49111   6.734   8.566   9.554
16290WAT     H149112   6.823   8.539   9.517
16290WAT     H249113   6.688   8.486   9.592
16291WAT      O49114   8.852   2.762   6.637
16291WAT     H149115   8.912   2.767   6.717
16291WAT     H249116   8.761   2.796   6.661
16292WAT      O49117   4.141   2.724   7.926
16292WAT     H149118   4.214   2.778   7.885
16292WAT     H249119   4.126   2.754   8.020
16293WAT      O49120   4.392   6.418   5.465
16293WAT     H149121   4.450   6.487   5.507
16293WAT     H249122   4.381   6.438   5.368
16294WAT      O49123   3.542   8.171   5.013
16294WAT     H149124   3.517   8.264   5.041
16294WAT     H249125   3.640   8.157   5.027
16295WAT      O49126   4.688   9.099   1.184
16295WAT     H149127   4.739   9.160   1.124
16295WAT     H249128   4.605   9.067   1.138
16296WAT      O49129   0.384   1.689   9.173
16296WAT     H149130   0.297   1.644   9.153
16296WAT     H249131   0.377   1.787   9.151
16297WAT      O49132   1.193   2.606   0.658
16297WAT     H149133   1.131   2.551   0.602
16297WAT     H249134   1.286   2.570   0.652
16298WAT      O49135   1.561   4.303   1.803
16298WAT     H149136   1.468   4.338   1.811
16298WAT     H249137   1.558   4.203   1.792
16299WAT      O49138   1.079   3.552   0.020
16299WAT     H149139   1.179   3.555   0.027
16299WAT     H249140   1.052   3.537  -0.075
16300WAT      O49141   8.659   4.237   9.613
16300WAT     H149142   8.578   4.296   9.607
16300WAT     H249143   8.661   4.191   9.702
16301WAT      O49144   7.297   7.880   6.538
16301WAT     H149145   7.353   7.961   6.551
16301WAT     H249146   7.288   7.861   6.440
16302WAT      O49147   1.954   1.272   5.163
16302WAT     H149148   1.996   1.284   5.073
16302WAT     H249149   1.881   1.204   5.158
16303WAT      O49150   7.134   9.759   4.964
16303WAT     H149151   7.133   9.671   5.010
16303WAT     H249152   7.114   9.747   4.867
16304WAT      O49153   7.345   7.091   2.692
16304WAT     H149154   7.368   6.998   2.662
16304WAT     H249155   7.414   7.154   2.657
16305WAT      O49156   5.480   6.486   3.314
16305WAT     H149157   5.413   6.559   3.329
16305WAT     H249158   5.553   6.494   3.381
16306WAT      O49159   7.198   4.632   9.511
16306WAT     H149160   7.202   4.532   9.507
16306WAT     H249161   7.252   4.670   9.435
16307WAT      O49162   1.540   5.667   9.247
16307WAT     H149163   1.486   5.584   9.241
16307WAT     H249164   1.637   5.644   9.239
16308WAT      O49165   4.091   2.976   0.313
16308WAT     H149166   4.160   2.941   0.377
16308WAT     H249167   4.011   2.915   0.314
16309WAT      O49168   0.079   6.162   0.070
16309WAT     H149169   0.111   6.254   0.092
16309WAT     H249170   0.147   6.095   0.098
16310WAT      O49171   3.505   5.413   8.870
16310WAT     H149172   3.441   5.392   8.944
16310WAT     H249173   3.466   5.383   8.783
16311WAT      O49174   0.593   8.636   1.319
16311WAT     H149175   0.623   8.608   1.410
16311WAT     H249176   0.586   8.555   1.260
16312WAT      O49177   2.759   3.600   9.713
16312WAT     H149178   2.817   3.562   9.785
16312WAT     H249179   2.663   3.580   9.733
16313WAT      O49180   7.052   1.113   0.608
16313WAT     H149181   7.142   1.144   0.578
16313WAT     H249182   7.012   1.055   0.536
16314WAT      O49183   1.865   8.242   2.113
16314WAT     H149184   1.890   8.146   2.097
16314WAT     H249185   1.948   8.294   2.135
16315WAT      O49186   3.908   2.708   9.544
16315WAT     H149187   3.936   2.614   9.566
16315WAT     H249188   3.898   2.718   9.445
16316WAT      O49189   6.548   2.286   1.838
16316WAT     H149190   6.544   2.281   1.938
16316WAT     H249191   6.514   2.375   1.807
16317WAT      O49192   7.991   4.836   3.304
16317WAT     H149193   7.912   4.845   3.243
16317WAT     H249194   7.978   4.894   3.384
16318WAT      O49195   1.277   4.976   7.603
16318WAT     H149196   1.219   4.895   7.592
16318WAT     H249197   1.291   5.018   7.513
16319WAT      O49198   6.394   0.462   8.411
16319WAT     H149199   6.416   0.560   8.406
16319WAT     H249200   6.329   0.447   8.486
16320WAT      O49201   4.425   9.639   0.710
16320WAT     H149202   4.435   9.715   0.775
16320WAT     H249203   4.384   9.560   0.757
16321WAT      O49204   0.774   2.979   1.684
16321WAT     H149205   0.679   2.952   1.664
16321WAT     H249206   0.830   2.898   1.693
16322WAT      O49207   0.647   5.753   0.249
16322WAT     H149208   0.708   5.709   0.315
16322WAT     H249209   0.571   5.691   0.228
16323WAT      O49210   0.302   3.738   3.973
16323WAT     H149211   0.388   3.700   4.008
16323WAT     H249212   0.278   3.819   4.026
16324WAT      O49213   3.902   8.045   5.576
16324WAT     H149214   3.883   8.127   5.522
16324WAT     H249215   3.818   8.015   5.621
16325WAT      O49216   9.359   2.267   5.578
16325WAT     H149217   9.287   2.201   5.554
16325WAT     H249218   9.441   2.217   5.605
16326WAT      O49219   4.254   9.263   3.917
16326WAT     H149220   4.221   9.356   3.936
16326WAT     H249221   4.204   9.226   3.839
16327WAT      O49222   4.802   4.648   6.778
16327WAT     H149223   4.771   4.604   6.694
16327WAT     H249224   4.727   4.652   6.844
16328WAT      O49225   5.635   9.197   9.128
16328WAT     H149226   5.712   9.248   9.166
16328WAT     H249227   5.651   9.099   9.141
16329WAT      O49228   4.015   3.403   5.383
16329WAT     H149229   4.052   3.393   5.476
16329WAT     H249230   3.929   3.454   5.387
16330WAT      O49231   7.622   6.465   5.646
16330WAT     H149232   7.554   6.531   5.613
16330WAT     H249233   7.659   6.414   5.568
16331WAT      O49234   5.384   8.572   4.048
16331WAT     H149235   5.408   8.475   4.053
16331WAT     H249236   5.403   8.606   3.956
16332WAT      O49237   0.682   8.807   3.734
16332WAT     H149238   0.736   8.807   3.818
16332WAT     H249239   0.627   8.890   3.729
16333WAT      O49240   1.727   4.543   3.133
16333WAT     H149241   1.778   4.461   3.157
16333WAT     H249242   1.775   4.591   3.059
16334WAT      O49243   9.424   5.662   4.313
16334WAT     H149244   9.452   5.728   4.382
16334WAT     H249245   9.388   5.711   4.233
16335WAT      O49246   8.401   4.326   8.053
16335WAT     H149247   8.352   4.360   8.133
16335WAT     H249248   8.493   4.365   8.052
16336WAT      O49249   2.755   9.281   9.545
16336WAT     H149250   2.659   9.284   9.575
16336WAT     H249251   2.814   9.266   9.624
16337WAT      O49252   0.252   9.534   9.390
16337WAT     H149253   0.176   9.568   9.446
16337WAT     H249254   0.306   9.468   9.443
16338WAT      O49255   5.995   3.709   7.120
16338WAT     H149256   5.918   3.650   7.094
16338WAT     H249257   5.976   3.750   7.209
16339WAT      O49258   4.128   7.858   3.792
16339WAT     H149259   4.099   7.860   3.887
16339WAT     H249260   4.206   7.795   3.782
16340WAT      O49261   8.382   0.487   0.732
16340WAT     H149262   8.390   0.458   0.637
16340WAT     H249263   8.285   0.497   0.756
16341WAT      O49264   2.541   2.048   8.222
16341WAT     H149265   2.591   2.103   8.155
16341WAT     H249266   2.508   1.965   8.178
16342WAT      O49267   1.714   3.162   0.370
16342WAT     H149268   1.773   3.088   0.405
16342WAT     H249269   1.718   3.240   0.433
16343WAT      O49270   5.876   2.959   1.354
16343WAT     H149271   5.899   2.968   1.257
16343WAT     H249272   5.932   2.886   1.394
16344WAT      O49273   6.396   6.067   3.007
16344WAT     H149274   6.327   6.132   2.976
16344WAT     H249275   6.387   6.054   3.106
16345WAT      O49276   9.634   2.820   3.180
16345WAT     H149277   9.732   2.827   3.201
16345WAT     H249278   9.585   2.787   3.260
16346WAT      O49279   3.834   7.606   4.532
16346WAT     H149280   3.827   7.533   4.464
16346WAT     H249281   3.745   7.618   4.577
16347WAT      O49282   7.838   7.434   3.445
16347WAT     H149283   7.851   7.374   3.524
16347WAT     H249284   7.741   7.437   3.422
16348WAT      O49285   2.567   6.933   7.889
16348WAT     H149286   2.598   6.898   7.800
16348WAT     H249287   2.572   6.860   7.957
16349WAT      O49288   3.423   3.133   0.729
16349WAT     H149289   3.326   3.120   0.747
16349WAT     H249290   3.448   3.085   0.644
16350WAT      O49291   8.212   0.487   9.527
16350WAT     H149292   8.201   0.556   9.455
16350WAT     H249293   8.137   0.494   9.593
16351WAT      O49294   5.381   4.061   0.170
16351WAT     H149295   5.319   4.130   0.206
16351WAT     H249296   5.457   4.047   0.233
16352WAT      O49297   1.679   3.243   2.858
16352WAT     H149298   1.774   3.225   2.831
16352WAT     H249299   1.645   3.323   2.808
16353WAT      O49300   5.499   6.863   5.029
16353WAT     H149301   5.422   6.827   4.977
16353WAT     H249302   5.561   6.789   5.054
16354WAT      O49303   5.047   2.221   7.593
16354WAT     H149304   5.077   2.291   7.528
16354WAT     H249305   4.960   2.182   7.562
16355WAT      O49306   7.736   2.804   5.981
16355WAT     H149307   7.716   2.782   5.885
16355WAT     H249308   7.695   2.892   6.004
16356WAT      O49309   8.689   1.451   7.504
16356WAT     H149310   8.593   1.426   7.516
16356WAT     H249311   8.737   1.445   7.592
16357WAT      O49312   3.465   6.371   1.425
16357WAT     H149313   3.392   6.303   1.421
16357WAT     H249314   3.550   6.330   1.391
16358WAT      O49315   0.144   8.126   3.572
16358WAT     H149316   0.113   8.090   3.484
16358WAT     H249317   0.244   8.132   3.573
16359WAT      O49318   9.572   5.215   9.450
16359WAT     H149319   9.550   5.310   9.471
16359WAT     H249320   9.593   5.206   9.353
16360WAT      O49321   1.926   5.926   1.752
16360WAT     H149322   1.911   5.827   1.745
16360WAT     H249323   2.013   5.943   1.799
16361WAT      O49324   2.973   9.628   2.461
16361WAT     H149325   2.925   9.606   2.376
16361WAT     H249326   3.063   9.586   2.461
16362WAT      O49327   2.109   8.593   8.999
16362WAT     H149328   2.148   8.580   9.091
16362WAT     H249329   2.029   8.653   9.005
16363WAT      O49330   3.617   8.650   9.288
16363WAT     H149331   3.594   8.569   9.341
16363WAT     H249332   3.698   8.694   9.326
16364WAT      O49333   4.151   3.528   0.128
16364WAT     H149334   4.248   3.503   0.123
16364WAT     H249335   4.111   3.528   0.037
16365WAT      O49336   0.817   1.602   2.542
16365WAT     H149337   0.895   1.664   2.529
16365WAT     H249338   0.737   1.655   2.571
16366WAT      O49339   2.348   9.179   6.360
16366WAT     H149340   2.291   9.098   6.371
16366WAT     H249341   2.346   9.234   6.444
16367WAT      O49342   9.617   7.844   4.054
16367WAT     H149343   9.650   7.922   4.001
16367WAT     H249344   9.677   7.829   4.133
16368WAT      O49345   1.557   3.458   3.262
16368WAT     H149346   1.553   3.548   3.220
16368WAT     H249347   1.619   3.400   3.210
16369WAT      O49348   1.339   9.098   5.770
16369WAT     H149349   1.386   9.009   5.770
16369WAT     H249350   1.253   9.089   5.820
16370WAT      O49351   2.945   5.600   1.641
16370WAT     H149352   2.918   5.579   1.547
16370WAT     H249353   2.995   5.687   1.641
16371WAT      O49354   0.321   2.011   7.284
16371WAT     H149355   0.414   2.036   7.311
16371WAT     H249356   0.323   1.976   7.190
16372WAT      O49357   2.202   1.877   2.957
16372WAT     H149358   2.254   1.801   2.997
16372WAT     H249359   2.104   1.862   2.971
16373WAT      O49360   6.887   2.472   6.546
16373WAT     H149361   6.802   2.418   6.550
16373WAT     H249362   6.966   2.411   6.552
16374WAT      O49363   7.802   3.265   2.858
16374WAT     H149364   7.761   3.263   2.767
16374WAT     H249365   7.742   3.219   2.923
16375WAT      O49366   0.711   3.499   5.717
16375WAT     H149367   0.620   3.460   5.702
16375WAT     H249368   0.716   3.589   5.674
16376WAT      O49369   7.684   5.271   1.452
16376WAT     H149370   7.735   5.290   1.536
16376WAT     H249371   7.591   5.244   1.475
16377WAT      O49372   5.518   6.748   8.495
16377WAT     H149373   5.478   6.829   8.454
16377WAT     H249374   5.547   6.769   8.589
16378WAT      O49375   4.255   8.799   4.617
16378WAT     H149376   4.351   8.828   4.611
16378WAT     H249377   4.231   8.745   4.536
16379WAT      O49378   4.320   5.866   9.280
16379WAT     H149379   4.297   5.834   9.188
16379WAT     H249380   4.414   5.841   9.301
16380WAT      O49381   4.750   2.128   0.578
16380WAT     H149382   4.845   2.158   0.567
16380WAT     H249383   4.714   2.161   0.665
16381WAT      O49384   2.175   6.923   6.693
16381WAT     H149385   2.129   6.972   6.767
16381WAT     H249386   2.189   6.828   6.720
16382WAT      O49387   2.161   0.942   6.024
16382WAT     H149388   2.121   1.005   5.957
16382WAT     H249389   2.260   0.944   6.016
16383WAT      O49390   3.190   0.815   1.298
16383WAT     H149391   3.177   0.829   1.396
16383WAT     H249392   3.115   0.759   1.262
16384WAT      O49393   7.076   6.633   5.818
16384WAT     H149394   7.100   6.623   5.915
16384WAT     H249395   6.984   6.673   5.811
16385WAT      O49396   3.988   2.265   6.833
16385WAT     H149397   3.907   2.314   6.867
16385WAT     H249398   4.064   2.278   6.897
16386WAT      O49399   5.809   1.196   7.518
16386WAT     H149400   5.747   1.173   7.443
16386WAT     H249401   5.896   1.229   7.481
16387WAT      O49402   0.984   7.635   1.577
16387WAT     H149403   0.904   7.576   1.585
16387WAT     H249404   0.955   7.731   1.577
16388WAT      O49405   8.194   4.099   9.707
16388WAT     H149406   8.281   4.068   9.669
16388WAT     H249407   8.119   4.050   9.663
16389WAT      O49408   4.249   5.356   1.079
16389WAT     H149409   4.206   5.330   1.166
16389WAT     H249410   4.184   5.342   1.005
16390WAT      O49411   0.671   3.767   5.651
16390WAT     H149412   0.603   3.797   5.720
16390WAT     H249413   0.761   3.803   5.676
16391WAT      O49414   2.135   5.036   3.062
16391WAT     H149415   2.202   5.049   3.135
16391WAT     H249416   2.181   4.995   2.982
16392WAT      O49417   3.670   3.314   4.860
16392WAT     H149418   3.714   3.363   4.936
16392WAT     H249419   3.733   3.306   4.784
16393WAT      O49420   6.326   7.525   6.459
16393WAT     H149421   6.281   7.485   6.379
16393WAT     H249422   6.278   7.498   6.542
16394WAT      O49423   7.731   6.363   7.939
16394WAT     H149424   7.732   6.437   7.872
16394WAT     H249425   7.674   6.289   7.906
16395WAT      O49426   5.564   3.567   9.684
16395WAT     H149427   5.620   3.561   9.601
16395WAT     H249428   5.469   3.544   9.662
16396WAT      O49429   8.948   7.752   8.738
16396WAT     H149430   8.938   7.655   8.715
16396WAT     H249431   9.014   7.762   8.812
16397WAT      O49432   5.024   6.169   8.424
16397WAT     H149433   5.115   6.129   8.411
16397WAT     H249434   4.960   6.098   8.452
16398WAT      O49435   4.179   0.204   1.891
16398WAT     H149436   4.122   0.283   1.915
16398WAT     H249437   4.268   0.212   1.934
16399WAT      O49438   6.905   8.307   5.150
16399WAT     H149439   6.965   8.231   5.126
16399WAT     H249440   6.961   8.388   5.171
16400WAT      O49441   7.732   7.521   2.453
16400WAT     H149442   7.656   7.494   2.393
16400WAT     H249443   7.810   7.549   2.398
16401WAT      O49444   8.040   5.704   4.326
16401WAT     H149445   7.954   5.685   4.278
16401WAT     H249446   8.030   5.680   4.422
16402WAT      O49447   6.476   6.938   6.192
16402WAT     H149448   6.486   6.853   6.244
16402WAT     H249449   6.414   6.922   6.114
16403WAT      O49450   3.985   6.634   5.865
16403WAT     H149451   4.050   6.570   5.825
16403WAT     H249452   3.897   6.588   5.878
16404WAT      O49453   8.718   5.859   0.178
16404WAT     H149454   8.627   5.853   0.220
16404WAT     H249455   8.774   5.922   0.231
16405WAT      O49456   7.886   3.838   5.091
16405WAT     H149457   7.970   3.885   5.119
16405WAT     H249458   7.857   3.872   5.001
16406WAT      O49459   2.183   3.569   4.144
16406WAT     H149460   2.166   3.495   4.209
16406WAT     H249461   2.247   3.538   4.074
16407WAT      O49462   8.605   6.840   1.169
16407WAT     H149463   8.553   6.758   1.142
16407WAT     H249464   8.618   6.840   1.268
16408WAT      O49465   2.692   8.122   0.382
16408WAT     H149466   2.612   8.068   0.359
16408WAT     H249467   2.763   8.063   0.422
16409WAT      O49468   9.758   6.774   8.223
16409WAT     H149469   9.668   6.782   8.266
16409WAT     H249470   9.759   6.826   8.138
16410WAT      O49471   0.254   3.827   2.226
16410WAT     H149472   0.312   3.896   2.183
16410WAT     H249473   0.236   3.852   2.321
16411WAT      O49474   2.441   4.495   0.587
16411WAT     H149475   2.478   4.404   0.607
16411WAT     H249476   2.357   4.485   0.532
16412WAT      O49477   2.140   3.803   5.577
16412WAT     H149478   2.166   3.708   5.562
16412WAT     H249479   2.189   3.840   5.655
16413WAT      O49480   7.005   2.325   6.791
16413WAT     H149481   7.020   2.265   6.870
16413WAT     H249482   7.085   2.384   6.778
16414WAT      O49483   6.566   9.542   6.597
16414WAT     H149484   6.562   9.449   6.631
16414WAT     H249485   6.587   9.540   6.499
16415WAT      O49486   7.431   1.994   2.886
16415WAT     H149487   7.503   2.009   2.955
16415WAT     H249488   7.402   1.898   2.889
16416WAT      O49489   2.798   9.530   6.065
16416WAT     H149490   2.882   9.528   6.010
16416WAT     H249491   2.822   9.542   6.162
16417WAT      O49492   7.065   2.366   3.026
16417WAT     H149493   7.123   2.293   3.063
16417WAT     H249494   6.971   2.354   3.058
16418WAT      O49495   0.912   0.051   4.101
16418WAT     H149496   0.868   0.141   4.103
16418WAT     H249497   1.001   0.058   4.057
16419WAT      O49498   3.410   4.553   6.998
16419WAT     H149499   3.504   4.573   7.025
16419WAT     H249500   3.410   4.502   6.912
16420WAT      O49501   0.769   6.755   1.629
16420WAT     H149502   0.756   6.825   1.699
16420WAT     H249503   0.812   6.675   1.670
16421WAT      O49504   2.558   3.323   2.553
16421WAT     H149505   2.552   3.360   2.460
16421WAT     H249506   2.535   3.226   2.551
16422WAT      O49507   7.525   2.117   2.300
16422WAT     H149508   7.553   2.208   2.267
16422WAT     H249509   7.519   2.054   2.222
16423WAT      O49510   6.663   2.033   6.117
16423WAT     H149511   6.598   2.092   6.069
16423WAT     H249512   6.754   2.046   6.079
16424WAT      O49513   5.421   7.212   9.775
16424WAT     H149514   5.481   7.156   9.832
16424WAT     H249515   5.369   7.152   9.714
16425WAT      O49516   0.255   0.852   2.876
16425WAT     H149517   0.285   0.758   2.857
16425WAT     H249518   0.300   0.886   2.958
16426WAT      O49519   9.600   6.875   0.096
16426WAT     H149520   9.550   6.931   0.029
16426WAT     H249521   9.631   6.933   0.170
16427WAT      O49522   6.099   7.432   6.329
16427WAT     H149523   6.056   7.388   6.408
16427WAT     H249524   6.046   7.410   6.247
16428WAT      O49525   4.544   2.427   5.637
16428WAT     H149526   4.459   2.408   5.686
16428WAT     H249527   4.585   2.341   5.606
16429WAT      O49528   3.542   1.907   1.429
16429WAT     H149529   3.630   1.858   1.428
16429WAT     H249530   3.474   1.854   1.379
16430WAT      O49531   6.352   6.779   0.957
16430WAT     H149532   6.445   6.755   0.983
16430WAT     H249533   6.336   6.876   0.974
16431WAT      O49534   9.216   1.863   3.894
16431WAT     H149535   9.258   1.930   3.955
16431WAT     H249536   9.287   1.805   3.855
16432WAT      O49537   1.298   5.476   9.196
16432WAT     H149538   1.245   5.493   9.113
16432WAT     H249539   1.238   5.478   9.276
16433WAT      O49540   9.000   1.140   7.310
16433WAT     H149541   9.002   1.121   7.408
16433WAT     H249542   8.976   1.236   7.295
16434WAT      O49543   0.383   2.689   2.704
16434WAT     H149544   0.394   2.661   2.799
16434WAT     H249545   0.446   2.764   2.683
16435WAT      O49546   6.781   4.103   5.828
16435WAT     H149547   6.712   4.159   5.875
16435WAT     H249548   6.871   4.122   5.866
16436WAT      O49549   7.802   4.468   9.283
16436WAT     H149550   7.833   4.547   9.336
16436WAT     H249551   7.856   4.388   9.307
16437WAT      O49552   1.108   2.574   5.854
16437WAT     H149553   1.132   2.478   5.866
16437WAT     H249554   1.011   2.582   5.832
16438WAT      O49555   1.484   7.905   7.485
16438WAT     H149556   1.392   7.920   7.520
16438WAT     H249557   1.528   7.832   7.538
16439WAT      O49558   1.567   1.988   7.231
16439WAT     H149559   1.608   1.919   7.171
16439WAT     H249560   1.620   1.995   7.315
16440WAT      O49561   3.041   1.485   8.867
16440WAT     H149562   2.966   1.516   8.925
16440WAT     H249563   3.008   1.416   8.803
16441WAT      O49564   9.835   0.303   9.850
16441WAT     H149565   9.779   0.377   9.887
16441WAT     H249566   9.789   0.262   9.771
16442WAT      O49567   6.063   2.258   3.814
16442WAT     H149568   6.111   2.300   3.891
16442WAT     H249569   6.124   2.255   3.735
16443WAT      O49570   3.172   3.998   6.408
16443WAT     H149571   3.215   3.983   6.319
16443WAT     H249572   3.110   3.922   6.428
16444WAT      O49573   8.766   6.948   2.209
16444WAT     H149574   8.840   6.901   2.257
16444WAT     H249575   8.771   7.046   2.229
16445WAT      O49576   1.999   4.357   6.035
16445WAT     H149577   2.034   4.270   5.999
16445WAT     H249578   2.068   4.428   6.023
16446WAT      O49579   1.271   2.837   0.537
16446WAT     H149580   1.238   2.746   0.560
16446WAT     H249581   1.201   2.886   0.484
16447WAT      O49582   3.690   5.463   0.548
16447WAT     H149583   3.717   5.550   0.507
16447WAT     H249584   3.761   5.395   0.532
16448WAT      O49585   2.974   8.157   2.544
16448WAT     H149586   2.968   8.127   2.639
16448WAT     H249587   2.884   8.154   2.502
16449WAT      O49588   3.075   3.220   2.851
16449WAT     H149589   3.108   3.146   2.908
16449WAT     H249590   2.983   3.198   2.817
16450WAT      O49591   0.535   7.530   2.179
16450WAT     H149592   0.603   7.583   2.229
16450WAT     H249593   0.477   7.592   2.126
16451WAT      O49594   4.463   1.330   7.031
16451WAT     H149595   4.370   1.364   7.023
16451WAT     H249596   4.517   1.391   7.089
16452WAT      O49597   0.219   7.706   5.010
16452WAT     H149598   0.182   7.613   5.004
16452WAT     H249599   0.165   7.767   4.952
16453WAT      O49600   0.823   9.579   2.830
16453WAT     H149601   0.790   9.669   2.804
16453WAT     H249602   0.747   9.515   2.833
16454WAT      O49603   4.905   0.108   8.653
16454WAT     H149604   4.942   0.190   8.611
16454WAT     H249605   4.981   0.054   8.691
16455WAT      O49606   1.112   0.964   4.285
16455WAT     H149607   1.083   1.058   4.274
16455WAT     H249608   1.173   0.938   4.210
16456WAT      O49609   0.564   5.096   0.438
16456WAT     H149610   0.538   5.109   0.342
16456WAT     H249611   0.610   5.179   0.472
16457WAT      O49612   0.505   2.337   7.068
16457WAT     H149613   0.511   2.351   7.167
16457WAT     H249614   0.527   2.422   7.021
16458WAT      O49615   8.453   8.004   6.169
16458WAT     H149616   8.499   8.088   6.142
16458WAT     H249617   8.403   8.019   6.255
16459WAT      O49618   6.955   1.019   2.977
16459WAT     H149619   7.042   1.066   2.992
16459WAT     H249620   6.889   1.082   2.934
16460WAT      O49621   1.516   7.078   5.099
16460WAT     H149622   1.482   7.085   5.193
16460WAT     H249623   1.569   6.994   5.089
16461WAT      O49624   3.332   9.260   5.699
16461WAT     H149625   3.256   9.217   5.748
16461WAT     H249626   3.324   9.240   5.601
16462WAT      O49627   5.742   8.713   4.893
16462WAT     H149628   5.760   8.799   4.846
16462WAT     H249629   5.765   8.723   4.990
16463WAT      O49630   9.261   2.695   5.702
16463WAT     H149631   9.206   2.770   5.737
16463WAT     H249632   9.202   2.618   5.679
16464WAT      O49633   1.591   2.194   1.757
16464WAT     H149634   1.665   2.155   1.702
16464WAT     H249635   1.627   2.271   1.810
16465WAT      O49636   1.133   7.637   6.793
16465WAT     H149637   1.180   7.639   6.704
16465WAT     H249638   1.092   7.726   6.811
16466WAT      O49639   1.577   7.345   5.044
16466WAT     H149640   1.569   7.247   5.063
16466WAT     H249641   1.487   7.382   5.021
16467WAT      O49642   4.986   0.731   3.265
16467WAT     H149643   5.042   0.652   3.288
16467WAT     H249644   5.015   0.768   3.177
16468WAT      O49645   4.318   6.910   7.806
16468WAT     H149646   4.245   6.937   7.743
16468WAT     H249647   4.287   6.924   7.900
16469WAT      O49648   7.315   8.141   8.132
16469WAT     H149649   7.292   8.149   8.035
16469WAT     H249650   7.289   8.226   8.178
16470WAT      O49651   8.004   2.074   9.472
16470WAT     H149652   7.934   2.016   9.431
16470WAT     H249653   8.046   2.132   9.402
16471WAT      O49654   0.954   9.036   1.682
16471WAT     H149655   1.032   9.008   1.627
16471WAT     H249656   0.982   9.044   1.778
16472WAT      O49657   4.615   7.846   5.495
16472WAT     H149658   4.606   7.859   5.594
16472WAT     H249659   4.613   7.936   5.450
16473WAT      O49660   0.177   1.463   6.119
16473WAT     H149661   0.191   1.447   6.021
16473WAT     H249662   0.081   1.487   6.135
16474WAT      O49663   8.827   2.028   4.615
16474WAT     H149664   8.774   1.947   4.641
16474WAT     H249665   8.912   2.000   4.572
16475WAT      O49666   4.629   7.300   5.434
16475WAT     H149667   4.684   7.363   5.488
16475WAT     H249668   4.652   7.206   5.460
16476WAT      O49669   4.816   0.713   7.135
16476WAT     H149670   4.779   0.668   7.216
16476WAT     H249671   4.902   0.671   7.109
16477WAT      O49672   8.134   6.651   0.271
16477WAT     H149673   8.167   6.597   0.193
16477WAT     H249674   8.209   6.669   0.333
16478WAT      O49675   0.423   0.396   0.229
16478WAT     H149676   0.453   0.385   0.324
16478WAT     H249677   0.361   0.321   0.205
16479WAT      O49678   6.077   1.870   1.881
16479WAT     H149679   5.996   1.874   1.940
16479WAT     H249680   6.144   1.809   1.921
16480WAT      O49681   9.399   1.780   8.479
16480WAT     H149682   9.358   1.691   8.459
16480WAT     H249683   9.441   1.778   8.570
16481WAT      O49684   2.174   0.210   6.635
16481WAT     H149685   2.097   0.274   6.647
16481WAT     H249686   2.212   0.187   6.724
16482WAT      O49687   5.169   1.231   2.332
16482WAT     H149688   5.149   1.169   2.407
16482WAT     H249689   5.220   1.182   2.261
16483WAT      O49690   1.973   7.027   1.364
16483WAT     H149691   2.020   6.997   1.446
16483WAT     H249692   1.883   6.984   1.359
16484WAT      O49693   1.042   9.440   4.218
16484WAT     H149694   0.961   9.414   4.167
16484WAT     H249695   1.122   9.395   4.179
16485WAT      O49696   1.846   3.008   5.954
16485WAT     H149697   1.818   2.959   6.037
16485WAT     H249698   1.854   3.106   5.974
16486WAT      O49699   1.152   5.491   9.428
16486WAT     H149700   1.162   5.392   9.419
16486WAT     H249701   1.056   5.516   9.416
16487WAT      O49702   3.838   5.040   8.279
16487WAT     H149703   3.839   5.038   8.179
16487WAT     H249704   3.874   5.127   8.312
16488WAT      O49705   6.214   6.001   6.952
16488WAT     H149706   6.281   6.003   6.877
16488WAT     H249707   6.123   5.985   6.914
16489WAT      O49708   6.968   4.205   3.310
16489WAT     H149709   7.034   4.189   3.237
16489WAT     H249710   6.922   4.120   3.332
16490WAT      O49711   0.761   0.170   0.280
16490WAT     H149712   0.732   0.233   0.207
16490WAT     H249713   0.722   0.080   0.264
16491WAT      O49714   3.716   6.184   1.782
16491WAT     H149715   3.735   6.276   1.817
16491WAT     H249716   3.630   6.150   1.821
16492WAT      O49717   7.562   7.437   4.791
16492WAT     H149718   7.507   7.520   4.784
16492WAT     H249719   7.582   7.418   4.887
16493WAT      O49720   8.487   2.715   5.104
16493WAT     H149721   8.586   2.708   5.094
16493WAT     H249722   8.459   2.811   5.098
16494WAT      O49723   3.755   4.295   7.965
16494WAT     H149724   3.822   4.229   8.000
16494WAT     H249725   3.664   4.269   7.996
16495WAT      O49726   9.592   4.711   3.078
16495WAT     H149727   9.567   4.627   3.029
16495WAT     H249728   9.515   4.774   3.079
16496WAT      O49729   7.544   8.598   3.530
16496WAT     H149730   7.567   8.690   3.560
16496WAT     H249731   7.450   8.597   3.496
16497WAT      O49732   7.291   2.144   0.447
16497WAT     H149733   7.331   2.089   0.520
16497WAT     H249734   7.324   2.238   0.454
16498WAT      O49735   0.913   1.108   1.013
16498WAT     H149736   0.977   1.034   0.994
16498WAT     H249737   0.846   1.079   1.081
16499WAT      O49738   0.488   2.364   3.437
16499WAT     H149739   0.469   2.285   3.496
16499WAT     H249740   0.583   2.393   3.450
16500WAT      O49741   2.886   3.553   6.294
16500WAT     H149742   2.806   3.493   6.297
16500WAT     H249743   2.911   3.571   6.199
16501WAT      O49744   3.111   9.196   1.846
16501WAT     H149745   3.122   9.104   1.806
16501WAT     H249746   3.044   9.192   1.919
16502WAT      O49747   1.763   2.449   0.079
16502WAT     H149748   1.704   2.497   0.145
16502WAT     H249749   1.714   2.437  -0.007
16503WAT      O49750   9.796   9.624   8.495
16503WAT     H149751   9.803   9.590   8.589
16503WAT     H249752   9.857   9.702   8.484
16504WAT      O49753   5.281   0.127   6.416
16504WAT     H149754   5.243   0.035   6.427
16504WAT     H249755   5.212   0.195   6.443
16505WAT      O49756   4.592   2.901   1.977
16505WAT     H149757   4.519   2.849   2.020
16505WAT     H249758   4.581   2.998   1.997
16506WAT      O49759   5.622   9.386   8.151
16506WAT     H149760   5.536   9.388   8.202
16506WAT     H249761   5.651   9.480   8.131
16507WAT      O49762   3.285   5.155   2.370
16507WAT     H149763   3.297   5.208   2.454
16507WAT     H249764   3.310   5.059   2.388
16508WAT      O49765   6.344   8.251   2.772
16508WAT     H149766   6.329   8.208   2.683
16508WAT     H249767   6.436   8.291   2.774
16509WAT      O49768   9.045   5.233   8.806
16509WAT     H149769   9.122   5.288   8.840
16509WAT     H249770   9.006   5.278   8.725
16510WAT      O49771   6.673   7.871   1.404
16510WAT     H149772   6.662   7.955   1.353
16510WAT     H249773   6.613   7.800   1.367
16511WAT      O49774   3.112   9.741   5.730
16511WAT     H149775   3.135   9.838   5.727
16511WAT     H249776   3.036   9.723   5.667
16512WAT      O49777   1.294   3.965   5.969
16512WAT     H149778   1.252   4.011   6.047
16512WAT     H249779   1.224   3.946   5.900
16513WAT      O49780   6.316   3.027   9.382
16513WAT     H149781   6.382   3.028   9.457
16513WAT     H249782   6.271   2.937   9.379
16514WAT      O49783   8.234   1.325   1.636
16514WAT     H149784   8.228   1.424   1.650
16514WAT     H249785   8.328   1.301   1.611
16515WAT      O49786   6.975   2.892   3.904
16515WAT     H149787   6.908   2.823   3.877
16515WAT     H249788   6.927   2.975   3.935
16516WAT      O49789   6.267   8.463   3.264
16516WAT     H149790   6.263   8.382   3.206
16516WAT     H249791   6.175   8.502   3.273
16517WAT      O49792   2.692   2.951   7.111
16517WAT     H149793   2.754   3.002   7.052
16517WAT     H249794   2.613   2.921   7.058
16518WAT      O49795   8.348   8.529   0.908
16518WAT     H149796   8.439   8.539   0.947
16518WAT     H249797   8.353   8.545   0.809
16519WAT      O49798   1.392   7.458   0.493
16519WAT     H149799   1.294   7.478   0.499
16519WAT     H249800   1.408   7.362   0.515
16520WAT      O49801   0.368   3.656   5.993
16520WAT     H149802   0.312   3.596   6.049
16520WAT     H249803   0.400   3.733   6.048
16521WAT      O49804   2.976   1.070   7.432
16521WAT     H149805   2.958   0.978   7.466
16521WAT     H249806   2.900   1.130   7.459
16522WAT      O49807   3.667   5.721   3.380
16522WAT     H149808   3.597   5.649   3.382
16522WAT     H249809   3.756   5.681   3.361
16523WAT      O49810   8.858   4.711   1.479
16523WAT     H149811   8.896   4.744   1.393
16523WAT     H249812   8.812   4.623   1.464
16524WAT      O49813   8.720   4.908   1.648
16524WAT     H149814   8.781   4.852   1.593
16524WAT     H249815   8.634   4.859   1.662
16525WAT      O49816   2.179   2.337   7.052
16525WAT     H149817   2.097   2.392   7.037
16525WAT     H249818   2.240   2.385   7.115
16526WAT      O49819   4.245   3.068   6.963
16526WAT     H149820   4.289   3.151   6.931
16526WAT     H249821   4.234   3.004   6.887
16527WAT      O49822   6.613   4.404   8.167
16527WAT     H149823   6.604   4.396   8.067
16527WAT     H249824   6.673   4.332   8.201
16528WAT      O49825   4.465   7.979   9.137
16528WAT     H149826   4.454   7.987   9.038
16528WAT     H249827   4.533   8.046   9.168
16529WAT      O49828   0.920   4.365   4.040
16529WAT     H149829   0.838   4.330   4.084
16529WAT     H249830   0.895   4.418   3.959
16530WAT      O49831   4.064   5.747   4.423
16530WAT     H149832   3.979   5.784   4.388
16530WAT     H249833   4.103   5.810   4.491
16531WAT      O49834   6.637   1.752   5.691
16531WAT     H149835   6.722   1.699   5.693
16531WAT     H249836   6.624   1.790   5.599
16532WAT      O49837   0.111   4.308   5.355
16532WAT     H149838   0.100   4.305   5.454
16532WAT     H249839   0.068   4.228   5.314
16533WAT      O49840   0.948   8.731   8.114
16533WAT     H149841   0.992   8.805   8.164
16533WAT     H249842   0.913   8.765   8.027
16534WAT      O49843   1.151   6.683   3.969
16534WAT     H149844   1.076   6.716   3.913
16534WAT     H249845   1.116   6.615   4.035
16535WAT      O49846   0.760   4.187   7.951
16535WAT     H149847   0.840   4.212   7.895
16535WAT     H249848   0.757   4.088   7.962
16536WAT      O49849   8.142   3.923   8.751
16536WAT     H149850   8.149   3.994   8.821
16536WAT     H249851   8.179   3.837   8.787
16537WAT      O49852   2.930   8.366   3.087
16537WAT     H149853   3.000   8.422   3.132
16537WAT     H249854   2.930   8.386   2.989
16538WAT      O49855   6.587   6.269   6.849
16538WAT     H149856   6.645   6.280   6.929
16538WAT     H249857   6.529   6.350   6.838
16539WAT      O49858   0.621   5.912   2.695
16539WAT     H149859   0.641   5.999   2.650
16539WAT     H249860   0.554   5.861   2.640
16540WAT      O49861   1.316   2.791   1.008
16540WAT     H149862   1.401   2.772   0.959
16540WAT     H249863   1.245   2.818   0.943
16541WAT      O49864   9.349   7.495   9.892
16541WAT     H149865   9.252   7.480   9.875
16541WAT     H249866   9.402   7.459   9.816
16542WAT      O49867   2.097   9.728   3.411
16542WAT     H149868   2.168   9.798   3.402
16542WAT     H249869   2.091   9.675   3.326
16543WAT      O49870   6.432   8.273   0.379
16543WAT     H149871   6.395   8.231   0.296
16543WAT     H249872   6.457   8.368   0.360
16544WAT      O49873   9.618   5.352   4.664
16544WAT     H149874   9.595   5.313   4.753
16544WAT     H249875   9.638   5.278   4.599
16545WAT      O49876   8.362   9.317   1.205
16545WAT     H149877   8.296   9.390   1.187
16545WAT     H249878   8.323   9.252   1.270
16546WAT      O49879   4.580   9.391   3.242
16546WAT     H149880   4.549   9.302   3.210
16546WAT     H249881   4.531   9.463   3.193
16547WAT      O49882   8.543   1.457   6.751
16547WAT     H149883   8.558   1.387   6.682
16547WAT     H249884   8.450   1.450   6.786
16548WAT      O49885   7.847   2.129   1.947
16548WAT     H149886   7.945   2.112   1.936
16548WAT     H249887   7.799   2.043   1.961
16549WAT      O49888   8.275   7.903   5.966
16549WAT     H149889   8.321   7.910   5.877
16549WAT     H249890   8.333   7.944   6.036
16550WAT      O49891   3.645   0.694   3.797
16550WAT     H149892   3.688   0.720   3.883
16550WAT     H249893   3.657   0.596   3.782
16551WAT      O49894   6.351   8.817   5.775
16551WAT     H149895   6.302   8.809   5.862
16551WAT     H249896   6.375   8.726   5.741
16552WAT      O49897   9.776   4.285   1.637
16552WAT     H149898   9.725   4.371   1.629
16552WAT     H249899   9.726   4.213   1.588
16553WAT      O49900   6.493   0.162   3.892
16553WAT     H149901   6.524   0.245   3.845
16553WAT     H249902   6.400   0.140   3.862
16554WAT      O49903   5.370   2.455   4.909
16554WAT     H149904   5.369   2.553   4.890
16554WAT     H249905   5.392   2.441   5.006
16555WAT      O49906   4.300   4.575   6.341
16555WAT     H149907   4.399   4.581   6.331
16555WAT     H249908   4.269   4.647   6.403
16556WAT      O49909   5.014   7.112   0.009
16556WAT     H149910   5.060   7.041  -0.045
16556WAT     H249911   5.076   7.190   0.022
16557WAT      O49912   5.756   0.709   0.379
16557WAT     H149913   5.814   0.754   0.447
16557WAT     H249914   5.674   0.764   0.364
16558WAT      O49915   3.013   5.553   5.239
16558WAT     H149916   2.928   5.604   5.230
16558WAT     H249917   3.090   5.612   5.214
16559WAT      O49918   1.361   7.478   6.907
16559WAT     H149919   1.366   7.522   6.996
16559WAT     H249920   1.299   7.529   6.847
16560WAT      O49921   5.233   1.201   4.809
16560WAT     H149922   5.268   1.244   4.893
16560WAT     H249923   5.137   1.226   4.796
16561WAT      O49924   9.552   9.137   0.879
16561WAT     H149925   9.617   9.205   0.913
16561WAT     H249926   9.461   9.177   0.875
16562WAT      O49927   7.223   3.288   3.411
16562WAT     H149928   7.210   3.386   3.424
16562WAT     H249929   7.289   3.273   3.338
16563WAT      O49930   1.658   4.529   7.400
16563WAT     H149931   1.705   4.541   7.313
16563WAT     H249932   1.704   4.584   7.470
16564WAT      O49933   8.068   2.119   7.909
16564WAT     H149934   8.110   2.186   7.970
16564WAT     H249935   7.969   2.131   7.908
16565WAT      O49936   8.938   7.716   7.039
16565WAT     H149937   8.849   7.739   7.000
16565WAT     H249938   8.938   7.735   7.137
16566WAT      O49939   2.135   8.453   9.764
16566WAT     H149940   2.106   8.549   9.773
16566WAT     H249941   2.233   8.446   9.778
16567WAT      O49942   2.172   7.069   5.868
16567WAT     H149943   2.111   7.023   5.803
16567WAT     H249944   2.133   7.063   5.960
16568WAT      O49945   0.344   9.592   0.420
16568WAT     H149946   0.436   9.585   0.381
16568WAT     H249947   0.277   9.554   0.355
16569WAT      O49948   4.008   3.896   6.998
16569WAT     H149949   4.062   3.880   7.080
16569WAT     H249950   3.911   3.881   7.018
16570WAT      O49951   3.030   7.989   7.377
16570WAT     H149952   2.931   7.998   7.370
16570WAT     H249953   3.065   7.947   7.293
16571WAT      O49954   0.019   0.357   6.110
16571WAT     H149955   0.085   0.433   6.107
16571WAT     H249956  -0.007   0.332   6.017
16572WAT      O49957   6.783   4.308   1.987
16572WAT     H149958   6.761   4.369   1.911
16572WAT     H249959   6.739   4.220   1.974
16573WAT      O49960   2.535   7.687   0.220
16573WAT     H149961   2.484   7.686   0.134
16573WAT     H249962   2.606   7.616   0.217
16574WAT      O49963   0.925   6.886   2.287
16574WAT     H149964   0.933   6.982   2.261
16574WAT     H249965   0.936   6.828   2.205
16575WAT      O49966   2.001   0.008   2.222
16575WAT     H149967   2.088   0.017   2.271
16575WAT     H249968   1.940   0.083   2.247
16576WAT      O49969   7.654   5.272   5.874
16576WAT     H149970   7.647   5.195   5.811
16576WAT     H249971   7.624   5.243   5.965
16577WAT      O49972   7.964   7.360   8.402
16577WAT     H149973   7.991   7.271   8.440
16577WAT     H249974   7.980   7.361   8.304
16578WAT      O49975   7.375   1.054   8.265
16578WAT     H149976   7.297   1.112   8.243
16578WAT     H249977   7.460   1.102   8.240
16579WAT      O49978   1.836   0.641   4.644
16579WAT     H149979   1.788   0.583   4.579
16579WAT     H249980   1.773   0.709   4.682
16580WAT      O49981   6.572   9.379   0.576
16580WAT     H149982   6.509   9.438   0.526
16580WAT     H249983   6.556   9.283   0.550
16581WAT      O49984   5.740   0.726   1.304
16581WAT     H149985   5.642   0.710   1.312
16581WAT     H249986   5.790   0.658   1.359
16582WAT      O49987   7.001   0.176   4.446
16582WAT     H149988   7.023   0.269   4.415
16582WAT     H249989   6.972   0.121   4.368
16583WAT      O49990   6.776   8.942   1.197
16583WAT     H149991   6.776   8.958   1.295
16583WAT     H249992   6.855   8.886   1.171
16584WAT      O49993   2.674   9.198   0.792
16584WAT     H149994   2.740   9.269   0.769
16584WAT     H249995   2.640   9.156   0.708
16585WAT      O49996   3.343   0.933   4.653
16585WAT     H149997   3.381   1.024   4.639
16585WAT     H249998   3.257   0.924   4.603
16586WAT      O49999   8.114   8.960   1.655
16586WAT     H150000   8.074   8.989   1.568
16586WAT     H250001   8.065   9.003   1.730
16587WAT      O50002   4.451   4.236   6.507
16587WAT     H150003   4.361   4.270   6.480
16587WAT     H250004   4.498   4.307   6.561
16588WAT      O50005   1.987   6.234   9.162
16588WAT     H150006   2.023   6.324   9.186
16588WAT     H250007   2.045   6.163   9.202
16589WAT      O50008   9.577   9.573   4.596
16589WAT     H150009   9.548   9.627   4.517
16589WAT     H250010   9.523   9.599   4.676
16590WAT      O50011   5.585   6.629   9.460
16590WAT     H150012   5.602   6.535   9.489
16590WAT     H250013   5.498   6.660   9.499
16591WAT      O50014   0.885   4.797   3.798
16591WAT     H150015   0.970   4.820   3.846
16591WAT     H250016   0.807   4.815   3.857
16592WAT      O50017   1.863   2.192   0.869
16592WAT     H150018   1.819   2.199   0.779
16592WAT     H250019   1.934   2.262   0.877
16593WAT      O50020   5.992   6.933   1.833
16593WAT     H150021   5.973   6.892   1.744
16593WAT     H250022   6.070   6.887   1.875
16594WAT      O50023   0.634   3.586   3.643
16594WAT     H150024   0.654   3.622   3.734
16594WAT     H250025   0.608   3.489   3.651
16595WAT      O50026   6.326   5.312   0.264
16595WAT     H150027   6.385   5.330   0.343
16595WAT     H250028   6.294   5.217   0.268
16596WAT      O50029   2.707   2.531   9.351
16596WAT     H150030   2.792   2.574   9.321
16596WAT     H250031   2.679   2.462   9.285
16597WAT      O50032   0.126   0.898   7.904
16597WAT     H150033   0.158   0.952   7.826
16597WAT     H250034   0.168   0.807   7.900
16598WAT      O50035   4.400   3.948   3.725
16598WAT     H150036   4.347   3.985   3.649
16598WAT     H250037   4.431   4.024   3.783
16599WAT      O50038   8.081   3.674   4.196
16599WAT     H150039   8.047   3.760   4.158
16599WAT     H250040   8.168   3.691   4.243
16600WAT      O50041   4.685   1.011   8.519
16600WAT     H150042   4.745   1.009   8.439
16600WAT     H250043   4.740   1.028   8.601
16601WAT      O50044   8.303   1.563   2.715
16601WAT     H150045   8.339   1.577   2.807
16601WAT     H250046   8.204   1.554   2.719
16602WAT      O50047   4.608   6.736   1.973
16602WAT     H150048   4.634   6.795   2.050
16602WAT     H250049   4.636   6.642   1.993
16603WAT      O50050   0.237   6.470   4.992
16603WAT     H150051   0.316   6.485   4.931
16603WAT     H250052   0.251   6.386   5.043
16604WAT      O50053   1.179   9.705   5.779
16604WAT     H150054   1.175   9.770   5.855
16604WAT     H250055   1.268   9.710   5.735
16605WAT      O50056   0.592   5.059   1.282
16605WAT     H150057   0.535   5.045   1.363
16605WAT     H250058   0.631   4.971   1.253
16606WAT      O50059   4.103   8.107   5.798
16606WAT     H150060   4.020   8.076   5.752
16606WAT     H250061   4.095   8.205   5.818
16607WAT      O50062   3.144   5.638   8.730
16607WAT     H150063   3.197   5.675   8.654
16607WAT     H250064   3.191   5.656   8.816
16608WAT      O50065   0.308   0.257   5.188
16608WAT     H150066   0.369   0.183   5.159
16608WAT     H250067   0.298   0.254   5.288
16609WAT      O50068   8.787   8.510   5.135
16609WAT     H150069   8.703   8.496   5.083
16609WAT     H250070   8.812   8.425   5.181
16610WAT      O50071   7.908   5.193   5.097
16610WAT     H150072   7.918   5.162   5.191
16610WAT     H250073   7.981   5.155   5.041
16611WAT      O50074   4.103   9.253   2.980
16611WAT     H150075   4.104   9.235   2.882
16611WAT     H250076   4.014   9.289   3.007
16612WAT      O50077   8.182   0.429   2.435
16612WAT     H150078   8.117   0.385   2.497
16612WAT     H250079   8.233   0.499   2.485
16613WAT      O50080   9.676   0.052   4.437
16613WAT     H150081   9.647   0.119   4.505
16613WAT     H250082   9.765   0.014   4.464
16614WAT      O50083   1.897   1.377   3.106
16614WAT     H150084   1.992   1.393   3.079
16614WAT     H250085   1.849   1.328   3.033
16615WAT      O50086   0.583   2.088   7.355
16615WAT     H150087   0.620   2.091   7.448
16615WAT     H250088   0.659   2.084   7.290
16616WAT      O50089   4.857   7.573   6.691
16616WAT     H150090   4.928   7.504   6.682
16616WAT     H250091   4.897   7.657   6.728
16617WAT      O50092   0.255   6.300   5.460
16617WAT     H150093   0.262   6.394   5.427
16617WAT     H250094   0.347   6.264   5.479
16618WAT      O50095   2.039   6.544   7.886
16618WAT     H150096   2.096   6.486   7.828
16618WAT     H250097   1.946   6.545   7.851
16619WAT      O50098   8.937   1.732   9.320
16619WAT     H150099   8.953   1.830   9.307
16619WAT     H250100   8.978   1.681   9.245
16620WAT      O50101   9.734   9.451   3.889
16620WAT     H150102   9.746   9.357   3.921
16620WAT     H250103   9.823   9.493   3.874
16621WAT      O50104   2.464   6.689   8.045
16621WAT     H150105   2.401   6.616   8.074
16621WAT     H250106   2.468   6.759   8.116
16622WAT      O50107   4.152   6.115   2.890
16622WAT     H150108   4.150   6.085   2.986
16622WAT     H250109   4.080   6.183   2.875
16623WAT      O50110   4.020   0.892   6.672
16623WAT     H150111   4.080   0.900   6.751
16623WAT     H250112   4.075   0.889   6.589
16624WAT      O50113   1.156   0.088   9.354
16624WAT     H150114   1.199   0.098   9.444
16624WAT     H250115   1.193   0.157   9.292
16625WAT      O50116   2.651   1.392   0.522
16625WAT     H150117   2.724   1.415   0.457
16625WAT     H250118   2.682   1.319   0.583
16626WAT      O50119   7.374   9.079   9.192
16626WAT     H150120   7.350   8.996   9.143
16626WAT     H250121   7.291   9.130   9.214
16627WAT      O50122   7.915   2.172   9.048
16627WAT     H150123   7.956   2.116   8.976
16627WAT     H250124   7.896   2.263   9.012
16628WAT      O50125   5.495   7.440   3.922
16628WAT     H150126   5.444   7.524   3.942
16628WAT     H250127   5.525   7.397   4.007
16629WAT      O50128   6.295   3.859   1.021
16629WAT     H150129   6.258   3.949   1.045
16629WAT     H250130   6.388   3.850   1.057
16630WAT      O50131   3.890   2.620   0.886
16630WAT     H150132   3.820   2.576   0.829
16630WAT     H250133   3.845   2.667   0.962
16631WAT      O50134   8.530   1.874   3.541
16631WAT     H150135   8.444   1.924   3.529
16631WAT     H250136   8.558   1.879   3.637
16632WAT      O50137   9.880   6.558   2.909
16632WAT     H150138   9.892   6.539   3.006
16632WAT     H250139   9.883   6.657   2.894
16633WAT      O50140   6.592   6.010   1.038
16633WAT     H150141   6.632   5.975   0.954
16633WAT     H250142   6.580   6.109   1.031
16634WAT      O50143   5.488   8.269   0.555
16634WAT     H150144   5.423   8.241   0.627
16634WAT     H250145   5.520   8.361   0.573
16635WAT      O50146   1.144   2.657   6.102
16635WAT     H150147   1.142   2.629   6.006
16635WAT     H250148   1.137   2.756   6.109
16636WAT      O50149   4.019   2.550   8.401
16636WAT     H150150   4.033   2.628   8.340
16636WAT     H250151   3.980   2.474   8.349
16637WAT      O50152   4.800   0.234   3.570
16637WAT     H150153   4.765   0.306   3.630
16637WAT     H250154   4.818   0.152   3.623
16638WAT      O50155   3.462   5.698   1.065
16638WAT     H150156   3.544   5.667   1.112
16638WAT     H250157   3.384   5.695   1.128
16639WAT      O50158   6.358   1.351   4.771
16639WAT     H150159   6.328   1.261   4.741
16639WAT     H250160   6.442   1.375   4.723
16640WAT      O50161   2.440   6.072   4.936
16640WAT     H150162   2.419   6.007   5.009
16640WAT     H250163   2.422   6.029   4.847
16641WAT      O50164   4.007   6.801   8.412
16641WAT     H150165   3.908   6.799   8.398
16641WAT     H250166   4.030   6.872   8.479
16642WAT      O50167   7.535   9.702   7.193
16642WAT     H150168   7.593   9.630   7.231
16642WAT     H250169   7.486   9.667   7.114
16643WAT      O50170   2.563   5.439   3.693
16643WAT     H150171   2.661   5.418   3.691
16643WAT     H250172   2.511   5.358   3.666
16644WAT      O50173   9.635   9.140   5.942
16644WAT     H150174   9.591   9.106   6.025
16644WAT     H250175   9.576   9.122   5.864
16645WAT      O50176   0.355   0.593   7.521
16645WAT     H150177   0.375   0.520   7.586
16645WAT     H250178   0.438   0.619   7.473
16646WAT      O50179   3.970   6.258   0.847
16646WAT     H150180   3.990   6.347   0.887
16646WAT     H250181   4.034   6.190   0.883
16647WAT      O50182   4.518   6.029   2.130
16647WAT     H150183   4.434   5.983   2.103
16647WAT     H250184   4.576   6.044   2.050
16648WAT      O50185   2.772   0.796   9.106
16648WAT     H150186   2.804   0.811   9.199
16648WAT     H250187   2.775   0.698   9.084
16649WAT      O50188   9.378   6.799   7.408
16649WAT     H150189   9.408   6.786   7.314
16649WAT     H250190   9.278   6.792   7.412
16650WAT      O50191   5.024   6.349   4.272
16650WAT     H150192   5.075   6.334   4.357
16650WAT     H250193   4.978   6.438   4.276
16651WAT      O50194   4.916   7.184   6.797
16651WAT     H150195   4.963   7.258   6.845
16651WAT     H250196   4.882   7.118   6.863
16652WAT      O50197   7.768   5.339   4.294
16652WAT     H150198   7.699   5.292   4.350
16652WAT     H250199   7.858   5.326   4.335
16653WAT      O50200   0.230   0.124   6.107
16653WAT     H150201   0.162   0.194   6.129
16653WAT     H250202   0.198   0.070   6.029
16654WAT      O50203   4.179   8.132   7.246
16654WAT     H150204   4.228   8.217   7.267
16654WAT     H250205   4.151   8.088   7.331
16655WAT      O50206   3.596   2.036   5.231
16655WAT     H150207   3.554   1.994   5.312
16655WAT     H250208   3.678   2.086   5.259
16656WAT      O50209   2.001   1.567   0.704
16656WAT     H150210   2.058   1.596   0.627
16656WAT     H250211   1.997   1.640   0.772
16657WAT      O50212   2.604   7.075   2.303
16657WAT     H150213   2.510   7.099   2.327
16657WAT     H250214   2.614   7.076   2.203
16658WAT      O50215   0.485   3.444   4.399
16658WAT     H150216   0.494   3.345   4.391
16658WAT     H250217   0.533   3.475   4.481
16659WAT      O50218   6.774   1.489   1.393
16659WAT     H150219   6.837   1.499   1.470
16659WAT     H250220   6.713   1.569   1.389
16660WAT      O50221   6.481   0.123   4.330
16660WAT     H150222   6.493   0.084   4.239
16660WAT     H250223   6.544   0.199   4.343
16661WAT      O50224   5.511   8.750   6.881
16661WAT     H150225   5.442   8.679   6.875
16661WAT     H250226   5.495   8.819   6.810
16662WAT      O50227   8.195   1.307   7.063
16662WAT     H150228   8.276   1.250   7.079
16662WAT     H250229   8.116   1.249   7.045
16663WAT      O50230   6.744   4.460   0.541
16663WAT     H150231   6.708   4.394   0.476
16663WAT     H250232   6.823   4.507   0.501
16664WAT      O50233   1.790   4.392   8.280
16664WAT     H150234   1.820   4.485   8.305
16664WAT     H250235   1.856   4.326   8.315
16665WAT      O50236   6.271   1.677   9.054
16665WAT     H150237   6.225   1.630   8.979
16665WAT     H250238   6.359   1.633   9.072
16666WAT      O50239   4.643   3.557   5.791
16666WAT     H150240   4.626   3.653   5.770
16666WAT     H250241   4.698   3.516   5.718
16667WAT      O50242   0.108   8.766   0.395
16667WAT     H150243   0.027   8.804   0.350
16667WAT     H250244   0.106   8.790   0.492
16668WAT      O50245   5.069   1.025   8.434
16668WAT     H150246   4.992   1.034   8.370
16668WAT     H250247   5.035   0.989   8.521
16669WAT      O50248   7.154   9.719   0.036
16669WAT     H150249   7.083   9.747   0.101
16669WAT     H250250   7.240   9.707   0.084
16670WAT      O50251   6.082   2.813   6.920
16670WAT     H150252   6.007   2.748   6.906
16670WAT     H250253   6.043   2.903   6.940
16671WAT      O50254   0.752   4.107   3.958
16671WAT     H150255   0.741   4.102   3.859
16671WAT     H250256   0.687   4.045   4.002
16672WAT      O50257   3.168   1.403   6.153
16672WAT     H150258   3.125   1.485   6.191
16672WAT     H250259   3.101   1.328   6.150
16673WAT      O50260   8.480   0.531   6.537
16673WAT     H150261   8.418   0.454   6.556
16673WAT     H250262   8.471   0.558   6.442
16674WAT      O50263   1.157   6.175   8.049
16674WAT     H150264   1.084   6.221   7.998
16674WAT     H250265   1.119   6.096   8.097
16675WAT      O50266   3.855   1.757   8.676
16675WAT     H150267   3.841   1.722   8.768
16675WAT     H250268   3.769   1.753   8.625
16676WAT      O50269   8.807   8.008   3.510
16676WAT     H150270   8.754   7.934   3.469
16676WAT     H250271   8.864   7.972   3.584
16677WAT      O50272   6.731   8.406   3.610
16677WAT     H150273   6.791   8.329   3.588
16677WAT     H250274   6.668   8.379   3.682
16678WAT      O50275   4.477   6.150   3.512
16678WAT     H150276   4.424   6.221   3.558
16678WAT     H250277   4.568   6.145   3.553
16679WAT      O50278   5.181   4.189   9.205
16679WAT     H150279   5.243   4.112   9.219
16679WAT     H250280   5.234   4.274   9.201
16680WAT      O50281   3.564   1.505   1.526
16680WAT     H150282   3.495   1.574   1.503
16680WAT     H250283   3.604   1.467   1.443
16681WAT      O50284   1.200   3.524   0.768
16681WAT     H150285   1.144   3.472   0.704
16681WAT     H250286   1.152   3.533   0.855
16682WAT      O50287   2.426   1.195   2.742
16682WAT     H150288   2.366   1.130   2.789
16682WAT     H250289   2.389   1.288   2.754
16683WAT      O50290   8.881   5.492   1.778
16683WAT     H150291   8.945   5.426   1.738
16683WAT     H250292   8.932   5.559   1.831
16684WAT      O50293   8.261   5.718   9.806
16684WAT     H150294   8.332   5.775   9.766
16684WAT     H250295   8.300   5.663   9.880
16685WAT      O50296   7.727   9.478   8.224
16685WAT     H150297   7.805   9.532   8.256
16685WAT     H250298   7.719   9.395   8.280
16686WAT      O50299   0.473   1.289   0.976
16686WAT     H150300   0.496   1.209   0.919
16686WAT     H250301   0.395   1.268   1.034
16687WAT      O50302   2.879   1.983   0.268
16687WAT     H150303   2.969   2.026   0.259
16687WAT     H250304   2.808   2.052   0.257
16688WAT      O50305   8.482   6.597   1.051
16688WAT     H150306   8.524   6.539   1.122
16688WAT     H250307   8.463   6.542   0.970
16689WAT      O50308   7.955   8.659   9.881
16689WAT     H150309   7.891   8.728   9.848
16689WAT     H250310   7.943   8.645   9.979
16690WAT      O50311   2.000   9.521   1.675
16690WAT     H150312   1.952   9.482   1.754
16690WAT     H250313   2.019   9.449   1.608
16691WAT      O50314   8.371   6.767   0.722
16691WAT     H150315   8.389   6.784   0.625
16691WAT     H250316   8.427   6.828   0.778
16692WAT      O50317   1.423   7.928   3.165
16692WAT     H150318   1.435   7.852   3.229
16692WAT     H250319   1.394   7.891   3.076
16693WAT      O50320   2.402   1.719   0.543
16693WAT     H150321   2.502   1.720   0.535
16693WAT     H250322   2.377   1.714   0.640
16694WAT      O50323   0.241   2.971   9.831
16694WAT     H150324   0.245   2.937   9.925
16694WAT     H250325   0.282   2.903   9.769
16695WAT      O50326   4.300   5.090   2.514
16695WAT     H150327   4.294   5.188   2.496
16695WAT     H250328   4.339   5.044   2.434
16696WAT      O50329   2.170   1.777   9.380
16696WAT     H150330   2.253   1.765   9.434
16696WAT     H250331   2.092   1.738   9.429
16697WAT      O50332   0.019   9.613   1.313
16697WAT     H150333   0.068   9.693   1.348
16697WAT     H250334  -0.060   9.594   1.371
16698WAT      O50335   4.605   9.079   1.703
16698WAT     H150336   4.658   8.995   1.692
16698WAT     H250337   4.621   9.139   1.625
16699WAT      O50338   1.730   4.871   1.155
16699WAT     H150339   1.748   4.853   1.252
16699WAT     H250340   1.800   4.931   1.118
16700WAT      O50341   2.699   4.334   4.811
16700WAT     H150342   2.713   4.335   4.712
16700WAT     H250343   2.777   4.289   4.855
16701WAT      O50344   6.641   5.652   1.398
16701WAT     H150345   6.564   5.663   1.461
16701WAT     H250346   6.660   5.740   1.353
16702WAT      O50347   0.848   2.583   7.253
16702WAT     H150348   0.783   2.521   7.298
16702WAT     H250349   0.886   2.539   7.172
16703WAT      O50350   8.680   1.495   5.088
16703WAT     H150351   8.640   1.587   5.096
16703WAT     H250352   8.765   1.492   5.141
16704WAT      O50353   1.673   2.397   1.910
16704WAT     H150354   1.679   2.364   2.004
16704WAT     H250355   1.757   2.446   1.886
16705WAT      O50356   7.778   7.904   2.872
16705WAT     H150357   7.754   7.920   2.968
16705WAT     H250358   7.695   7.904   2.816
16706WAT      O50359   6.220   0.122   7.121
16706WAT     H150360   6.165   0.206   7.116
16706WAT     H250361   6.276   0.114   7.038
16707WAT      O50362   5.717   7.924   6.771
16707WAT     H150363   5.762   7.855   6.714
16707WAT     H250364   5.674   7.879   6.850
16708WAT      O50365   1.702   9.255   9.703
16708WAT     H150366   1.656   9.171   9.673
16708WAT     H250367   1.745   9.239   9.791
16709WAT      O50368   7.900   2.336   0.479
16709WAT     H150369   7.970   2.273   0.514
16709WAT     H250370   7.878   2.311   0.384
16710WAT      O50371   8.037   7.051   8.510
16710WAT     H150372   8.075   6.980   8.569
16710WAT     H250373   8.111   7.106   8.472
16711WAT      O50374   2.423   1.354   6.468
16711WAT     H150375   2.401   1.444   6.505
16711WAT     H250376   2.456   1.294   6.541
16712WAT      O50377   8.221   2.154   9.037
16712WAT     H150378   8.131   2.140   9.079
16712WAT     H250379   8.288   2.097   9.085
16713WAT      O50380   6.448   1.005   7.735
16713WAT     H150381   6.379   0.933   7.741
16713WAT     H250382   6.466   1.025   7.638
16714WAT      O50383   7.739   3.049   5.724
16714WAT     H150384   7.793   2.967   5.741
16714WAT     H250385   7.759   3.117   5.796
16715WAT      O50386   6.596   8.672   0.823
16715WAT     H150387   6.502   8.684   0.791
16715WAT     H250388   6.600   8.688   0.921
16716WAT      O50389   0.843   2.888   3.971
16716WAT     H150390   0.873   2.842   4.054
16716WAT     H250391   0.908   2.959   3.946
16717WAT      O50392   8.188   5.438   1.750
16717WAT     H150393   8.276   5.460   1.708
16717WAT     H250394   8.118   5.501   1.716
16718WAT      O50395   6.127   8.675   3.640
16718WAT     H150396   6.085   8.620   3.712
16718WAT     H250397   6.221   8.644   3.624
16719WAT      O50398   2.851   3.806   7.563
16719WAT     H150399   2.793   3.746   7.616
16719WAT     H250400   2.863   3.893   7.611
16720WAT      O50401   8.037   8.951   5.860
16720WAT     H150402   8.059   8.933   5.956
16720WAT     H250403   7.949   8.909   5.837
16721WAT      O50404   0.870   2.828   6.465
16721WAT     H150405   0.865   2.901   6.534
16721WAT     H250406   0.782   2.822   6.418
16722WAT      O50407   7.230   7.768   2.933
16722WAT     H150408   7.303   7.823   2.972
16722WAT     H250409   7.217   7.686   2.989
16723WAT      O50410   7.744   4.125   3.770
16723WAT     H150411   7.682   4.190   3.814
16723WAT     H250412   7.695   4.077   3.697
16724WAT      O50413   6.417   2.621   7.402
16724WAT     H150414   6.350   2.674   7.453
16724WAT     H250415   6.488   2.587   7.464
16725WAT      O50416   6.885   7.021   2.309
16725WAT     H150417   6.897   6.923   2.294
16725WAT     H250418   6.920   7.045   2.399
16726WAT      O50419   4.352   2.129   3.648
16726WAT     H150420   4.260   2.108   3.680
16726WAT     H250421   4.349   2.146   3.549
16727WAT      O50422   6.706   2.951   9.005
16727WAT     H150423   6.768   2.955   9.084
16727WAT     H250424   6.643   3.028   9.008
16728WAT      O50425   2.078   4.037   6.637
16728WAT     H150426   1.985   4.073   6.642
16728WAT     H250427   2.143   4.106   6.669
16729WAT      O50428   5.639   3.927   8.052
16729WAT     H150429   5.556   3.874   8.071
16729WAT     H250430   5.628   4.020   8.087
16730WAT      O50431   7.345   3.544   8.531
16730WAT     H150432   7.317   3.591   8.448
16730WAT     H250433   7.411   3.600   8.581
16731WAT      O50434   6.422   8.702   8.946
16731WAT     H150435   6.484   8.761   8.997
16731WAT     H250436   6.469   8.666   8.865
16732WAT      O50437   7.372   9.843   6.032
16732WAT     H150438   7.293   9.841   6.092
16732WAT     H250439   7.441   9.778   6.065
16733WAT      O50440   9.830   8.924   3.138
16733WAT     H150441   9.849   8.900   3.233
16733WAT     H250442   9.735   8.902   3.116
16734WAT      O50443   3.504   3.898   6.442
16734WAT     H150444   3.539   3.981   6.485
16734WAT     H250445   3.489   3.914   6.345
16735WAT      O50446   3.303   6.360   8.066
16735WAT     H150447   3.283   6.300   8.143
16735WAT     H250448   3.375   6.425   8.092
16736WAT      O50449   6.043   0.532   8.451
16736WAT     H150450   6.059   0.597   8.525
16736WAT     H250451   6.034   0.440   8.489
16737WAT      O50452   1.390   5.318   3.651
16737WAT     H150453   1.377   5.373   3.569
16737WAT     H250454   1.342   5.230   3.641
16738WAT      O50455   4.908   8.410   8.186
16738WAT     H150456   4.845   8.353   8.134
16738WAT     H250457   4.967   8.352   8.243
16739WAT      O50458   8.725   9.294   8.025
16739WAT     H150459   8.710   9.195   8.017
16739WAT     H250460   8.638   9.339   8.045
16740WAT      O50461   9.566   6.961   1.479
16740WAT     H150462   9.508   7.013   1.416
16740WAT     H250463   9.585   6.871   1.439
16741WAT      O50464   2.754   6.437   1.141
16741WAT     H150465   2.713   6.379   1.070
16741WAT     H250466   2.850   6.412   1.153
16742WAT      O50467   2.917   8.419   2.327
16742WAT     H150468   2.875   8.344   2.377
16742WAT     H250469   2.982   8.383   2.260
16743WAT      O50470   0.719   8.651   7.756
16743WAT     H150471   0.720   8.674   7.659
16743WAT     H250472   0.703   8.553   7.767
16744WAT      O50473   3.151   0.897   2.262
16744WAT     H150474   3.056   0.916   2.288
16744WAT     H250475   3.180   0.962   2.192
16745WAT      O50476   8.887   6.205   1.397
16745WAT     H150477   8.938   6.218   1.482
16745WAT     H250478   8.814   6.139   1.412
16746WAT      O50479   8.698   7.716   3.084
16746WAT     H150480   8.773   7.781   3.094
16746WAT     H250481   8.614   7.765   3.061
16747WAT      O50482   3.870   0.491   7.126
16747WAT     H150483   3.781   0.460   7.094
16747WAT     H250484   3.942   0.454   7.068
16748WAT      O50485   6.605   3.120   6.963
16748WAT     H150486   6.505   3.123   6.951
16748WAT     H250487   6.649   3.160   6.883
16749WAT      O50488   2.716   2.129   9.070
16749WAT     H150489   2.805   2.094   9.042
16749WAT     H250490   2.644   2.083   9.017
16750WAT      O50491   2.781   5.014   4.874
16750WAT     H150492   2.786   4.931   4.929
16750WAT     H250493   2.689   5.024   4.836
16751WAT      O50494   8.675   9.400   7.016
16751WAT     H150495   8.617   9.442   7.086
16751WAT     H250496   8.637   9.311   6.991
16752WAT      O50497   0.886   8.689   5.885
16752WAT     H150498   0.969   8.658   5.838
16752WAT     H250499   0.912   8.743   5.966
16753WAT      O50500   0.410   8.783   4.592
16753WAT     H150501   0.354   8.848   4.642
16753WAT     H250502   0.377   8.690   4.609
16754WAT      O50503   9.106   2.765   6.110
16754WAT     H150504   9.094   2.672   6.073
16754WAT     H250505   9.018   2.798   6.145
16755WAT      O50506   8.078   5.387   5.419
16755WAT     H150507   8.041   5.295   5.402
16755WAT     H250508   8.110   5.426   5.334
16756WAT      O50509   6.015   6.569   1.045
16756WAT     H150510   5.958   6.582   1.125
16756WAT     H250511   6.099   6.521   1.071
16757WAT      O50512   8.587   5.224   5.182
16757WAT     H150513   8.634   5.299   5.228
16757WAT     H250514   8.490   5.225   5.208
16758WAT      O50515   1.202   1.501   1.561
16758WAT     H150516   1.162   1.572   1.619
16758WAT     H250517   1.252   1.436   1.619
16759WAT      O50518   2.448   4.626   2.332
16759WAT     H150519   2.465   4.704   2.393
16759WAT     H250520   2.360   4.585   2.354
16760WAT      O50521   4.777   1.690   7.782
16760WAT     H150522   4.800   1.642   7.867
16760WAT     H250523   4.682   1.718   7.785
16761WAT      O50524   4.751   9.447   6.114
16761WAT     H150525   4.728   9.409   6.024
16761WAT     H250526   4.850   9.444   6.128
16762WAT      O50527   7.230   8.446   3.129
16762WAT     H150528   7.243   8.348   3.114
16762WAT     H250529   7.316   8.485   3.164
16763WAT      O50530   1.236   7.668   2.481
16763WAT     H150531   1.312   7.623   2.434
16763WAT     H250532   1.226   7.761   2.448
16764WAT      O50533   7.079   4.473   3.381
16764WAT     H150534   7.130   4.395   3.416
16764WAT     H250535   7.030   4.447   3.298
16765WAT      O50536   5.514   4.516   4.640
16765WAT     H150537   5.512   4.469   4.728
16765WAT     H250538   5.568   4.600   4.649
16766WAT      O50539   0.039   2.503   1.629
16766WAT     H150540   0.010   2.436   1.560
16766WAT     H250541  -0.033   2.512   1.698
16767WAT      O50542   2.404   1.292   6.935
16767WAT     H150543   2.430   1.208   6.983
16767WAT     H250544   2.335   1.271   6.866
16768WAT      O50545   8.630   7.858   2.327
16768WAT     H150546   8.722   7.881   2.297
16768WAT     H250547   8.588   7.937   2.370
16769WAT      O50548   4.638   9.619   5.782
16769WAT     H150549   4.723   9.646   5.738
16769WAT     H250550   4.629   9.520   5.780
16770WAT      O50551   0.979   5.327   1.122
16770WAT     H150552   1.022   5.238   1.132
16770WAT     H250553   1.045   5.399   1.147
16771WAT      O50554   0.457   9.475   4.831
16771WAT     H150555   0.515   9.421   4.772
16771WAT     H250556   0.399   9.415   4.886
16772WAT      O50557   8.623   6.716   2.205
16772WAT     H150558   8.669   6.793   2.250
16772WAT     H250559   8.628   6.728   2.105
16773WAT      O50560   2.782   9.531   6.506
16773WAT     H150561   2.735   9.447   6.535
16773WAT     H250562   2.812   9.581   6.587
16774WAT      O50563   6.358   0.736   3.311
16774WAT     H150564   6.326   0.644   3.286
16774WAT     H250565   6.342   0.798   3.234
16775WAT      O50566   3.044   6.697   2.910
16775WAT     H150567   2.961   6.736   2.869
16775WAT     H250568   3.111   6.770   2.926
16776WAT      O50569   2.028   9.245   1.494
16776WAT     H150570   2.000   9.151   1.512
16776WAT     H250571   2.079   9.249   1.408
16777WAT      O50572   4.819   7.541   7.051
16777WAT     H150573   4.888   7.510   6.985
16777WAT     H250574   4.753   7.467   7.066
16778WAT      O50575   6.402   9.115   7.249
16778WAT     H150576   6.309   9.079   7.236
16778WAT     H250577   6.461   9.083   7.175
16779WAT      O50578   6.559   8.322   6.152
16779WAT     H150579   6.532   8.311   6.248
16779WAT     H250580   6.645   8.372   6.147
16780WAT      O50581   4.508   5.265   0.464
16780WAT     H150582   4.540   5.247   0.371
16780WAT     H250583   4.429   5.326   0.461
16781WAT      O50584   6.033   3.420   3.624
16781WAT     H150585   6.114   3.458   3.580
16781WAT     H250586   5.978   3.494   3.664
16782WAT      O50587   6.545   2.757   8.871
16782WAT     H150588   6.453   2.794   8.873
16782WAT     H250589   6.610   2.826   8.905
16783WAT      O50590   4.223   5.592   5.651
16783WAT     H150591   4.252   5.501   5.620
16783WAT     H250592   4.159   5.582   5.726
16784WAT      O50593   9.129   1.747   8.673
16784WAT     H150594   9.222   1.735   8.708
16784WAT     H250595   9.123   1.709   8.580
16785WAT      O50596   3.977   8.816   0.584
16785WAT     H150597   3.893   8.836   0.635
16785WAT     H250598   3.963   8.735   0.527
16786WAT      O50599   0.579   7.915   7.832
16786WAT     H150600   0.632   7.996   7.857
16786WAT     H250601   0.481   7.936   7.839
16787WAT      O50602   6.701   0.553   1.136
16787WAT     H150603   6.647   0.576   1.217
16787WAT     H250604   6.758   0.631   1.110
16788WAT      O50605   5.781   8.973   8.533
16788WAT     H150606   5.815   9.028   8.609
16788WAT     H250607   5.762   8.880   8.565
16789WAT      O50608   5.128   5.711   3.574
16789WAT     H150609   5.209   5.698   3.631
16789WAT     H250610   5.064   5.774   3.619
16790WAT      O50611   7.827   5.497   0.794
16790WAT     H150612   7.811   5.596   0.795
16790WAT     H250613   7.890   5.472   0.868
16791WAT      O50614   9.127   8.381   1.276
16791WAT     H150615   9.117   8.466   1.225
16791WAT     H250616   9.197   8.324   1.234
16792WAT      O50617   3.758   5.719   8.581
16792WAT     H150618   3.786   5.719   8.677
16792WAT     H250619   3.729   5.811   8.554
16793WAT      O50620   3.082   7.567   4.737
16793WAT     H150621   3.124   7.527   4.818
16793WAT     H250622   3.119   7.659   4.722
16794WAT      O50623   4.592   9.242   6.789
16794WAT     H150624   4.504   9.219   6.830
16794WAT     H250625   4.633   9.318   6.840
16795WAT      O50626   1.308   1.182   6.595
16795WAT     H150627   1.402   1.208   6.575
16795WAT     H250628   1.249   1.204   6.517
16796WAT      O50629   0.221   8.673   2.617
16796WAT     H150630   0.311   8.636   2.593
16796WAT     H250631   0.233   8.752   2.677
16797WAT      O50632   8.547   6.448   5.413
16797WAT     H150633   8.583   6.355   5.400
16797WAT     H250634   8.619   6.506   5.452
16798WAT      O50635   3.402   0.326   9.262
16798WAT     H150636   3.431   0.422   9.263
16798WAT     H250637   3.337   0.310   9.336
16799WAT      O50638   7.868   9.063   3.027
16799WAT     H150639   7.906   9.071   3.119
16799WAT     H250640   7.781   9.112   3.022
16800WAT      O50641   7.065   8.378   4.807
16800WAT     H150642   6.965   8.374   4.797
16800WAT     H250643   7.103   8.286   4.808
16801WAT      O50644   9.870   5.092   4.061
16801WAT     H150645   9.785   5.050   4.093
16801WAT     H250646   9.932   5.104   4.138
16802WAT      O50647   2.549   7.988   1.246
16802WAT     H150648   2.513   8.077   1.217
16802WAT     H250649   2.473   7.929   1.272
16803WAT      O50650   7.679   0.464   1.535
16803WAT     H150651   7.632   0.381   1.563
16803WAT     H250652   7.724   0.450   1.447
16804WAT      O50653   9.353   6.123   5.848
16804WAT     H150654   9.341   6.124   5.749
16804WAT     H250655   9.279   6.174   5.891
16805WAT      O50656   1.256   8.813   5.991
16805WAT     H150657   1.296   8.748   6.057
16805WAT     H250658   1.278   8.783   5.898
16806WAT      O50659   9.831   6.933   9.196
16806WAT     H150660   9.768   6.861   9.226
16806WAT     H250661   9.921   6.917   9.235
16807WAT      O50662   5.211   1.228   2.850
16807WAT     H150663   5.280   1.162   2.881
16807WAT     H250664   5.254   1.298   2.794
16808WAT      O50665   6.122   2.547   7.127
16808WAT     H150666   6.049   2.483   7.154
16808WAT     H250667   6.185   2.500   7.065
16809WAT      O50668   1.865   3.709   8.434
16809WAT     H150669   1.877   3.627   8.378
16809WAT     H250670   1.950   3.761   8.434
16810WAT      O50671   0.749   9.544   0.439
16810WAT     H150672   0.658   9.515   0.409
16810WAT     H250673   0.803   9.464   0.464
16811WAT      O50674   3.405   4.015   0.850
16811WAT     H150675   3.379   4.066   0.768
16811WAT     H250676   3.504   4.020   0.862
16812WAT      O50677   9.235   4.688   4.499
16812WAT     H150678   9.240   4.611   4.435
16812WAT     H250679   9.325   4.733   4.504
16813WAT      O50680   0.257   6.503   8.357
16813WAT     H150681   0.333   6.464   8.304
16813WAT     H250682   0.242   6.449   8.439
16814WAT      O50683   0.577   1.245   6.294
16814WAT     H150684   0.544   1.184   6.366
16814WAT     H250685   0.505   1.258   6.226
16815WAT      O50686   9.716   8.033   7.821
16815WAT     H150687   9.724   7.978   7.738
16815WAT     H250688   9.737   7.977   7.900
16816WAT      O50689   7.932   0.160   5.586
16816WAT     H150690   8.018   0.200   5.554
16816WAT     H250691   7.889   0.222   5.652
16817WAT      O50692   0.856   6.365   8.241
16817WAT     H150693   0.782   6.400   8.184
16817WAT     H250694   0.943   6.380   8.194
16818WAT      O50695   2.264   5.983   0.531
16818WAT     H150696   2.330   5.910   0.550
16818WAT     H250697   2.313   6.069   0.519
16819WAT      O50698   5.397   8.805   7.565
16819WAT     H150699   5.441   8.767   7.484
16819WAT     H250700   5.418   8.748   7.645
16820WAT      O50701   1.068   3.699   4.363
16820WAT     H150702   0.992   3.636   4.380
16820WAT     H250703   1.062   3.734   4.269
16821WAT      O50704   6.581   5.579   1.074
16821WAT     H150705   6.494   5.604   1.030
16821WAT     H250706   6.650   5.648   1.054
16822WAT      O50707   4.903   4.035   4.937
16822WAT     H150708   4.889   4.092   5.018
16822WAT     H250709   4.840   3.957   4.940
16823WAT      O50710   2.746   8.720   0.839
16823WAT     H150711   2.824   8.756   0.890
16823WAT     H250712   2.750   8.753   0.744
16824WAT      O50713   9.890   6.057   0.911
16824WAT     H150714   9.840   6.096   0.834
16824WAT     H250715   9.899   6.126   0.983
16825WAT      O50716   9.110   0.841   4.813
16825WAT     H150717   9.126   0.931   4.855
16825WAT     H250718   9.119   0.849   4.714
16826WAT      O50719   8.575   1.630   3.753
16826WAT     H150720   8.584   1.729   3.766
16826WAT     H250721   8.565   1.610   3.655
16827WAT      O50722   5.543   7.177   3.543
16827WAT     H150723   5.611   7.127   3.489
16827WAT     H250724   5.582   7.262   3.577
16828WAT      O50725   3.531   7.844   4.936
16828WAT     H150726   3.629   7.843   4.959
16828WAT     H250727   3.478   7.862   5.019
16829WAT      O50728   6.818   1.961   4.236
16829WAT     H150729   6.778   1.963   4.328
16829WAT     H250730   6.746   1.976   4.168
16830WAT      O50731   9.331   6.947   8.361
16830WAT     H150732   9.350   7.035   8.405
16830WAT     H250733   9.306   6.961   8.266
16831WAT      O50734   6.187   4.634   7.060
16831WAT     H150735   6.206   4.539   7.035
16831WAT     H250736   6.194   4.691   6.978
16832WAT      O50737   6.569   5.194   8.041
16832WAT     H150738   6.574   5.239   7.952
16832WAT     H250739   6.610   5.254   8.111
16833WAT      O50740   1.737   2.091   3.882
16833WAT     H150741   1.807   2.149   3.839
16833WAT     H250742   1.704   2.135   3.965
16834WAT      O50743   1.478   5.407   5.485
16834WAT     H150744   1.446   5.426   5.578
16834WAT     H250745   1.408   5.357   5.436
16835WAT      O50746   1.861   3.952   9.238
16835WAT     H150747   1.848   3.865   9.285
16835WAT     H250748   1.800   4.021   9.278
16836WAT      O50749   6.503   2.167   6.983
16836WAT     H150750   6.543   2.139   6.896
16836WAT     H250751   6.563   2.233   7.027
16837WAT      O50752   1.579   6.966   9.243
16837WAT     H150753   1.556   7.062   9.226
16837WAT     H250754   1.524   6.908   9.183
16838WAT      O50755   4.661   8.188   0.782
16838WAT     H150756   4.657   8.257   0.854
16838WAT     H250757   4.718   8.111   0.812
16839WAT      O50758   9.723   8.507   6.257
16839WAT     H150759   9.799   8.485   6.318
16839WAT     H250760   9.690   8.423   6.212
16840WAT      O50761   6.234   1.405   2.303
16840WAT     H150762   6.221   1.482   2.365
16840WAT     H250763   6.175   1.329   2.331
16841WAT      O50764   7.454   5.294   7.341
16841WAT     H150765   7.455   5.302   7.441
16841WAT     H250766   7.547   5.307   7.306
16842WAT      O50767   3.549   0.025   6.737
16842WAT     H150768   3.549  -0.014   6.645
16842WAT     H250769   3.641   0.020   6.776
16843WAT      O50770   5.092   8.025   2.428
16843WAT     H150771   5.123   8.047   2.520
16843WAT     H250772   5.058   8.107   2.383
16844WAT      O50773   9.166   4.152   6.875
16844WAT     H150774   9.211   4.192   6.795
16844WAT     H250775   9.089   4.096   6.845
16845WAT      O50776   4.786   8.770   4.716
16845WAT     H150777   4.875   8.801   4.748
16845WAT     H250778   4.791   8.673   4.692
16846WAT      O50779   1.728   3.774   1.207
16846WAT     H150780   1.693   3.681   1.201
16846WAT     H250781   1.796   3.780   1.280
16847WAT      O50782   3.581   3.644   9.825
16847WAT     H150783   3.495   3.624   9.871
16847WAT     H250784   3.596   3.743   9.825
16848WAT      O50785   0.604   0.604   4.232
16848WAT     H150786   0.527   0.546   4.205
16848WAT     H250787   0.641   0.572   4.319
16849WAT      O50788   5.073   9.097   6.069
16849WAT     H150789   5.058   9.155   6.149
16849WAT     H250790   5.138   9.142   6.007
16850WAT      O50791   5.586   7.619   6.107
16850WAT     H150792   5.584   7.649   6.011
16850WAT     H250793   5.554   7.525   6.113
16851WAT      O50794   0.917   4.672   1.663
16851WAT     H150795   0.938   4.616   1.582
16851WAT     H250796   0.818   4.678   1.674
16852WAT      O50797   0.452   5.090   5.254
16852WAT     H150798   0.426   5.048   5.167
16852WAT     H250799   0.430   5.188   5.252
16853WAT      O50800   7.975   9.471   0.642
16853WAT     H150801   7.939   9.562   0.624
16853WAT     H250802   7.981   9.457   0.741
16854WAT      O50803   8.656   0.481   6.086
16854WAT     H150804   8.708   0.397   6.068
16854WAT     H250805   8.683   0.551   6.019
16855WAT      O50806   2.153   7.849   4.496
16855WAT     H150807   2.054   7.863   4.497
16855WAT     H250808   2.196   7.913   4.559
16856WAT      O50809   1.725   0.458   3.473
16856WAT     H150810   1.726   0.417   3.564
16856WAT     H250811   1.819   0.470   3.440
16857WAT      O50812   7.267   5.601   2.987
16857WAT     H150813   7.294   5.643   3.073
16857WAT     H250814   7.348   5.581   2.932
16858WAT      O50815   1.269   6.397   1.933
16858WAT     H150816   1.305   6.483   1.898
16858WAT     H250817   1.345   6.335   1.954
16859WAT      O50818   9.508   9.720   3.629
16859WAT     H150819   9.517   9.664   3.711
16859WAT     H250820   9.489   9.660   3.551
16860WAT      O50821   9.871   8.149   0.220
16860WAT     H150822   9.924   8.152   0.305
16860WAT     H250823   9.774   8.159   0.242
16861WAT      O50824   3.305   8.799   5.689
16861WAT     H150825   3.310   8.884   5.743
16861WAT     H250826   3.318   8.721   5.750
16862WAT      O50827   2.366   6.152   0.811
16862WAT     H150828   2.434   6.079   0.814
16862WAT     H250829   2.340   6.169   0.716
16863WAT      O50830   0.357   2.779   9.635
16863WAT     H150831   0.440   2.833   9.623
16863WAT     H250832   0.328   2.741   9.547
16864WAT      O50833   1.978   6.390   1.312
16864WAT     H150834   2.044   6.458   1.344
16864WAT     H250835   2.002   6.359   1.220
16865WAT      O50836   9.098   3.767   4.955
16865WAT     H150837   9.068   3.860   4.932
16865WAT     H250838   9.040   3.730   5.027
16866WAT      O50839   2.663   9.127   8.607
16866WAT     H150840   2.649   9.061   8.681
16866WAT     H250841   2.663   9.079   8.519
16867WAT      O50842   7.767   0.502   6.756
16867WAT     H150843   7.769   0.557   6.840
16867WAT     H250844   7.836   0.430   6.762
16868WAT      O50845   2.767   4.451   8.676
16868WAT     H150846   2.855   4.430   8.720
16868WAT     H250847   2.760   4.549   8.661
16869WAT      O50848   5.835   2.987   7.508
16869WAT     H150849   5.917   3.010   7.559
16869WAT     H250850   5.795   3.071   7.470
16870WAT      O50851   0.802   5.787   3.813
16870WAT     H150852   0.810   5.776   3.913
16870WAT     H250853   0.883   5.835   3.779
16871WAT      O50854   4.043   0.931   8.606
16871WAT     H150855   4.129   0.957   8.564
16871WAT     H250856   3.968   0.983   8.565
16872WAT      O50857   0.562   5.323   9.729
16872WAT     H150858   0.478   5.347   9.778
16872WAT     H250859   0.639   5.324   9.792
16873WAT      O50860   5.749   0.237   2.289
16873WAT     H150861   5.770   0.304   2.360
16873WAT     H250862   5.682   0.274   2.225
16874WAT      O50863   6.856   7.894   4.922
16874WAT     H150864   6.898   7.804   4.935
16874WAT     H250865   6.912   7.948   4.859
16875WAT      O50866   0.409   4.006   2.098
16875WAT     H150867   0.406   4.106   2.090
16875WAT     H250868   0.348   3.966   2.030
16876WAT      O50869   7.677   6.148   2.520
16876WAT     H150870   7.591   6.108   2.488
16876WAT     H250871   7.728   6.184   2.442
16877WAT      O50872   4.749   0.756   4.126
16877WAT     H150873   4.797   0.822   4.184
16877WAT     H250874   4.733   0.796   4.036
16878WAT      O50875   2.812   6.350   0.342
16878WAT     H150876   2.901   6.396   0.337
16878WAT     H250877   2.819   6.258   0.303
16879WAT      O50878   8.410   3.619   0.464
16879WAT     H150879   8.415   3.599   0.562
16879WAT     H250880   8.314   3.623   0.436
16880WAT      O50881   2.022   9.756   9.061
16880WAT     H150882   2.021   9.835   8.999
16880WAT     H250883   2.100   9.697   9.038
16881WAT      O50884   1.113   4.865   5.121
16881WAT     H150885   1.212   4.852   5.127
16881WAT     H250886   1.091   4.907   5.033
16882WAT      O50887   2.151   9.436   8.777
16882WAT     H150888   2.174   9.346   8.814
16882WAT     H250889   2.159   9.434   8.677
16883WAT      O50890   6.431   2.613   2.386
16883WAT     H150891   6.530   2.620   2.380
16883WAT     H250892   6.393   2.593   2.295
16884WAT      O50893   7.615   8.679   5.882
16884WAT     H150894   7.608   8.583   5.908
16884WAT     H250895   7.532   8.727   5.912
16885WAT      O50896   0.313   7.703   5.289
16885WAT     H150897   0.312   7.614   5.333
16885WAT     H250898   0.269   7.696   5.199
16886WAT      O50899   9.131   1.508   0.966
16886WAT     H150900   9.051   1.477   0.914
16886WAT     H250901   9.113   1.598   1.004
16887WAT      O50902   2.719   8.836   0.599
16887WAT     H150903   2.673   8.915   0.558
16887WAT     H250904   2.754   8.777   0.527
16888WAT      O50905   7.497   0.361   2.204
16888WAT     H150906   7.482   0.338   2.301
16888WAT     H250907   7.548   0.287   2.160
16889WAT      O50908   2.253   5.352   2.929
16889WAT     H150909   2.188   5.296   2.877
16889WAT     H250910   2.226   5.355   3.025
16890WAT      O50911   6.806   5.677   2.589
16890WAT     H150912   6.787   5.589   2.632
16890WAT     H250913   6.835   5.743   2.658
16891WAT      O50914   1.984   7.802   7.182
16891WAT     H150915   2.067   7.756   7.153
16891WAT     H250916   1.957   7.768   7.272
16892WAT      O50917   8.847   0.160   5.529
16892WAT     H150918   8.889   0.069   5.537
16892WAT     H250919   8.865   0.197   5.438
16893WAT      O50920   6.304   5.520   6.111
16893WAT     H150921   6.209   5.509   6.139
16893WAT     H250922   6.360   5.451   6.157
16894WAT      O50923   1.222   7.830   2.716
16894WAT     H150924   1.205   7.768   2.793
16894WAT     H250925   1.245   7.776   2.635
16895WAT      O50926   7.717   2.680   3.379
16895WAT     H150927   7.815   2.662   3.378
16895WAT     H250928   7.698   2.758   3.319
16896WAT      O50929   9.024   6.336   3.183
16896WAT     H150930   9.064   6.382   3.262
16896WAT     H250931   9.065   6.246   3.173
16897WAT      O50932   8.687   8.604   4.257
16897WAT     H150933   8.593   8.636   4.244
16897WAT     H250934   8.700   8.517   4.209
16898WAT      O50935   3.111   8.868   4.286
16898WAT     H150936   3.121   8.884   4.188
16898WAT     H250937   3.129   8.772   4.307
16899WAT      O50938   7.650   2.052   8.120
16899WAT     H150939   7.557   2.087   8.126
16899WAT     H250940   7.692   2.083   8.034
16900WAT      O50941   2.378   0.821   1.821
16900WAT     H150942   2.349   0.905   1.865
16900WAT     H250943   2.303   0.754   1.823
16901WAT      O50944   7.843   3.410   4.541
16901WAT     H150945   7.839   3.337   4.473
16901WAT     H250946   7.855   3.498   4.496
16902WAT      O50947   9.112   4.504   0.788
16902WAT     H150948   9.132   4.601   0.772
16902WAT     H250949   9.187   4.448   0.754
16903WAT      O50950   3.808   6.281   6.689
16903WAT     H150951   3.798   6.365   6.636
16903WAT     H250952   3.720   6.256   6.729
16904WAT      O50953   7.494   9.264   2.836
16904WAT     H150954   7.539   9.231   2.919
16904WAT     H250955   7.534   9.351   2.809
16905WAT      O50956   5.099   6.339   0.440
16905WAT     H150957   5.005   6.360   0.464
16905WAT     H250958   5.145   6.298   0.519
16906WAT      O50959   5.814   7.860   7.511
16906WAT     H150960   5.826   7.762   7.494
16906WAT     H250961   5.740   7.895   7.454
16907WAT      O50962   2.050   1.845   4.922
16907WAT     H150963   2.082   1.865   4.829
16907WAT     H250964   2.033   1.931   4.970
16908WAT      O50965   3.902   4.817   4.750
16908WAT     H150966   3.876   4.912   4.763
16908WAT     H250967   3.961   4.787   4.825
16909WAT      O50968   5.590   9.621   3.368
16909WAT     H150969   5.546   9.532   3.383
16909WAT     H250970   5.637   9.650   3.452
16910WAT      O50971   6.435   7.334   2.798
16910WAT     H150972   6.426   7.317   2.700
16910WAT     H250973   6.368   7.278   2.847
16911WAT      O50974   6.752   7.468   8.975
16911WAT     H150975   6.685   7.444   9.045
16911WAT     H250976   6.707   7.475   8.887
16912WAT      O50977   8.811   7.424   1.137
16912WAT     H150978   8.788   7.327   1.137
16912WAT     H250979   8.911   7.434   1.145
16913WAT      O50980   9.816   8.431   1.212
16913WAT     H150981   9.799   8.364   1.139
16913WAT     H250982   9.884   8.497   1.181
16914WAT      O50983   0.012   2.512   4.753
16914WAT     H150984   0.056   2.581   4.811
16914WAT     H250985  -0.017   2.435   4.809
16915WAT      O50986   9.297   1.338   1.110
16915WAT     H150987   9.246   1.318   1.193
16915WAT     H250988   9.243   1.399   1.052
16916WAT      O50989   4.199   6.942   2.725
16916WAT     H150990   4.201   6.985   2.634
16916WAT     H250991   4.237   6.850   2.718
16917WAT      O50992   7.969   7.008   9.032
16917WAT     H150993   7.912   6.972   9.106
16917WAT     H250994   7.924   7.088   8.991
16918WAT      O50995   4.905   3.163   6.392
16918WAT     H150996   4.911   3.183   6.490
16918WAT     H250997   4.993   3.179   6.349
16919WAT      O50998   8.959   3.970   8.062
16919WAT     H150999   8.885   4.036   8.068
16919WAT     H251000   8.981   3.936   8.154
16920WAT      O51001   7.946   7.941   0.087
16920WAT     H151002   8.026   7.981   0.043
16920WAT     H251003   7.932   7.983   0.176
16921WAT      O51004   1.028   2.758   1.802
16921WAT     H151005   1.041   2.804   1.714
16921WAT     H251006   0.931   2.764   1.828
16922WAT      O51007   6.865   1.285   2.035
16922WAT     H151008   6.813   1.212   2.080
16922WAT     H251009   6.806   1.365   2.022
16923WAT      O51010   0.959   1.540   4.117
16923WAT     H151011   0.948   1.463   4.180
16923WAT     H251012   0.952   1.508   4.023
16924WAT      O51013   8.059   5.435   9.885
16924WAT     H151014   8.040   5.501   9.812
16924WAT     H251015   7.979   5.429   9.945
16925WAT      O51016   7.949   8.019   8.138
16925WAT     H151017   8.032   8.055   8.179
16925WAT     H251018   7.926   7.932   8.181
16926WAT      O51019   8.921   3.697   5.153
16926WAT     H151020   8.942   3.643   5.235
16926WAT     H251021   8.836   3.664   5.112
16927WAT      O51022   9.190   5.483   1.650
16927WAT     H151023   9.161   5.455   1.742
16927WAT     H251024   9.253   5.560   1.657
16928WAT      O51025   0.307   0.295   1.153
16928WAT     H151026   0.343   0.385   1.180
16928WAT     H251027   0.248   0.305   1.074
16929WAT      O51028   1.172   0.820   7.538
16929WAT     H151029   1.183   0.916   7.563
16929WAT     H251030   1.234   0.797   7.463
16930WAT      O51031   3.774   0.772   3.116
16930WAT     H151032   3.833   0.844   3.081
16930WAT     H251033   3.749   0.792   3.211
16931WAT      O51034   2.144   7.667   9.384
16931WAT     H151035   2.204   7.654   9.306
16931WAT     H251036   2.198   7.693   9.464
16932WAT      O51037   5.475   0.258   5.839
16932WAT     H151038   5.376   0.256   5.853
16932WAT     H251039   5.517   0.183   5.890
16933WAT      O51040   5.446   2.369   8.274
16933WAT     H151041   5.428   2.362   8.176
16933WAT     H251042   5.469   2.464   8.297
16934WAT      O51043   1.354   0.286   2.091
16934WAT     H151044   1.372   0.201   2.041
16934WAT     H251045   1.256   0.308   2.086
16935WAT      O51046   9.592   0.096   0.996
16935WAT     H151047   9.604   0.146   0.910
16935WAT     H251048   9.665   0.027   1.005
16936WAT      O51049   4.870   1.867   2.847
16936WAT     H151050   4.800   1.924   2.805
16936WAT     H251051   4.906   1.803   2.778
16937WAT      O51052   6.101   4.789   2.891
16937WAT     H151053   6.048   4.864   2.851
16937WAT     H251054   6.086   4.706   2.838
16938WAT      O51055   7.772   4.944   8.409
16938WAT     H151056   7.828   4.881   8.354
16938WAT     H251057   7.817   5.033   8.414
16939WAT      O51058   3.450   1.176   7.391
16939WAT     H151059   3.445   1.238   7.469
16939WAT     H251060   3.475   1.084   7.423
16940WAT      O51061   2.603   9.521   4.835
16940WAT     H151062   2.593   9.582   4.913
16940WAT     H251063   2.700   9.515   4.810
16941WAT      O51064   7.349   1.905   7.282
16941WAT     H151065   7.448   1.901   7.263
16941WAT     H251066   7.300   1.850   7.214
16942WAT      O51067   3.525   1.702   3.075
16942WAT     H151068   3.574   1.760   3.009
16942WAT     H251069   3.580   1.694   3.158
16943WAT      O51070   6.478   9.737   8.122
16943WAT     H151071   6.380   9.740   8.100
16943WAT     H251072   6.524   9.678   8.056
16944WAT      O51073   8.853   3.283   3.096
16944WAT     H151074   8.949   3.310   3.092
16944WAT     H251075   8.836   3.211   3.028
16945WAT      O51076   1.750   1.693   1.633
16945WAT     H151077   1.656   1.724   1.615
16945WAT     H251078   1.754   1.651   1.723
16946WAT      O51079   6.029   5.058   9.699
16946WAT     H151080   6.052   5.118   9.775
16946WAT     H251081   6.029   4.963   9.730
16947WAT      O51082   9.732   5.213   8.907
16947WAT     H151083   9.655   5.185   8.851
16947WAT     H251084   9.795   5.136   8.918
16948WAT      O51085   2.219   3.828   7.599
16948WAT     H151086   2.273   3.909   7.619
16948WAT     H251087   2.238   3.797   7.506
16949WAT      O51088   3.040   7.179   1.383
16949WAT     H151089   2.987   7.256   1.420
16949WAT     H251090   3.080   7.206   1.295
16950WAT      O51091   8.197   5.847   3.505
16950WAT     H151092   8.236   5.871   3.594
16950WAT     H251093   8.119   5.786   3.518
16951WAT      O51094   6.692   4.976   6.477
16951WAT     H151095   6.744   4.892   6.457
16951WAT     H251096   6.616   4.983   6.412
16952WAT      O51097   1.695   6.461   0.709
16952WAT     H151098   1.753   6.505   0.640
16952WAT     H251099   1.622   6.524   0.736
16953WAT      O51100   9.041   4.294   6.581
16953WAT     H151101   9.108   4.356   6.622
16953WAT     H251102   8.963   4.284   6.642
16954WAT      O51103   3.233   7.649   4.051
16954WAT     H151104   3.285   7.574   4.011
16954WAT     H251105   3.262   7.735   4.010
16955WAT      O51106   0.725   2.022   4.348
16955WAT     H151107   0.768   2.110   4.329
16955WAT     H251108   0.785   1.948   4.316
16956WAT      O51109   4.203   8.861   7.186
16956WAT     H151110   4.270   8.802   7.142
16956WAT     H251111   4.138   8.806   7.238
16957WAT      O51112   6.359   2.264   8.591
16957WAT     H151113   6.323   2.320   8.666
16957WAT     H251114   6.284   2.242   8.528
16958WAT      O51115   0.170   3.415   5.406
16958WAT     H151116   0.253   3.361   5.420
16958WAT     H251117   0.127   3.389   5.319
16959WAT      O51118   6.131   2.936   5.513
16959WAT     H151119   6.208   2.942   5.576
16959WAT     H251120   6.049   2.907   5.564
16960WAT      O51121   4.776   5.159   9.093
16960WAT     H151122   4.785   5.170   8.994
16960WAT     H251123   4.760   5.063   9.115
16961WAT      O51124   9.415   5.631   1.587
16961WAT     H151125   9.492   5.654   1.527
16961WAT     H251126   9.432   5.544   1.632
16962WAT      O51127   7.350   1.584   2.393
16962WAT     H151128   7.376   1.612   2.486
16962WAT     H251129   7.253   1.605   2.379
16963WAT      O51130   3.063   8.252   9.579
16963WAT     H151131   3.102   8.277   9.490
16963WAT     H251132   3.006   8.170   9.568
16964WAT      O51133   6.313   4.242   4.356
16964WAT     H151134   6.217   4.215   4.364
16964WAT     H251135   6.330   4.277   4.263
16965WAT      O51136   8.581   0.318   1.165
16965WAT     H151137   8.546   0.336   1.073
16965WAT     H251138   8.663   0.373   1.181
16966WAT      O51139   2.912   5.817   8.698
16966WAT     H151140   2.997   5.775   8.731
16966WAT     H251141   2.931   5.870   8.615
16967WAT      O51142   6.231   8.895   6.939
16967WAT     H151143   6.175   8.977   6.951
16967WAT     H251144   6.223   8.862   6.845
16968WAT      O51145   0.380   1.551   1.964
16968WAT     H151146   0.366   1.582   1.870
16968WAT     H251147   0.477   1.557   1.988
16969WAT      O51148   9.849   5.553   6.892
16969WAT     H151149   9.766   5.497   6.884
16969WAT     H251150   9.893   5.560   6.802
16970WAT      O51151   7.343   4.406   8.515
16970WAT     H151152   7.377   4.311   8.516
16970WAT     H251153   7.403   4.462   8.459
16971WAT      O51154   8.865   4.260   7.817
16971WAT     H151155   8.859   4.273   7.915
16971WAT     H251156   8.961   4.243   7.791
16972WAT      O51157   4.034   3.805   6.494
16972WAT     H151158   3.981   3.837   6.415
16972WAT     H251159   4.076   3.717   6.473
16973WAT      O51160   9.040   5.599   1.170
16973WAT     H151161   8.941   5.615   1.177
16973WAT     H251162   9.069   5.539   1.245
16974WAT      O51163   1.404   4.639   1.959
16974WAT     H151164   1.380   4.654   1.863
16974WAT     H251165   1.458   4.555   1.967
16975WAT      O51166   3.402   4.119   3.090
16975WAT     H151167   3.380   4.137   2.995
16975WAT     H251168   3.494   4.081   3.096
16976WAT      O51169   6.410   3.601   1.569
16976WAT     H151170   6.399   3.508   1.604
16976WAT     H251171   6.505   3.617   1.545
16977WAT      O51172   0.177   2.581   3.218
16977WAT     H151173   0.151   2.675   3.237
16977WAT     H251174   0.177   2.566   3.119
16978WAT      O51175   6.318   4.846   2.718
16978WAT     H151176   6.239   4.856   2.779
16978WAT     H251177   6.382   4.922   2.734
16979WAT      O51178   1.320   3.537   8.189
16979WAT     H151179   1.362   3.463   8.137
16979WAT     H251180   1.267   3.596   8.127
16980WAT      O51181   9.440   2.725   5.390
16980WAT     H151182   9.428   2.627   5.411
16980WAT     H251183   9.352   2.763   5.361
16981WAT      O51184   2.911   9.253   6.700
16981WAT     H151185   2.906   9.319   6.775
16981WAT     H251186   2.830   9.262   6.643
16982WAT      O51187   4.287   1.190   6.011
16982WAT     H151188   4.369   1.232   6.050
16982WAT     H251189   4.208   1.208   6.070
16983WAT      O51190   6.420   2.971   7.150
16983WAT     H151191   6.422   2.873   7.132
16983WAT     H251192   6.397   3.020   7.065
16984WAT      O51193   5.984   7.059   2.088
16984WAT     H151194   5.988   7.020   1.996
16984WAT     H251195   6.017   6.991   2.154
16985WAT      O51196   6.024   3.539   9.781
16985WAT     H151197   5.979   3.625   9.756
16985WAT     H251198   6.023   3.530   9.881
16986WAT      O51199   0.440   8.091   2.351
16986WAT     H151200   0.506   8.055   2.285
16986WAT     H251201   0.357   8.036   2.349
16987WAT      O51202   8.910   4.436   0.283
16987WAT     H151203   8.829   4.489   0.308
16987WAT     H251204   8.948   4.473   0.198
16988WAT      O51205   7.825   4.401   2.681
16988WAT     H151206   7.796   4.347   2.602
16988WAT     H251207   7.891   4.349   2.735
16989WAT      O51208   2.051   5.434   7.994
16989WAT     H151209   2.103   5.380   7.927
16989WAT     H251210   2.051   5.386   8.082
16990WAT      O51211   4.962   2.831   2.616
16990WAT     H151212   5.034   2.891   2.652
16990WAT     H251213   4.970   2.826   2.516
16991WAT      O51214   3.430   4.796   2.695
16991WAT     H151215   3.446   4.709   2.650
16991WAT     H251216   3.499   4.810   2.766
16992WAT      O51217   5.854   7.608   2.332
16992WAT     H151218   5.793   7.553   2.276
16992WAT     H251219   5.890   7.684   2.277
16993WAT      O51220   0.124   1.757   2.404
16993WAT     H151221   0.029   1.785   2.415
16993WAT     H251222   0.145   1.750   2.306
16994WAT      O51223   8.504   7.176   0.887
16994WAT     H151224   8.410   7.203   0.868
16994WAT     H251225   8.511   7.076   0.891
16995WAT      O51226   5.005   2.619   7.605
16995WAT     H151227   5.097   2.580   7.604
16995WAT     H251228   4.988   2.663   7.694
16996WAT      O51229   9.851   3.275   0.917
16996WAT     H151230   9.788   3.197   0.924
16996WAT     H251231   9.886   3.280   0.823
16997WAT      O51232   0.643   6.999   4.606
16997WAT     H151233   0.717   7.066   4.605
16997WAT     H251234   0.583   7.016   4.527
16998WAT      O51235   4.391   0.547   7.568
16998WAT     H151236   4.360   0.468   7.622
16998WAT     H251237   4.340   0.628   7.595
16999WAT      O51238   9.553   7.643   2.179
16999WAT     H151239   9.648   7.618   2.161
16999WAT     H251240   9.537   7.640   2.278
17000WAT      O51241   3.447   8.127   9.362
17000WAT     H151242   3.501   8.108   9.280
17000WAT     H251243   3.507   8.136   9.441
17001WAT      O51244   3.814   6.502   8.476
17001WAT     H151245   3.854   6.532   8.389
17001WAT     H251246   3.792   6.582   8.532
17002WAT      O51247   6.233   7.927   3.902
17002WAT     H151248   6.159   7.994   3.911
17002WAT     H251249   6.248   7.882   3.990
17003WAT      O51250   5.303   9.760   9.071
17003WAT     H151251   5.384   9.702   9.079
17003WAT     H251252   5.329   9.848   9.031
17004WAT      O51253   5.164   5.088   7.018
17004WAT     H151254   5.066   5.071   7.021
17004WAT     H251255   5.212   5.002   6.998
17005WAT      O51256   1.728   6.536   7.856
17005WAT     H151257   1.729   6.613   7.919
17005WAT     H251258   1.699   6.453   7.904
17006WAT      O51259   1.964   9.377   1.934
17006WAT     H151260   1.960   9.341   2.028
17006WAT     H251261   2.047   9.342   1.889
17007WAT      O51262   8.655   7.719   8.241
17007WAT     H151263   8.694   7.655   8.307
17007WAT     H251264   8.595   7.670   8.178
17008WAT      O51265   1.954   2.181   4.814
17008WAT     H151266   1.923   2.123   4.739
17008WAT     H251267   1.965   2.125   4.897
17009WAT      O51268   2.584   5.866   6.010
17009WAT     H151269   2.559   5.872   5.913
17009WAT     H251270   2.508   5.825   6.061
17010WAT      O51271   5.978   9.597   4.668
17010WAT     H151272   5.999   9.540   4.589
17010WAT     H251273   5.930   9.679   4.639
17011WAT      O51274   2.175   4.559   7.762
17011WAT     H151275   2.141   4.586   7.853
17011WAT     H251276   2.109   4.498   7.718
17012WAT      O51277   1.999   7.392   8.296
17012WAT     H151278   1.965   7.386   8.390
17012WAT     H251279   2.089   7.348   8.291
17013WAT      O51280   2.145   7.375   1.141
17013WAT     H151281   2.143   7.417   1.232
17013WAT     H251282   2.237   7.383   1.103
17014WAT      O51283   8.750   2.272   0.800
17014WAT     H151284   8.848   2.258   0.814
17014WAT     H251285   8.736   2.361   0.756
17015WAT      O51286   4.729   4.275   5.766
17015WAT     H151287   4.780   4.345   5.816
17015WAT     H251288   4.638   4.310   5.742
17016WAT      O51289   1.547   1.324   5.281
17016WAT     H151290   1.501   1.306   5.368
17016WAT     H251291   1.646   1.318   5.294
17017WAT      O51292   5.333   5.977   3.959
17017WAT     H151293   5.387   5.957   3.877
17017WAT     H251294   5.394   5.995   4.036
17018WAT      O51295   0.468   0.905   7.357
17018WAT     H151296   0.510   0.815   7.345
17018WAT     H251297   0.435   0.939   7.269
17019WAT      O51298   2.001   7.520   9.005
17019WAT     H151299   2.055   7.553   9.083
17019WAT     H251300   2.058   7.461   8.948
17020WAT      O51301   3.971   1.039   4.629
17020WAT     H151302   3.899   1.003   4.689
17020WAT     H251303   4.060   1.006   4.660
17021WAT      O51304   4.662   8.255   4.679
17021WAT     H151305   4.733   8.224   4.743
17021WAT     H251306   4.686   8.224   4.586
17022WAT      O51307   5.747   9.728   5.025
17022WAT     H151308   5.841   9.738   5.058
17022WAT     H251309   5.743   9.651   4.962
17023WAT      O51310   6.287   7.377   2.331
17023WAT     H151311   6.209   7.427   2.369
17023WAT     H251312   6.335   7.436   2.265
17024WAT      O51313   1.786   9.779   6.081
17024WAT     H151314   1.822   9.688   6.060
17024WAT     H251315   1.687   9.780   6.071
17025WAT      O51316   6.403   3.418   3.096
17025WAT     H151317   6.401   3.500   3.038
17025WAT     H251318   6.320   3.415   3.151
17026WAT      O51319   2.149   7.318   7.729
17026WAT     H151320   2.145   7.408   7.772
17026WAT     H251321   2.065   7.303   7.676
17027WAT      O51322   0.888   0.495   9.654
17027WAT     H151323   0.894   0.442   9.570
17027WAT     H251324   0.827   0.573   9.641
17028WAT      O51325   1.185   5.088   0.200
17028WAT     H151326   1.285   5.088   0.206
17028WAT     H251327   1.156   5.133   0.116
17029WAT      O51328   9.051   1.687   4.672
17029WAT     H151329   8.987   1.621   4.634
17029WAT     H251330   9.097   1.647   4.752
17030WAT      O51331   5.816   6.961   0.991
17030WAT     H151332   5.748   6.911   1.044
17030WAT     H251333   5.779   6.981   0.900
17031WAT      O51334   2.327   4.758   9.188
17031WAT     H151335   2.260   4.821   9.150
17031WAT     H251336   2.305   4.664   9.161
17032WAT      O51337   9.613   7.324   1.086
17032WAT     H151338   9.670   7.253   1.128
17032WAT     H251339   9.672   7.391   1.041
17033WAT      O51340   7.280   6.585   8.955
17033WAT     H151341   7.239   6.519   9.018
17033WAT     H251342   7.349   6.639   9.003
17034WAT      O51343   3.027   0.641   3.144
17034WAT     H151344   3.075   0.675   3.063
17034WAT     H251345   3.059   0.548   3.164
17035WAT      O51346   1.478   6.517   0.992
17035WAT     H151347   1.538   6.588   0.955
17035WAT     H251348   1.533   6.437   1.017
17036WAT      O51349   3.021   3.675   1.699
17036WAT     H151350   3.020   3.763   1.651
17036WAT     H251351   3.103   3.668   1.755
17037WAT      O51352   8.078   4.391   6.387
17037WAT     H151353   8.089   4.357   6.481
17037WAT     H251354   7.983   4.422   6.374
17038WAT      O51355   6.353   4.546   5.883
17038WAT     H151356   6.429   4.608   5.903
17038WAT     H251357   6.278   4.598   5.842
17039WAT      O51358   6.632   2.011   9.888
17039WAT     H151359   6.633   1.990   9.790
17039WAT     H251360   6.707   2.074   9.909
17040WAT      O51361   8.207   8.051   0.197
17040WAT     H151362   8.302   8.021   0.203
17040WAT     H251363   8.180   8.055   0.101
17041WAT      O51364   3.940   0.144   9.578
17041WAT     H151365   3.924   0.092   9.494
17041WAT     H251366   4.001   0.093   9.638
17042WAT      O51367   1.378   7.998   5.786
17042WAT     H151368   1.394   8.064   5.860
17042WAT     H251369   1.382   8.045   5.698
17043WAT      O51370   4.579   0.047   8.113
17043WAT     H151371   4.521  -0.032   8.134
17043WAT     H251372   4.610   0.040   8.018
17044WAT      O51373   2.302   0.174   3.800
17044WAT     H151374   2.301   0.189   3.898
17044WAT     H251375   2.300   0.076   3.780
17045WAT      O51376   3.974   1.382   4.269
17045WAT     H151377   3.914   1.394   4.191
17045WAT     H251378   4.067   1.362   4.237
17046WAT      O51379   6.918   8.832   7.132
17046WAT     H151380   6.976   8.856   7.054
17046WAT     H251381   6.826   8.811   7.099
17047WAT      O51382   4.368   9.384   5.003
17047WAT     H151383   4.410   9.334   5.079
17047WAT     H251384   4.402   9.478   5.002
17048WAT      O51385   9.623   8.762   5.220
17048WAT     H151386   9.692   8.794   5.155
17048WAT     H251387   9.539   8.740   5.170
17049WAT      O51388   6.593   9.070   1.062
17049WAT     H151389   6.665   9.045   1.126
17049WAT     H251390   6.555   8.988   1.020
17050WAT      O51391   9.574   4.754   9.577
17050WAT     H151392   9.507   4.685   9.602
17050WAT     H251393   9.600   4.806   9.658
17051WAT      O51394   1.524   2.885   6.918
17051WAT     H151395   1.572   2.857   7.001
17051WAT     H251396   1.572   2.962   6.876
17052WAT      O51397   2.380   8.044   8.631
17052WAT     H151398   2.283   8.026   8.650
17052WAT     H251399   2.419   7.966   8.581
17053WAT      O51400   2.913   4.243   4.975
17053WAT     H151401   2.980   4.170   4.962
17053WAT     H251402   2.959   4.331   4.973
17054WAT      O51403   8.871   7.196   5.740
17054WAT     H151404   8.845   7.292   5.740
17054WAT     H251405   8.912   7.172   5.651
17055WAT      O51406   7.057   0.398   8.906
17055WAT     H151407   7.116   0.340   8.850
17055WAT     H251408   6.995   0.451   8.847
17056WAT      O51409   4.078   8.030   1.233
17056WAT     H151410   4.141   8.081   1.291
17056WAT     H251411   4.065   8.077   1.146
17057WAT      O51412   5.816   8.371   2.021
17057WAT     H151413   5.778   8.449   1.972
17057WAT     H251414   5.896   8.399   2.074
17058WAT      O51415   4.057   3.767   5.291
17058WAT     H151416   4.038   3.865   5.285
17058WAT     H251417   4.109   3.749   5.375
17059WAT      O51418   5.477   6.327   0.307
17059WAT     H151419   5.514   6.419   0.312
17059WAT     H251420   5.387   6.329   0.263
17060WAT      O51421   8.917   7.121   7.411
17060WAT     H151422   8.982   7.190   7.441
17060WAT     H251423   8.824   7.158   7.416
17061WAT      O51424   6.323   9.400   3.333
17061WAT     H151425   6.283   9.490   3.312
17061WAT     H251426   6.251   9.331   3.332
17062WAT      O51427   0.571   2.500   1.421
17062WAT     H151428   0.612   2.409   1.416
17062WAT     H251429   0.557   2.524   1.517
17063WAT      O51430   1.333   0.447   3.998
17063WAT     H151431   1.347   0.545   3.988
17063WAT     H251432   1.388   0.399   3.930
17064WAT      O51433   2.963   6.352   0.867
17064WAT     H151434   2.968   6.350   0.966
17064WAT     H251435   3.053   6.374   0.829
17065WAT      O51436   5.982   2.328   3.334
17065WAT     H151437   5.986   2.387   3.415
17065WAT     H251438   5.908   2.357   3.274
17066WAT      O51439   0.237   6.812   1.575
17066WAT     H151440   0.215   6.874   1.500
17066WAT     H251441   0.282   6.730   1.538
17067WAT      O51442   5.534   8.901   8.030
17067WAT     H151443   5.633   8.911   8.026
17067WAT     H251444   5.500   8.934   8.118
17068WAT      O51445   5.524   3.301   9.064
17068WAT     H151446   5.588   3.372   9.094
17068WAT     H251447   5.432   3.339   9.059
17069WAT      O51448   3.566   8.495   4.339
17069WAT     H151449   3.508   8.577   4.340
17069WAT     H251450   3.526   8.428   4.277
17070WAT      O51451   1.099   1.673   4.548
17070WAT     H151452   1.018   1.733   4.546
17070WAT     H251453   1.070   1.578   4.556
17071WAT      O51454   9.403   1.353   8.570
17071WAT     H151455   9.462   1.271   8.567
17071WAT     H251456   9.327   1.336   8.633
17072WAT      O51457   4.270   4.406   8.779
17072WAT     H151458   4.228   4.315   8.780
17072WAT     H251459   4.266   4.444   8.686
17073WAT      O51460   1.099   1.480   4.927
17073WAT     H151461   1.108   1.468   5.026
17073WAT     H251462   1.189   1.499   4.888
17074WAT      O51463   0.375   4.984   6.656
17074WAT     H151464   0.349   5.079   6.641
17074WAT     H251465   0.362   4.961   6.753
17075WAT      O51466   5.999   5.793   4.250
17075WAT     H151467   5.926   5.766   4.313
17075WAT     H251468   5.992   5.738   4.167
17076WAT      O51469   1.057   5.612   5.766
17076WAT     H151470   1.034   5.664   5.684
17076WAT     H251471   1.074   5.517   5.742
17077WAT      O51472   8.682   4.267   5.473
17077WAT     H151473   8.628   4.253   5.556
17077WAT     H251474   8.774   4.232   5.487
17078WAT      O51475   7.377   8.518   4.106
17078WAT     H151476   7.335   8.495   4.019
17078WAT     H251477   7.396   8.433   4.157
17079WAT      O51478   1.624   0.297   6.995
17079WAT     H151479   1.564   0.372   6.965
17079WAT     H251480   1.601   0.214   6.946
17080WAT      O51481   8.252   8.121   3.022
17080WAT     H151482   8.174   8.060   3.014
17080WAT     H251483   8.324   8.092   2.959
17081WAT      O51484   4.874   3.595   4.639
17081WAT     H151485   4.961   3.643   4.650
17081WAT     H251486   4.885   3.499   4.666
17082WAT      O51487   9.566   4.772   4.838
17082WAT     H151488   9.665   4.777   4.849
17082WAT     H251489   9.535   4.846   4.778
17083WAT      O51490   8.596   6.301   8.587
17083WAT     H151491   8.687   6.339   8.568
17083WAT     H251492   8.548   6.284   8.501
17084WAT      O51493   3.838   5.065   4.844
17084WAT     H151494   3.838   5.165   4.845
17084WAT     H251495   3.769   5.032   4.908
17085WAT      O51496   5.059   2.397   2.826
17085WAT     H151497   5.091   2.358   2.740
17085WAT     H251498   5.086   2.493   2.831
17086WAT      O51499   4.542   6.526   3.731
17086WAT     H151500   4.591   6.475   3.802
17086WAT     H251501   4.608   6.559   3.663
17087WAT      O51502   3.866   3.684   2.806
17087WAT     H151503   3.953   3.683   2.758
17087WAT     H251504   3.799   3.628   2.755
17088WAT      O51505   4.790   5.375   0.966
17088WAT     H151506   4.755   5.301   0.908
17088WAT     H251507   4.814   5.338   1.056
17089WAT      O51508   3.288   0.096   1.670
17089WAT     H151509   3.273   0.168   1.603
17089WAT     H251510   3.358   0.125   1.735
17090WAT      O51511   7.084   6.767   5.570
17090WAT     H151512   7.108   6.747   5.665
17090WAT     H251513   7.083   6.866   5.556
17091WAT      O51514   8.672   3.361   3.588
17091WAT     H151515   8.611   3.348   3.510
17091WAT     H251516   8.655   3.450   3.630
17092WAT      O51517   2.728   0.916   6.794
17092WAT     H151518   2.754   0.998   6.845
17092WAT     H251519   2.805   0.885   6.738
17093WAT      O51520   1.788   7.974   2.768
17093WAT     H151521   1.821   8.026   2.847
17093WAT     H251522   1.823   7.881   2.772
17094WAT      O51523   3.636   1.661   8.314
17094WAT     H151524   3.717   1.607   8.290
17094WAT     H251525   3.557   1.600   8.325
17095WAT      O51526   2.940   0.968   0.481
17095WAT     H151527   2.942   1.063   0.513
17095WAT     H251528   2.966   0.907   0.555
17096WAT      O51529   8.411   6.172   5.774
17096WAT     H151530   8.485   6.111   5.745
17096WAT     H251531   8.429   6.264   5.738
17097WAT      O51532   7.823   8.498   2.017
17097WAT     H151533   7.778   8.520   1.931
17097WAT     H251534   7.904   8.443   2.000
17098WAT      O51535   0.550   0.407   1.012
17098WAT     H151536   0.496   0.477   1.059
17098WAT     H251537   0.599   0.352   1.080
17099WAT      O51538   8.206   1.312   1.260
17099WAT     H151539   8.239   1.406   1.270
17099WAT     H251540   8.197   1.270   1.350
17100WAT      O51541   2.915   7.474   1.865
17100WAT     H151542   2.998   7.455   1.917
17100WAT     H251543   2.843   7.410   1.892
17101WAT      O51544   7.303   8.519   8.917
17101WAT     H151545   7.392   8.552   8.887
17101WAT     H251546   7.260   8.466   8.844
17102WAT      O51547   4.059   7.733   4.717
17102WAT     H151548   4.152   7.697   4.704
17102WAT     H251549   3.995   7.681   4.661
17103WAT      O51550   6.505   6.114   7.909
17103WAT     H151551   6.524   6.133   7.813
17103WAT     H251552   6.472   6.020   7.918
17104WAT      O51553   3.152   5.843   2.255
17104WAT     H151554   3.103   5.808   2.335
17104WAT     H251555   3.161   5.943   2.263
17105WAT      O51556   0.396   5.874   6.828
17105WAT     H151557   0.420   5.820   6.909
17105WAT     H251558   0.323   5.939   6.851
17106WAT      O51559   9.462   4.319   5.077
17106WAT     H151560   9.531   4.362   5.018
17106WAT     H251561   9.485   4.223   5.091
17107WAT      O51562   6.757   4.758   0.063
17107WAT     H151563   6.723   4.829   0.124
17107WAT     H251564   6.681   4.701   0.033
17108WAT      O51565   7.688   8.624   0.833
17108WAT     H151566   7.677   8.677   0.749
17108WAT     H251567   7.665   8.529   0.816
17109WAT      O51568   6.767   1.374   2.612
17109WAT     H151569   6.735   1.418   2.528
17109WAT     H251570   6.837   1.306   2.590
17110WAT      O51571   3.850   1.933   7.060
17110WAT     H151572   3.870   1.846   7.014
17110WAT     H251573   3.772   1.922   7.121
17111WAT      O51574   4.472   3.733   6.589
17111WAT     H151575   4.479   3.829   6.617
17111WAT     H251576   4.537   3.679   6.642
17112WAT      O51577   1.141   7.316   6.326
17112WAT     H151578   1.099   7.405   6.306
17112WAT     H251579   1.111   7.249   6.258
17113WAT      O51580   4.505   6.235   7.307
17113WAT     H151581   4.484   6.174   7.230
17113WAT     H251582   4.515   6.329   7.273
17114WAT      O51583   1.949   4.180   3.885
17114WAT     H151584   1.871   4.170   3.822
17114WAT     H251585   1.921   4.155   3.977
17115WAT      O51586   5.339   7.049   5.186
17115WAT     H151587   5.325   6.996   5.270
17115WAT     H251588   5.364   6.987   5.112
17116WAT      O51589   1.426   1.890   6.152
17116WAT     H151590   1.351   1.853   6.208
17116WAT     H251591   1.511   1.887   6.204
17117WAT      O51592   8.037   4.810   9.782
17117WAT     H151593   7.993   4.875   9.720
17117WAT     H251594   7.969   4.743   9.813
17118WAT      O51595   8.081   9.458   1.141
17118WAT     H151596   8.151   9.515   1.097
17118WAT     H251597   8.022   9.516   1.198
17119WAT      O51598   5.229   1.071   5.604
17119WAT     H151599   5.215   0.972   5.607
17119WAT     H251600   5.145   1.116   5.575
17120WAT      O51601   4.285   4.642   9.875
17120WAT     H151602   4.326   4.649   9.784
17120WAT     H251603   4.186   4.649   9.868
17121WAT      O51604   4.335   0.398   9.726
17121WAT     H151605   4.368   0.305   9.716
17121WAT     H251606   4.270   0.419   9.654
17122WAT      O51607   2.416   7.620   9.845
17122WAT     H151608   2.511   7.637   9.819
17122WAT     H251609   2.378   7.547   9.788
17123WAT      O51610   5.526   5.032   9.316
17123WAT     H151611   5.568   5.109   9.365
17123WAT     H251612   5.503   4.960   9.382
17124WAT      O51613   6.593   6.646   4.013
17124WAT     H151614   6.576   6.548   4.026
17124WAT     H251615   6.650   6.658   3.931
17125WAT      O51616   1.587   1.598   0.918
17125WAT     H151617   1.580   1.671   0.986
17125WAT     H251618   1.495   1.566   0.895
17126WAT      O51619   8.529   4.255   1.955
17126WAT     H151620   8.549   4.250   2.053
17126WAT     H251621   8.606   4.217   1.903
17127WAT      O51622   6.515   3.923   1.667
17127WAT     H151623   6.565   3.950   1.585
17127WAT     H251624   6.480   4.005   1.714
17128WAT      O51625   2.127   8.363   6.620
17128WAT     H151626   2.129   8.325   6.527
17128WAT     H251627   2.101   8.291   6.685
17129WAT      O51628   5.905   1.306   3.372
17129WAT     H151629   5.895   1.362   3.290
17129WAT     H251630   6.002   1.283   3.385
17130WAT      O51631   3.721   9.413   3.533
17130WAT     H151632   3.695   9.501   3.571
17130WAT     H251633   3.652   9.344   3.556
17131WAT      O51634   0.226   1.497   2.376
17131WAT     H151635   0.212   1.587   2.418
17131WAT     H251636   0.322   1.472   2.382
17132WAT      O51637   1.962   2.862   5.015
17132WAT     H151638   2.015   2.798   4.959
17132WAT     H251639   1.881   2.891   4.964
17133WAT      O51640   8.717   9.043   9.023
17133WAT     H151641   8.627   9.001   9.011
17133WAT     H251642   8.718   9.133   8.979
17134WAT      O51643   8.787   7.657   9.821
17134WAT     H151644   8.752   7.718   9.750
17134WAT     H251645   8.849   7.707   9.881
17135WAT      O51646   0.830   4.018   9.797
17135WAT     H151647   0.865   3.948   9.859
17135WAT     H251648   0.860   4.108   9.829
17136WAT      O51649   7.649   7.410   6.100
17136WAT     H151650   7.656   7.407   6.199
17136WAT     H251651   7.665   7.318   6.063
17137WAT      O51652   9.344   7.663   3.863
17137WAT     H151653   9.375   7.744   3.913
17137WAT     H251654   9.273   7.616   3.915
17138WAT      O51655   1.275   6.349   8.660
17138WAT     H151656   1.366   6.374   8.692
17138WAT     H251657   1.262   6.383   8.567
17139WAT      O51658   7.009   0.167   4.718
17139WAT     H151659   6.962   0.093   4.767
17139WAT     H251660   6.996   0.155   4.619
17140WAT      O51661   5.757   3.086   3.999
17140WAT     H151662   5.742   3.027   3.920
17140WAT     H251663   5.801   3.171   3.969
17141WAT      O51664   0.965   6.165   1.801
17141WAT     H151665   1.043   6.219   1.769
17141WAT     H251666   0.980   6.136   1.896
17142WAT      O51667   2.473   7.681   7.602
17142WAT     H151668   2.495   7.607   7.665
17142WAT     H251669   2.386   7.722   7.627
17143WAT      O51670   9.528   6.345   7.202
17143WAT     H151671   9.435   6.377   7.220
17143WAT     H251672   9.526   6.246   7.184
17144WAT      O51673   3.630   1.985   1.034
17144WAT     H151674   3.632   1.886   1.048
17144WAT     H251675   3.602   2.030   1.118
17145WAT      O51676   0.037   3.108   4.373
17145WAT     H151677  -0.005   3.161   4.446
17145WAT     H251678  -0.032   3.082   4.305
17146WAT      O51679   0.194   1.279   0.515
17146WAT     H151680   0.131   1.219   0.466
17146WAT     H251681   0.285   1.236   0.518
17147WAT      O51682   3.111   2.917   3.242
17147WAT     H151683   3.162   2.915   3.328
17147WAT     H251684   3.015   2.940   3.261
17148WAT      O51685   1.801   5.223   0.494
17148WAT     H151686   1.817   5.126   0.476
17148WAT     H251687   1.885   5.275   0.476
17149WAT      O51688   2.563   7.803   5.064
17149WAT     H151689   2.659   7.791   5.039
17149WAT     H251690   2.510   7.831   4.983
17150WAT      O51691   5.663   9.646   8.125
17150WAT     H151692   5.743   9.665   8.182
17150WAT     H251693   5.641   9.728   8.071
17151WAT      O51694   3.924   7.472   7.766
17151WAT     H151695   3.872   7.501   7.846
17151WAT     H251696   3.976   7.390   7.788
17152WAT      O51697   6.996   6.798   8.101
17152WAT     H151698   6.941   6.875   8.069
17152WAT     H251699   6.959   6.764   8.187
17153WAT      O51700   4.859   1.614   1.438
17153WAT     H151701   4.826   1.531   1.483
17153WAT     H251702   4.821   1.618   1.345
17154WAT      O51703   7.136   4.019   4.279
17154WAT     H151704   7.164   3.924   4.294
17154WAT     H251705   7.050   4.021   4.229
17155WAT      O51706   8.674   0.448   8.583
17155WAT     H151707   8.654   0.475   8.489
17155WAT     H251708   8.631   0.514   8.646
17156WAT      O51709   9.458   0.452   5.799
17156WAT     H151710   9.555   0.472   5.817
17156WAT     H251711   9.444   0.447   5.700
17157WAT      O51712   1.617   6.050   3.785
17157WAT     H151713   1.677   6.130   3.781
17157WAT     H251714   1.635   5.999   3.868
17158WAT      O51715   4.119   7.478   0.384
17158WAT     H151716   4.089   7.417   0.310
17158WAT     H251717   4.086   7.443   0.472
17159WAT      O51718   9.377   0.330   1.010
17159WAT     H151719   9.465   0.283   1.011
17159WAT     H251720   9.320   0.294   0.936
17160WAT      O51721   4.423   9.378   1.458
17160WAT     H151722   4.415   9.451   1.526
17160WAT     H251723   4.336   9.328   1.453
17161WAT      O51724   0.043   5.734   9.139
17161WAT     H151725   0.080   5.657   9.087
17161WAT     H251726  -0.019   5.700   9.210
17162WAT      O51727   3.275   0.886   1.844
17162WAT     H151728   3.320   0.942   1.776
17162WAT     H251729   3.329   0.884   1.928
17163WAT      O51730   1.597   3.342   1.078
17163WAT     H151731   1.656   3.335   0.998
17163WAT     H251732   1.588   3.438   1.104
17164WAT      O51733   5.618   5.566   0.914
17164WAT     H151734   5.663   5.591   1.000
17164WAT     H251735   5.685   5.524   0.852
17165WAT      O51736   3.849   6.584   7.841
17165WAT     H151737   3.926   6.644   7.818
17165WAT     H251738   3.882   6.505   7.891
17166WAT      O51739   5.622   3.217   8.373
17166WAT     H151740   5.592   3.125   8.348
17166WAT     H251741   5.542   3.277   8.382
17167WAT      O51742   7.016   4.255   0.718
17167WAT     H151743   7.045   4.334   0.774
17167WAT     H251744   6.987   4.181   0.778
17168WAT      O51745   7.364   6.318   3.488
17168WAT     H151746   7.371   6.381   3.565
17168WAT     H251747   7.436   6.337   3.422
17169WAT      O51748   4.169   2.646   8.678
17169WAT     H151749   4.210   2.736   8.668
17169WAT     H251750   4.126   2.618   8.592
17170WAT      O51751   9.508   7.794   0.612
17170WAT     H151752   9.412   7.813   0.636
17170WAT     H251753   9.511   7.738   0.529
17171WAT      O51754   8.408   6.393   4.982
17171WAT     H151755   8.506   6.393   5.004
17171WAT     H251756   8.360   6.331   5.045
17172WAT      O51757   1.747   1.676   0.704
17172WAT     H151758   1.834   1.626   0.697
17172WAT     H251759   1.686   1.629   0.767
17173WAT      O51760   1.605   1.042   7.819
17173WAT     H151761   1.658   0.958   7.810
17173WAT     H251762   1.594   1.063   7.916
17174WAT      O51763   1.725   8.955   1.648
17174WAT     H151764   1.625   8.956   1.647
17174WAT     H251765   1.757   8.883   1.709
17175WAT      O51766   0.445   9.734   0.030
17175WAT     H151767   0.424   9.827   0.002
17175WAT     H251768   0.361   9.680   0.035
17176WAT      O51769   9.459   1.301   8.878
17176WAT     H151770   9.438   1.280   8.974
17176WAT     H251771   9.373   1.317   8.829
17177WAT      O51772   6.879   1.358   5.400
17177WAT     H151773   6.794   1.315   5.369
17177WAT     H251774   6.923   1.299   5.468
17178WAT      O51775   4.098   6.862   5.691
17178WAT     H151776   4.054   6.952   5.686
17178WAT     H251777   4.050   6.805   5.757
17179WAT      O51778   4.260   5.756   6.589
17179WAT     H151779   4.357   5.773   6.605
17179WAT     H251780   4.207   5.832   6.626
17180WAT      O51781   0.610   1.038   5.834
17180WAT     H151782   0.560   1.122   5.816
17180WAT     H251783   0.704   1.060   5.861
17181WAT      O51784   7.068   7.289   6.117
17181WAT     H151785   7.110   7.340   6.042
17181WAT     H251786   7.119   7.204   6.132
17182WAT      O51787   1.675   2.426   3.718
17182WAT     H151788   1.703   2.521   3.702
17182WAT     H251789   1.612   2.422   3.795
17183WAT      O51790   9.058   8.281   6.872
17183WAT     H151791   9.069   8.188   6.907
17183WAT     H251792   9.148   8.323   6.862
17184WAT      O51793   3.583   2.545   0.072
17184WAT     H151794   3.669   2.508   0.107
17184WAT     H251795   3.517   2.470   0.060
17185WAT      O51796   5.300   2.722   2.544
17185WAT     H151797   5.365   2.731   2.619
17185WAT     H251798   5.320   2.790   2.474
17186WAT      O51799   7.197   1.554   6.573
17186WAT     H151800   7.260   1.627   6.545
17186WAT     H251801   7.230   1.466   6.537
17187WAT      O51802   6.124   0.349   6.362
17187WAT     H151803   6.148   0.259   6.326
17187WAT     H251804   6.065   0.396   6.297
17188WAT      O51805   4.969   6.412   8.325
17188WAT     H151806   4.982   6.491   8.384
17188WAT     H251807   4.978   6.328   8.379
17189WAT      O51808   2.499   5.753   2.107
17189WAT     H151809   2.470   5.699   2.186
17189WAT     H251810   2.561   5.699   2.050
17190WAT      O51811   7.985   3.170   6.084
17190WAT     H151812   7.996   3.071   6.078
17190WAT     H251813   7.966   3.196   6.179
17191WAT      O51814   1.354   1.693   3.941
17191WAT     H151815   1.289   1.624   3.909
17191WAT     H251816   1.378   1.754   3.866
17192WAT      O51817   3.091   4.070   4.942
17192WAT     H151818   3.084   3.985   4.890
17192WAT     H251819   3.179   4.114   4.924
17193WAT      O51820   3.863   6.147   4.034
17193WAT     H151821   3.927   6.119   4.106
17193WAT     H251822   3.868   6.082   3.958
17194WAT      O51823   0.378   8.810   4.951
17194WAT     H151824   0.415   8.847   5.036
17194WAT     H251825   0.326   8.881   4.903
17195WAT      O51826   2.901   0.554   5.285
17195WAT     H151827   2.905   0.582   5.381
17195WAT     H251828   2.885   0.634   5.227
17196WAT      O51829   1.252   6.568   8.436
17196WAT     H151830   1.257   6.531   8.343
17196WAT     H251831   1.321   6.639   8.447
17197WAT      O51832   6.397   0.413   7.045
17197WAT     H151833   6.446   0.345   7.098
17197WAT     H251834   6.309   0.433   7.089
17198WAT      O51835   3.302   3.347   8.145
17198WAT     H151836   3.342   3.278   8.084
17198WAT     H251837   3.206   3.324   8.161
17199WAT      O51838   3.334   1.535   0.214
17199WAT     H151839   3.414   1.476   0.226
17199WAT     H251840   3.363   1.630   0.212
17200WAT      O51841   3.933   0.091   3.221
17200WAT     H151842   3.926   0.134   3.311
17200WAT     H251843   4.006   0.135   3.169
17201WAT      O51844   5.615   2.541   0.093
17201WAT     H151845   5.545   2.543   0.165
17201WAT     H251846   5.702   2.572   0.131
17202WAT      O51847   7.855   3.007   9.286
17202WAT     H151848   7.910   3.011   9.370
17202WAT     H251849   7.913   2.979   9.210
17203WAT      O51850   1.916   0.846   6.621
17203WAT     H151851   1.853   0.823   6.694
17203WAT     H251852   1.913   0.775   6.550
17204WAT      O51853   2.545   8.844   6.764
17204WAT     H151854   2.456   8.846   6.718
17204WAT     H251855   2.617   8.834   6.696
17205WAT      O51856   6.696   3.690   7.272
17205WAT     H151857   6.737   3.607   7.309
17205WAT     H251858   6.686   3.757   7.345
17206WAT      O51859   4.579   5.366   9.221
17206WAT     H151860   4.581   5.357   9.321
17206WAT     H251861   4.654   5.313   9.182
17207WAT      O51862   1.033   2.939   1.594
17207WAT     H151863   0.969   2.993   1.650
17207WAT     H251864   1.088   3.001   1.538
17208WAT      O51865   8.724   5.053   2.803
17208WAT     H151866   8.676   4.965   2.807
17208WAT     H251867   8.811   5.046   2.851
17209WAT      O51868   8.184   7.130   9.183
17209WAT     H151869   8.109   7.090   9.132
17209WAT     H251870   8.163   7.225   9.206
17210WAT      O51871   1.819   3.153   2.062
17210WAT     H151872   1.806   3.248   2.091
17210WAT     H251873   1.871   3.103   2.132
17211WAT      O51874   6.760   2.900   1.328
17211WAT     H151875   6.772   2.806   1.295
17211WAT     H251876   6.796   2.963   1.259
17212WAT      O51877   0.471   1.377   6.689
17212WAT     H151878   0.430   1.424   6.611
17212WAT     H251879   0.400   1.328   6.740
17213WAT      O51880   7.962   5.326   2.834
17213WAT     H151881   8.056   5.357   2.819
17213WAT     H251882   7.927   5.283   2.751
17214WAT      O51883   5.465   0.355   9.506
17214WAT     H151884   5.487   0.257   9.504
17214WAT     H251885   5.475   0.389   9.599
17215WAT      O51886   3.409   7.789   1.532
17215WAT     H151887   3.407   7.888   1.546
17215WAT     H251888   3.462   7.746   1.605
17216WAT      O51889   7.263   6.932   4.206
17216WAT     H151890   7.240   6.838   4.183
17216WAT     H251891   7.200   6.965   4.277
17217WAT      O51892   7.981   8.347   8.825
17217WAT     H151893   8.024   8.308   8.743
17217WAT     H251894   8.051   8.377   8.889
17218WAT      O51895   5.591   1.199   3.069
17218WAT     H151896   5.681   1.155   3.066
17218WAT     H251897   5.525   1.144   3.017
17219WAT      O51898   8.268   6.598   0.543
17219WAT     H151899   8.174   6.567   0.532
17219WAT     H251900   8.287   6.612   0.640
17220WAT      O51901   0.265   0.628   3.945
17220WAT     H151902   0.235   0.649   3.852
17220WAT     H251903   0.348   0.679   3.966
17221WAT      O51904   2.100   3.371   4.581
17221WAT     H151905   2.158   3.395   4.659
17221WAT     H251906   2.015   3.424   4.585
17222WAT      O51907   4.594   7.301   8.683
17222WAT     H151908   4.626   7.253   8.765
17222WAT     H251909   4.553   7.235   8.620
17223WAT      O51910   7.422   4.396   9.431
17223WAT     H151911   7.500   4.392   9.368
17223WAT     H251912   7.433   4.475   9.491
17224WAT      O51913   3.345   4.411   0.170
17224WAT     H151914   3.387   4.436   0.083
17224WAT     H251915   3.336   4.311   0.176
17225WAT      O51916   8.069   0.956   8.100
17225WAT     H151917   8.058   0.864   8.064
17225WAT     H251918   8.155   0.995   8.066
17226WAT      O51919   8.016   6.289   3.746
17226WAT     H151920   8.034   6.201   3.791
17226WAT     H251921   7.961   6.274   3.664
17227WAT      O51922   6.139   3.185   6.706
17227WAT     H151923   6.134   3.275   6.749
17227WAT     H251924   6.114   3.193   6.609
17228WAT      O51925   6.365   7.367   4.934
17228WAT     H151926   6.318   7.415   5.008
17228WAT     H251927   6.331   7.273   4.929
17229WAT      O51928   0.408   3.135   1.351
17229WAT     H151929   0.378   3.062   1.290
17229WAT     H251930   0.359   3.129   1.438
17230WAT      O51931   4.856   6.754   6.872
17230WAT     H151932   4.775   6.700   6.850
17230WAT     H251933   4.938   6.699   6.853
17231WAT      O51934   6.413   2.069   4.325
17231WAT     H151935   6.450   2.022   4.405
17231WAT     H251936   6.372   2.156   4.354
17232WAT      O51937   3.271   8.787   8.238
17232WAT     H151938   3.182   8.743   8.247
17232WAT     H251939   3.343   8.719   8.253
17233WAT      O51940   2.526   3.931   1.663
17233WAT     H151941   2.494   3.845   1.701
17233WAT     H251942   2.456   4.002   1.678
17234WAT      O51943   5.043   6.531   8.759
17234WAT     H151944   5.047   6.437   8.792
17234WAT     H251945   5.031   6.593   8.836
17235WAT      O51946   2.389   1.734   1.395
17235WAT     H151947   2.442   1.693   1.469
17235WAT     H251948   2.376   1.832   1.413
17236WAT      O51949   3.407   7.772   0.831
17236WAT     H151950   3.397   7.673   0.837
17236WAT     H251951   3.375   7.814   0.916
17237WAT      O51952   7.171   0.947   7.259
17237WAT     H151953   7.097   0.887   7.229
17237WAT     H251954   7.239   0.955   7.186
17238WAT      O51955   4.828   1.318   7.788
17238WAT     H151956   4.728   1.324   7.783
17238WAT     H251957   4.867   1.342   7.699
17239WAT      O51958   9.120   4.978   1.615
17239WAT     H151959   9.151   4.961   1.521
17239WAT     H251960   9.187   4.941   1.679
17240WAT      O51961   6.617   3.147   4.962
17240WAT     H151962   6.629   3.186   5.053
17240WAT     H251963   6.588   3.218   4.898
17241WAT      O51964   3.295   5.351   2.624
17241WAT     H151965   3.271   5.257   2.645
17241WAT     H251966   3.388   5.369   2.655
17242WAT      O51967   2.463   0.051   2.082
17242WAT     H151968   2.472  -0.011   2.161
17242WAT     H251969   2.418   0.003   2.007
17243WAT      O51970   1.259   8.109   4.341
17243WAT     H151971   1.179   8.061   4.305
17243WAT     H251972   1.274   8.193   4.289
17244WAT      O51973   6.263   8.802   0.106
17244WAT     H151974   6.266   8.754   0.194
17244WAT     H251975   6.229   8.895   0.119
17245WAT      O51976   5.463   1.797   8.747
17245WAT     H151977   5.456   1.895   8.728
17245WAT     H251978   5.504   1.782   8.837
17246WAT      O51979   2.068   9.747   0.850
17246WAT     H151980   1.968   9.745   0.845
17246WAT     H251981   2.106   9.694   0.774
17247WAT      O51982   1.080   5.044   0.896
17247WAT     H151983   0.982   5.027   0.885
17247WAT     H251984   1.096   5.142   0.905
17248WAT      O51985   6.700   2.374   6.345
17248WAT     H151986   6.749   2.460   6.330
17248WAT     H251987   6.765   2.300   6.361
17249WAT      O51988   0.986   2.664   9.677
17249WAT     H151989   0.958   2.571   9.652
17249WAT     H251990   0.930   2.730   9.628
17250WAT      O51991   0.883   8.767   9.351
17250WAT     H151992   0.939   8.693   9.387
17250WAT     H251993   0.904   8.853   9.399
17251WAT      O51994   8.729   9.434   5.808
17251WAT     H151995   8.725   9.471   5.715
17251WAT     H251996   8.685   9.497   5.871
17252WAT      O51997   2.964   8.730   9.738
17252WAT     H151998   2.940   8.823   9.765
17252WAT     H251999   2.941   8.667   9.812
17253WAT      O52000   5.790   4.575   7.795
17253WAT     H152001   5.794   4.623   7.707
17253WAT     H252002   5.707   4.604   7.844
17254WAT      O52003   9.120   8.052   7.785
17254WAT     H152004   9.070   8.077   7.702
17254WAT     H252005   9.202   8.000   7.760
17255WAT      O52006   2.273   7.297   3.401
17255WAT     H152007   2.272   7.197   3.397
17255WAT     H252008   2.351   7.332   3.350
17256WAT      O52009   1.262   8.593   2.273
17256WAT     H152010   1.267   8.646   2.357
17256WAT     H252011   1.169   8.556   2.261
17257WAT      O52012   1.942   6.562   0.557
17257WAT     H152013   1.887   6.523   0.482
17257WAT     H252014   1.995   6.489   0.600
17258WAT      O52015   7.523   8.975   6.021
17258WAT     H152016   7.478   8.902   5.971
17258WAT     H252017   7.458   9.048   6.040
17259WAT      O52018   2.845   6.343   8.085
17259WAT     H152019   2.829   6.323   8.182
17259WAT     H252020   2.843   6.442   8.071
17260WAT      O52021   0.533   9.585   6.100
17260WAT     H152022   0.623   9.602   6.141
17260WAT     H252023   0.462   9.619   6.162
17261WAT      O52024   7.455   5.701   9.817
17261WAT     H152025   7.491   5.652   9.897
17261WAT     H252026   7.367   5.663   9.791
17262WAT      O52027   0.822   6.098   1.159
17262WAT     H152028   0.805   6.135   1.251
17262WAT     H252029   0.917   6.066   1.153
17263WAT      O52030   1.841   1.348   4.550
17263WAT     H152031   1.873   1.411   4.480
17263WAT     H252032   1.793   1.271   4.507
17264WAT      O52033   6.989   6.342   9.347
17264WAT     H152034   6.951   6.252   9.367
17264WAT     H252035   7.042   6.374   9.426
17265WAT      O52036   9.444   0.059   0.427
17265WAT     H152037   9.459   0.152   0.393
17265WAT     H252038   9.348   0.035   0.418
17266WAT      O52039   3.815   3.118   3.696
17266WAT     H152040   3.911   3.138   3.679
17266WAT     H252041   3.807   3.041   3.758
17267WAT      O52042   6.322   3.253   0.111
17267WAT     H152043   6.334   3.160   0.146
17267WAT     H252044   6.377   3.317   0.165
17268WAT      O52045   4.387   3.951   2.521
17268WAT     H152046   4.481   3.983   2.509
17268WAT     H252047   4.326   4.030   2.531
17269WAT      O52048   5.856   5.628   5.365
17269WAT     H152049   5.904   5.552   5.408
17269WAT     H252050   5.828   5.602   5.272
17270WAT      O52051   1.662   7.546   1.615
17270WAT     H152052   1.682   7.585   1.525
17270WAT     H252053   1.747   7.528   1.663
17271WAT      O52054   3.858   4.396   5.373
17271WAT     H152055   3.807   4.478   5.349
17271WAT     H252056   3.795   4.324   5.402
17272WAT      O52057   0.459   1.611   8.400
17272WAT     H152058   0.450   1.708   8.379
17272WAT     H252059   0.386   1.583   8.463
17273WAT      O52060   5.108   7.756   0.624
17273WAT     H152061   5.117   7.855   0.615
17273WAT     H252062   5.101   7.732   0.721
17274WAT      O52063   2.581   7.860   3.692
17274WAT     H152064   2.627   7.943   3.722
17274WAT     H252065   2.649   7.797   3.653
17275WAT      O52066   1.397   9.568   9.046
17275WAT     H152067   1.473   9.612   8.998
17275WAT     H252068   1.406   9.585   9.144
17276WAT      O52069   6.220   0.338   6.782
17276WAT     H152070   6.154   0.361   6.853
17276WAT     H252071   6.304   0.304   6.824
17277WAT      O52072   8.445   8.154   6.690
17277WAT     H152073   8.399   8.234   6.652
17277WAT     H252074   8.536   8.145   6.648
17278WAT      O52075   4.476   4.926   6.345
17278WAT     H152076   4.538   4.986   6.396
17278WAT     H252077   4.384   4.967   6.343
17279WAT      O52078   7.090   7.250   3.160
17279WAT     H152079   7.020   7.316   3.189
17279WAT     H252080   7.091   7.244   3.061
17280WAT      O52081   2.410   0.100   1.727
17280WAT     H152082   2.433   0.003   1.741
17280WAT     H252083   2.355   0.109   1.644
17281WAT      O52084   0.256   2.572   1.806
17281WAT     H152085   0.212   2.552   1.894
17281WAT     H252086   0.193   2.548   1.732
17282WAT      O52087   9.797   3.190   3.503
17282WAT     H152088   9.713   3.244   3.498
17282WAT     H252089   9.812   3.159   3.597
17283WAT      O52090   9.862   2.174   7.076
17283WAT     H152091   9.814   2.187   6.989
17283WAT     H252092   9.795   2.151   7.147
17284WAT      O52093   6.318   4.307   8.900
17284WAT     H152094   6.280   4.379   8.842
17284WAT     H252095   6.369   4.348   8.975
17285WAT      O52096   9.548   4.036   3.849
17285WAT     H152097   9.637   4.074   3.826
17285WAT     H252098   9.556   3.937   3.860
17286WAT      O52099   6.252   6.696   8.090
17286WAT     H152100   6.152   6.691   8.086
17286WAT     H252101   6.291   6.638   8.018
17287WAT      O52102   6.617   5.372   6.651
17287WAT     H152103   6.679   5.449   6.637
17287WAT     H252104   6.664   5.299   6.700
17288WAT      O52105   5.144   1.578   0.125
17288WAT     H152106   5.229   1.577   0.072
17288WAT     H252107   5.164   1.557   0.221
17289WAT      O52108   9.055   6.050   9.311
17289WAT     H152109   9.011   6.116   9.372
17289WAT     H252110   8.987   5.985   9.278
17290WAT      O52111   0.808   9.447   7.549
17290WAT     H152112   0.875   9.519   7.562
17290WAT     H252113   0.810   9.384   7.627
17291WAT      O52114   6.453   8.541   0.370
17291WAT     H152115   6.377   8.605   0.384
17291WAT     H252116   6.503   8.565   0.287
17292WAT      O52117   6.614   5.469   8.799
17292WAT     H152118   6.533   5.516   8.834
17292WAT     H252119   6.684   5.468   8.870
17293WAT      O52120   7.164   2.376   8.024
17293WAT     H152121   7.185   2.397   8.120
17293WAT     H252122   7.224   2.303   7.992
17294WAT      O52123   4.246   3.864   4.557
17294WAT     H152124   4.336   3.904   4.576
17294WAT     H252125   4.256   3.792   4.488
17295WAT      O52126   9.828   7.198   6.773
17295WAT     H152127   9.774   7.227   6.693
17295WAT     H252128   9.812   7.101   6.789
17296WAT      O52129   8.818   5.630   0.060
17296WAT     H152130   8.789   5.718   0.099
17296WAT     H252131   8.909   5.607   0.093
17297WAT      O52132   7.644   5.080   5.707
17297WAT     H152133   7.569   5.014   5.703
17297WAT     H252134   7.730   5.033   5.723
17298WAT      O52135   5.168   9.089   8.163
17298WAT     H152136   5.225   9.008   8.175
17298WAT     H252137   5.218   9.159   8.113
17299WAT      O52138   8.704   6.227   0.061
17299WAT     H152139   8.700   6.248   0.159
17299WAT     H252140   8.612   6.225   0.024
17300WAT      O52141   9.312   8.944   4.790
17300WAT     H152142   9.397   8.917   4.835
17300WAT     H252143   9.254   8.992   4.855
17301WAT      O52144   2.267   9.515   5.815
17301WAT     H152145   2.251   9.426   5.856
17301WAT     H252146   2.180   9.562   5.801
17302WAT      O52147   1.498   6.818   9.008
17302WAT     H152148   1.536   6.773   8.928
17302WAT     H252149   1.400   6.836   8.993
17303WAT      O52150   8.958   8.709   5.096
17303WAT     H152151   9.033   8.706   5.163
17303WAT     H252152   8.913   8.619   5.093
17304WAT      O52153   6.331   6.350   2.258
17304WAT     H152154   6.377   6.437   2.239
17304WAT     H252155   6.274   6.361   2.340
17305WAT      O52156   3.926   1.992   7.504
17305WAT     H152157   3.905   2.081   7.544
17305WAT     H252158   4.025   1.981   7.496
17306WAT      O52159   9.762   0.357   7.129
17306WAT     H152160   9.735   0.451   7.149
17306WAT     H252161   9.847   0.357   7.076
17307WAT      O52162   3.031   6.884   9.853
17307WAT     H152163   2.932   6.879   9.839
17307WAT     H252164   3.073   6.799   9.823
17308WAT      O52165   6.559   0.428   5.148
17308WAT     H152166   6.609   0.459   5.067
17308WAT     H252167   6.555   0.502   5.215
17309WAT      O52168   2.234   2.190   4.128
17309WAT     H152169   2.247   2.128   4.050
17309WAT     H252170   2.303   2.171   4.198
17310WAT      O52171   2.129   2.213   8.719
17310WAT     H152172   2.070   2.264   8.656
17310WAT     H252173   2.152   2.271   8.797
17311WAT      O52174   6.024   9.255   3.375
17311WAT     H152175   5.983   9.335   3.331
17311WAT     H252176   5.987   9.246   3.468
17312WAT      O52177   3.558   7.999   5.923
17312WAT     H152178   3.528   7.904   5.923
17312WAT     H252179   3.640   8.008   5.981
17313WAT      O52180   8.488   2.138   9.873
17313WAT     H152181   8.433   2.081   9.934
17313WAT     H252182   8.443   2.227   9.862
17314WAT      O52183   7.771   8.371   6.536
17314WAT     H152184   7.701   8.379   6.465
17314WAT     H252185   7.827   8.454   6.537
17315WAT      O52186   5.235   1.533   5.295
17315WAT     H152187   5.160   1.559   5.357
17315WAT     H252188   5.311   1.597   5.307
17316WAT      O52189   4.982   3.427   8.212
17316WAT     H152190   4.942   3.517   8.195
17316WAT     H252191   5.070   3.419   8.165
17317WAT      O52192   3.374   5.461   9.674
17317WAT     H152193   3.338   5.435   9.764
17317WAT     H252194   3.467   5.425   9.663
17318WAT      O52195   8.405   3.235   4.135
17318WAT     H152196   8.411   3.335   4.145
17318WAT     H252197   8.379   3.214   4.041
17319WAT      O52198   1.571   7.906   8.785
17319WAT     H152199   1.510   7.870   8.714
17319WAT     H252200   1.517   7.950   8.856
17320WAT      O52201   6.901   0.978   9.229
17320WAT     H152202   6.932   1.021   9.144
17320WAT     H252203   6.840   1.041   9.277
17321WAT      O52204   0.649   9.100   6.638
17321WAT     H152205   0.686   9.089   6.730
17321WAT     H252206   0.552   9.124   6.643
17322WAT      O52207   8.133   4.984   6.421
17322WAT     H152208   8.151   4.941   6.332
17322WAT     H252209   8.050   4.945   6.461
17323WAT      O52210   4.983   0.365   4.336
17323WAT     H152211   5.029   0.429   4.397
17323WAT     H252212   4.929   0.415   4.268
17324WAT      O52213   1.054   6.515   0.882
17324WAT     H152214   1.132   6.509   0.943
17324WAT     H252215   0.983   6.573   0.924
17325WAT      O52216   8.372   5.849   2.458
17325WAT     H152217   8.437   5.854   2.534
17325WAT     H252218   8.391   5.766   2.404
17326WAT      O52219   7.683   9.661   8.914
17326WAT     H152220   7.700   9.604   8.833
17326WAT     H252221   7.628   9.741   8.888
17327WAT      O52222   6.120   5.942   9.386
17327WAT     H152223   6.120   6.002   9.306
17327WAT     H252224   6.061   5.981   9.457
17328WAT      O52225   1.251   4.779   2.116
17328WAT     H152226   1.154   4.758   2.110
17328WAT     H252227   1.301   4.728   2.047
17329WAT      O52228   2.405   6.225   8.779
17329WAT     H152229   2.370   6.190   8.866
17329WAT     H252230   2.363   6.313   8.759
17330WAT      O52231   2.697   8.159   6.426
17330WAT     H152232   2.745   8.084   6.381
17330WAT     H252233   2.697   8.240   6.366
17331WAT      O52234   5.342   6.682   3.149
17331WAT     H152235   5.433   6.664   3.112
17331WAT     H252236   5.281   6.606   3.126
17332WAT      O52237   6.723   0.603   9.014
17332WAT     H152238   6.787   0.602   8.938
17332WAT     H252239   6.663   0.523   9.008
17333WAT      O52240   0.621   1.804   2.927
17333WAT     H152241   0.566   1.871   2.876
17333WAT     H252242   0.610   1.819   3.025
17334WAT      O52243   5.300   8.061   4.428
17334WAT     H152244   5.213   8.013   4.423
17334WAT     H252245   5.292   8.137   4.494
17335WAT      O52246   2.329   3.185   4.220
17335WAT     H152247   2.384   3.266   4.200
17335WAT     H252248   2.310   3.135   4.135
17336WAT      O52249   8.678   3.313   2.321
17336WAT     H152250   8.649   3.312   2.225
17336WAT     H252251   8.624   3.382   2.370
17337WAT      O52252   6.545   4.429   7.900
17337WAT     H152253   6.633   4.449   7.856
17337WAT     H252254   6.499   4.354   7.852
17338WAT      O52255   0.360   1.808   9.703
17338WAT     H152256   0.278   1.823   9.648
17338WAT     H252257   0.365   1.711   9.730
17339WAT      O52258   5.475   8.661   7.789
17339WAT     H152259   5.570   8.630   7.792
17339WAT     H252260   5.414   8.583   7.805
17340WAT      O52261   7.637   4.386   5.380
17340WAT     H152262   7.698   4.465   5.381
17340WAT     H252263   7.549   4.411   5.421
17341WAT      O52264   5.883   1.396   2.533
17341WAT     H152265   5.918   1.361   2.620
17341WAT     H252266   5.895   1.496   2.530
17342WAT      O52267   1.326   7.452   5.057
17342WAT     H152268   1.249   7.397   5.025
17342WAT     H252269   1.302   7.497   5.142
17343WAT      O52270   3.451   1.998   0.823
17343WAT     H152271   3.526   1.977   0.886
17343WAT     H252272   3.399   2.076   0.858
17344WAT      O52273   9.132   7.789   6.307
17344WAT     H152274   9.094   7.782   6.215
17344WAT     H252275   9.059   7.813   6.372
17345WAT      O52276   1.545   9.834   7.637
17345WAT     H152277   1.453   9.870   7.649
17345WAT     H252278   1.573   9.785   7.719
17346WAT      O52279   2.828   1.031   3.101
17346WAT     H152280   2.752   0.990   3.151
17346WAT     H252281   2.803   1.039   3.004
17347WAT      O52282   7.509   9.046   0.886
17347WAT     H152283   7.493   8.988   0.805
17347WAT     H252284   7.424   9.091   0.911
17348WAT      O52285   7.642   2.954   0.452
17348WAT     H152286   7.675   2.916   0.365
17348WAT     H252287   7.602   2.880   0.507
17349WAT      O52288   7.523   4.564   8.360
17349WAT     H152289   7.612   4.521   8.375
17349WAT     H252290   7.525   4.657   8.396
17350WAT      O52291   1.792   7.517   2.497
17350WAT     H152292   1.878   7.568   2.499
17350WAT     H252293   1.717   7.580   2.476
17351WAT      O52294   2.711   1.895   1.859
17351WAT     H152295   2.693   1.816   1.917
17351WAT     H252296   2.673   1.977   1.903
17352WAT      O52297   2.090   8.868   3.107
17352WAT     H152298   2.150   8.855   3.187
17352WAT     H252299   2.098   8.963   3.076
17353WAT      O52300   1.881   0.869   8.707
17353WAT     H152301   1.785   0.855   8.730
17353WAT     H252302   1.890   0.951   8.650
17354WAT      O52303   9.649   0.194   4.173
17354WAT     H152304   9.649   0.136   4.254
17354WAT     H252305   9.743   0.209   4.143
17355WAT      O52306   8.088   3.048   8.337
17355WAT     H152307   8.116   2.954   8.357
17355WAT     H252308   8.047   3.088   8.419
17356WAT      O52309   1.487   6.202   7.958
17356WAT     H152310   1.412   6.214   7.893
17356WAT     H252311   1.507   6.290   8.001
17357WAT      O52312   4.886   8.604   6.570
17357WAT     H152313   4.789   8.624   6.583
17357WAT     H252314   4.934   8.615   6.657
17358WAT      O52315   2.602   2.629   4.129
17358WAT     H152316   2.634   2.704   4.073
17358WAT     H252317   2.595   2.658   4.224
17359WAT      O52318   7.850   3.193   1.799
17359WAT     H152319   7.889   3.126   1.862
17359WAT     H252320   7.890   3.283   1.817
17360WAT      O52321   6.249   2.250   4.487
17360WAT     H152322   6.273   2.256   4.584
17360WAT     H252323   6.175   2.183   4.476
17361WAT      O52324   7.126   5.945   7.144
17361WAT     H152325   7.047   5.883   7.140
17361WAT     H252326   7.152   5.960   7.239
17362WAT      O52327   2.764   1.741   1.238
17362WAT     H152328   2.821   1.750   1.320
17362WAT     H252329   2.820   1.757   1.156
17363WAT      O52330   4.921   0.783   9.282
17363WAT     H152331   4.834   0.735   9.295
17363WAT     H252332   4.994   0.733   9.329
17364WAT      O52333   5.345   5.744   6.886
17364WAT     H152334   5.270   5.786   6.936
17364WAT     H252335   5.411   5.705   6.950
17365WAT      O52336   9.579   5.989   6.796
17365WAT     H152337   9.560   6.065   6.733
17365WAT     H252338   9.575   6.023   6.890
17366WAT      O52339   2.768   0.864   0.794
17366WAT     H152340   2.689   0.904   0.748
17366WAT     H252341   2.737   0.795   0.860
17367WAT      O52342   6.775   8.472   6.117
17367WAT     H152343   6.728   8.560   6.110
17367WAT     H252344   6.804   8.457   6.212
17368WAT      O52345   6.185   0.702   5.684
17368WAT     H152346   6.272   0.735   5.720
17368WAT     H252347   6.131   0.780   5.650
17369WAT      O52348   7.525   7.527   2.277
17369WAT     H152349   7.502   7.496   2.185
17369WAT     H252350   7.442   7.534   2.332
17370WAT      O52351   2.320   2.021   5.085
17370WAT     H152352   2.360   1.937   5.051
17370WAT     H252353   2.368   2.100   5.045
17371WAT      O52354   4.042   9.432   2.331
17371WAT     H152355   4.006   9.468   2.417
17371WAT     H252356   3.973   9.443   2.259
17372WAT      O52357   0.871   4.871   8.963
17372WAT     H152358   0.873   4.894   9.060
17372WAT     H252359   0.961   4.890   8.922
17373WAT      O52360   2.144   5.205   4.674
17373WAT     H152361   2.096   5.242   4.754
17373WAT     H252362   2.235   5.174   4.701
17374WAT      O52363   1.808   1.807   8.230
17374WAT     H152364   1.851   1.854   8.152
17374WAT     H252365   1.833   1.853   8.315
17375WAT      O52366   1.889   4.955   0.483
17375WAT     H152367   1.974   4.910   0.457
17375WAT     H252368   1.820   4.886   0.505
17376WAT      O52369   9.450   0.329   2.712
17376WAT     H152370   9.390   0.337   2.791
17376WAT     H252371   9.409   0.377   2.634
17377WAT      O52372   4.951   4.933   5.602
17377WAT     H152373   4.880   4.876   5.560
17377WAT     H252374   5.002   4.878   5.668
17378WAT      O52375   4.172   2.896   8.431
17378WAT     H152376   4.219   2.966   8.376
17378WAT     H252377   4.083   2.931   8.459
17379WAT      O52378   6.957   2.330   5.776
17379WAT     H152379   6.873   2.313   5.724
17379WAT     H252380   6.936   2.335   5.873
17380WAT      O52381   7.361   3.063   7.066
17380WAT     H152382   7.440   3.078   7.124
17380WAT     H252383   7.329   3.150   7.029
17381WAT      O52384   0.667   2.242   1.430
17381WAT     H152385   0.617   2.165   1.469
17381WAT     H252386   0.694   2.219   1.336
17382WAT      O52387   4.309   7.910   0.899
17382WAT     H152388   4.227   7.967   0.897
17382WAT     H252389   4.364   7.927   0.817
17383WAT      O52390   7.485   9.799   1.435
17383WAT     H152391   7.566   9.800   1.376
17383WAT     H252392   7.431   9.717   1.414
17384WAT      O52393   6.462   3.301   2.039
17384WAT     H152394   6.543   3.256   2.000
17384WAT     H252395   6.464   3.398   2.017
17385WAT      O52396   2.488   5.086   8.842
17385WAT     H152397   2.505   5.167   8.899
17385WAT     H252398   2.503   5.109   8.746
17386WAT      O52399   5.055   8.642   3.346
17386WAT     H152400   5.116   8.659   3.268
17386WAT     H252401   5.016   8.550   3.337
17387WAT      O52402   4.166   2.754   7.421
17387WAT     H152403   4.154   2.836   7.476
17387WAT     H252404   4.183   2.780   7.326
17388WAT      O52405   6.262   5.956   0.499
17388WAT     H152406   6.344   6.013   0.491
17388WAT     H252407   6.195   6.003   0.557
17389WAT      O52408   2.480   7.846   6.718
17389WAT     H152409   2.463   7.898   6.801
17389WAT     H252410   2.565   7.877   6.676
17390WAT      O52411   1.168   9.067   9.298
17390WAT     H152412   1.233   8.993   9.283
17390WAT     H252413   1.080   9.043   9.258
17391WAT      O52414   1.276   9.255   7.934
17391WAT     H152415   1.352   9.216   7.882
17391WAT     H252416   1.237   9.331   7.883
17392WAT      O52417   2.999   9.459   5.897
17392WAT     H152418   3.013   9.456   5.798
17392WAT     H252419   3.088   9.464   5.943
17393WAT      O52420   4.343   5.584   1.854
17393WAT     H152421   4.258   5.617   1.813
17393WAT     H252422   4.374   5.501   1.806
17394WAT      O52423   8.815   2.762   0.405
17394WAT     H152424   8.829   2.697   0.331
17394WAT     H252425   8.856   2.850   0.381
17395WAT      O52426   4.121   8.996   3.987
17395WAT     H152427   4.160   9.077   4.030
17395WAT     H252428   4.141   8.915   4.042
17396WAT      O52429   5.676   9.423   6.262
17396WAT     H152430   5.629   9.449   6.347
17396WAT     H252431   5.616   9.364   6.208
17397WAT      O52432   6.313   6.080   4.900
17397WAT     H152433   6.261   6.163   4.883
17397WAT     H252434   6.251   6.003   4.913
17398WAT      O52435   9.245   4.326   9.613
17398WAT     H152436   9.325   4.318   9.673
17398WAT     H252437   9.273   4.316   9.518
17399WAT      O52438   8.662   6.317   2.685
17399WAT     H152439   8.612   6.383   2.629
17399WAT     H252440   8.605   6.287   2.761
17400WAT      O52441   6.556   5.772   4.915
17400WAT     H152442   6.563   5.867   4.946
17400WAT     H252443   6.500   5.769   4.832
17401WAT      O52444   9.682   7.533   5.410
17401WAT     H152445   9.773   7.575   5.409
17401WAT     H252446   9.613   7.605   5.398
17402WAT      O52447   7.068   3.996   9.091
17402WAT     H152448   6.984   3.964   9.133
17402WAT     H252449   7.055   4.003   8.992
17403WAT      O52450   6.598   1.841   5.437
17403WAT     H152451   6.650   1.798   5.363
17403WAT     H252452   6.585   1.939   5.416
17404WAT      O52453   0.111   7.436   3.537
17404WAT     H152454   0.194   7.416   3.588
17404WAT     H252455   0.087   7.532   3.547
17405WAT      O52456   9.312   0.197   3.015
17405WAT     H152457   9.341   0.182   3.109
17405WAT     H252458   9.293   0.294   3.001
17406WAT      O52459   4.190   1.807   8.033
17406WAT     H152460   4.224   1.794   8.126
17406WAT     H252461   4.142   1.894   8.026
17407WAT      O52462   9.408   4.355   9.824
17407WAT     H152463   9.481   4.422   9.842
17407WAT     H252464   9.393   4.300   9.906
17408WAT      O52465   6.377   1.530   1.110
17408WAT     H152466   6.368   1.459   1.180
17408WAT     H252467   6.413   1.613   1.151
17409WAT      O52468   0.267   0.260   6.399
17409WAT     H152469   0.168   0.248   6.392
17409WAT     H252470   0.303   0.201   6.471
17410WAT      O52471   7.690   4.341   4.528
17410WAT     H152472   7.752   4.271   4.565
17410WAT     H252473   7.726   4.431   4.551
17411WAT      O52474   5.046   8.470   0.108
17411WAT     H152475   4.980   8.545   0.110
17411WAT     H252476   5.138   8.506   0.117
17412WAT      O52477   4.584   1.274   8.745
17412WAT     H152478   4.629   1.331   8.677
17412WAT     H252479   4.638   1.191   8.760
17413WAT      O52480   2.132   2.676   0.261
17413WAT     H152481   2.105   2.768   0.230
17413WAT     H252482   2.182   2.684   0.347
17414WAT      O52483   8.444   3.578   1.864
17414WAT     H152484   8.542   3.567   1.882
17414WAT     H252485   8.431   3.624   1.777
17415WAT      O52486   3.916   3.168   9.437
17415WAT     H152487   3.992   3.227   9.411
17415WAT     H252488   3.951   3.077   9.460
17416WAT      O52489   9.781   6.522   5.520
17416WAT     H152490   9.783   6.431   5.479
17416WAT     H252491   9.820   6.588   5.457
17417WAT      O52492   7.284   4.681   7.780
17417WAT     H152493   7.327   4.770   7.790
17417WAT     H252494   7.273   4.660   7.683
17418WAT      O52495   1.369   7.929   6.739
17418WAT     H152496   1.292   7.968   6.689
17418WAT     H252497   1.413   7.858   6.683
17419WAT      O52498   5.895   2.649   9.872
17419WAT     H152499   5.828   2.608   9.810
17419WAT     H252500   5.980   2.597   9.869
17420WAT      O52501   4.853   4.243   4.769
17420WAT     H152502   4.891   4.199   4.688
17420WAT     H252503   4.866   4.184   4.848
17421WAT      O52504   5.579   9.482   0.797
17421WAT     H152505   5.569   9.581   0.782
17421WAT     H252506   5.531   9.457   0.881
17422WAT      O52507   9.488   0.117   8.325
17422WAT     H152508   9.484   0.115   8.425
17422WAT     H252509   9.415   0.060   8.287
17423WAT      O52510   2.667   3.010   0.565
17423WAT     H152511   2.691   3.001   0.661
17423WAT     H252512   2.592   3.076   0.556
17424WAT      O52513   0.826   0.714   0.766
17424WAT     H152514   0.858   0.699   0.673
17424WAT     H252515   0.903   0.703   0.830
17425WAT      O52516   6.623   5.350   7.452
17425WAT     H152517   6.594   5.300   7.370
17425WAT     H252518   6.689   5.420   7.426
17426WAT      O52519   6.474   4.993   7.429
17426WAT     H152520   6.543   5.036   7.488
17426WAT     H252521   6.385   4.997   7.473
17427WAT      O52522   3.728   5.137   7.778
17427WAT     H152523   3.696   5.045   7.755
17427WAT     H252524   3.651   5.195   7.802
17428WAT      O52525   1.153   5.519   6.046
17428WAT     H152526   1.090   5.449   6.080
17428WAT     H252527   1.162   5.512   5.947
17429WAT      O52528   8.325   1.661   6.055
17429WAT     H152529   8.390   1.588   6.074
17429WAT     H252530   8.260   1.631   5.986
17430WAT      O52531   7.418   4.560   7.333
17430WAT     H152532   7.364   4.601   7.260
17430WAT     H252533   7.441   4.466   7.309
17431WAT      O52534   6.721   1.281   0.481
17431WAT     H152535   6.630   1.303   0.445
17431WAT     H252536   6.776   1.239   0.409
17432WAT      O52537   4.684   7.242   6.687
17432WAT     H152538   4.626   7.163   6.703
17432WAT     H252539   4.776   7.224   6.722
17433WAT      O52540   1.081   3.743   3.183
17433WAT     H152541   1.139   3.776   3.258
17433WAT     H252542   1.110   3.651   3.157
17434WAT      O52543   4.429   1.098   3.199
17434WAT     H152544   4.461   1.014   3.243
17434WAT     H252545   4.380   1.154   3.266
17435WAT      O52546   2.779   3.620   8.609
17435WAT     H152547   2.709   3.680   8.569
17435WAT     H252548   2.843   3.592   8.537
17436WAT      O52549   6.288   1.519   3.172
17436WAT     H152550   6.316   1.480   3.085
17436WAT     H252551   6.324   1.612   3.181
17437WAT      O52552   6.126   2.539   6.729
17437WAT     H152553   6.173   2.611   6.678
17437WAT     H252554   6.066   2.580   6.798
17438WAT      O52555   1.354   8.611   6.116
17438WAT     H152556   1.446   8.602   6.156
17438WAT     H252557   1.287   8.567   6.175
17439WAT      O52558   8.453   2.433   7.783
17439WAT     H152559   8.503   2.363   7.732
17439WAT     H252560   8.504   2.456   7.866
17440WAT      O52561   5.210   2.679   0.869
17440WAT     H152562   5.140   2.641   0.808
17440WAT     H252563   5.281   2.610   0.885
17441WAT      O52564   4.178   0.194   0.531
17441WAT     H152565   4.131   0.278   0.503
17441WAT     H252566   4.134   0.158   0.613
17442WAT      O52567   5.395   1.111   3.801
17442WAT     H152568   5.357   1.048   3.869
17442WAT     H252569   5.487   1.139   3.829
17443WAT      O52570   8.278   3.411   6.466
17443WAT     H152571   8.270   3.507   6.493
17443WAT     H252572   8.188   3.368   6.468
17444WAT      O52573   2.522   4.190   9.834
17444WAT     H152574   2.501   4.222   9.741
17444WAT     H252575   2.586   4.114   9.829
17445WAT      O52576   0.516   0.671   6.481
17445WAT     H152577   0.513   0.685   6.580
17445WAT     H252578   0.504   0.758   6.435
17446WAT      O52579   5.567   4.199   7.951
17446WAT     H152580   5.494   4.248   7.998
17446WAT     H252581   5.557   4.211   7.852
17447WAT      O52582   9.331   5.630   8.997
17447WAT     H152583   9.238   5.663   9.012
17447WAT     H252584   9.393   5.674   9.063
17448WAT      O52585   8.514   9.028   8.684
17448WAT     H152586   8.559   9.043   8.772
17448WAT     H252587   8.417   9.047   8.692
17449WAT      O52588   7.887   4.466   9.598
17449WAT     H152589   7.891   4.554   9.550
17449WAT     H252590   7.973   4.448   9.644
17450WAT      O52591   8.636   6.103   0.552
17450WAT     H152592   8.664   6.023   0.606
17450WAT     H252593   8.536   6.106   0.547
17451WAT      O52594   7.452   1.215   4.758
17451WAT     H152595   7.499   1.235   4.672
17451WAT     H252596   7.436   1.299   4.808
17452WAT      O52597   6.670   5.599   5.387
17452WAT     H152598   6.622   5.547   5.457
17452WAT     H252599   6.614   5.676   5.358
17453WAT      O52600   1.374   2.078   5.074
17453WAT     H152601   1.413   2.057   5.163
17453WAT     H252602   1.355   1.994   5.024
17454WAT      O52603   1.304   2.503   7.093
17454WAT     H152604   1.321   2.430   7.026
17454WAT     H252605   1.266   2.583   7.047
17455WAT      O52606   1.789   8.092   5.074
17455WAT     H152607   1.791   8.143   4.988
17455WAT     H252608   1.792   7.994   5.055
17456WAT      O52609   7.018   5.261   0.221
17456WAT     H152610   6.960   5.271   0.302
17456WAT     H252611   6.977   5.311   0.144
17457WAT      O52612   5.477   3.925   7.527
17457WAT     H152613   5.436   3.899   7.440
17457WAT     H252614   5.528   3.847   7.564
17458WAT      O52615   2.208   7.610   0.360
17458WAT     H152616   2.306   7.611   0.339
17458WAT     H252617   2.188   7.533   0.421
17459WAT      O52618   9.706   3.076   4.205
17459WAT     H152619   9.687   3.137   4.128
17459WAT     H252620   9.639   3.002   4.206
17460WAT      O52621   8.153   3.513   0.727
17460WAT     H152622   8.100   3.509   0.642
17460WAT     H252623   8.133   3.432   0.782
17461WAT      O52624   4.687   6.904   2.172
17461WAT     H152625   4.703   6.889   2.269
17461WAT     H252626   4.619   6.976   2.160
17462WAT      O52627   7.799   5.788   0.472
17462WAT     H152628   7.731   5.815   0.404
17462WAT     H252629   7.883   5.758   0.425
17463WAT      O52630   6.428   5.628   9.180
17463WAT     H152631   6.344   5.679   9.200
17463WAT     H252632   6.488   5.683   9.123
17464WAT      O52633   5.019   4.423   7.939
17464WAT     H152634   5.075   4.343   7.917
17464WAT     H252635   5.077   4.494   7.978
17465WAT      O52636   7.305   7.721   3.269
17465WAT     H152637   7.397   7.700   3.302
17465WAT     H252638   7.293   7.821   3.266
17466WAT      O52639   4.782   3.734   6.071
17466WAT     H152640   4.847   3.765   6.002
17466WAT     H252641   4.725   3.811   6.100
17467WAT      O52642   3.054   5.452   1.831
17467WAT     H152643   3.048   5.499   1.919
17467WAT     H252644   3.003   5.503   1.762
17468WAT      O52645   5.737   8.122   0.563
17468WAT     H152646   5.641   8.145   0.549
17468WAT     H252647   5.747   8.068   0.647
17469WAT      O52648   8.996   2.498   0.593
17469WAT     H152649   8.994   2.589   0.551
17469WAT     H252650   9.088   2.477   0.625
17470WAT      O52651   6.257   7.530   9.308
17470WAT     H152652   6.191   7.561   9.376
17470WAT     H252653   6.223   7.446   9.264
17471WAT      O52654   0.846   9.754   5.959
17471WAT     H152655   0.785   9.819   6.004
17471WAT     H252656   0.873   9.683   6.023
17472WAT      O52657   2.180   3.960   6.874
17472WAT     H152658   2.217   4.041   6.919
17472WAT     H252659   2.130   3.987   6.792
17473WAT      O52660   9.437   1.470   4.945
17473WAT     H152661   9.478   1.454   4.855
17473WAT     H252662   9.425   1.383   4.992
17474WAT      O52663   8.188   4.919   5.968
17474WAT     H152664   8.112   4.982   5.952
17474WAT     H252665   8.206   4.868   5.884
17475WAT      O52666   0.879   2.965   2.153
17475WAT     H152667   0.954   2.921   2.201
17475WAT     H252668   0.804   2.899   2.140
17476WAT      O52669   8.653   6.712   5.336
17476WAT     H152670   8.600   6.728   5.253
17476WAT     H252671   8.717   6.637   5.321
17477WAT      O52672   2.209   7.331   6.028
17477WAT     H152673   2.174   7.278   5.951
17477WAT     H252674   2.144   7.327   6.104
17478WAT      O52675   2.956   4.434   9.513
17478WAT     H152676   2.904   4.349   9.520
17478WAT     H252677   2.963   4.477   9.603
17479WAT      O52678   0.860   3.231   2.480
17479WAT     H152679   0.919   3.177   2.540
17479WAT     H252680   0.856   3.325   2.511
17480WAT      O52681   3.333   1.677   4.436
17480WAT     H152682   3.334   1.693   4.534
17480WAT     H252683   3.383   1.750   4.389
17481WAT      O52684   2.793   1.657   5.995
17481WAT     H152685   2.758   1.623   5.908
17481WAT     H252686   2.881   1.702   5.980
17482WAT      O52687   7.161   6.884   6.654
17482WAT     H152688   7.233   6.815   6.660
17482WAT     H252689   7.073   6.843   6.678
17483WAT      O52690   0.454   8.968   0.139
17483WAT     H152691   0.393   8.946   0.063
17483WAT     H252692   0.511   9.047   0.114
17484WAT      O52693   3.953   6.671   2.880
17484WAT     H152694   4.016   6.594   2.868
17484WAT     H252695   3.991   6.735   2.946
17485WAT      O52696   5.525   8.611   8.692
17485WAT     H152697   5.456   8.560   8.642
17485WAT     H252698   5.480   8.670   8.759
17486WAT      O52699   0.027   5.683   2.649
17486WAT     H152700   0.102   5.649   2.592
17486WAT     H252701   0.033   5.643   2.740
17487WAT      O52702   8.000   3.625   7.492
17487WAT     H152703   7.977   3.663   7.582
17487WAT     H252704   8.091   3.658   7.465
17488WAT      O52705   6.811   0.256   3.732
17488WAT     H152706   6.717   0.248   3.698
17488WAT     H252707   6.819   0.337   3.790
17489WAT      O52708   5.371   8.941   1.516
17489WAT     H152709   5.364   8.991   1.602
17489WAT     H252710   5.329   8.995   1.443
17490WAT      O52711   9.604   7.856   8.067
17490WAT     H152712   9.570   7.813   7.983
17490WAT     H252713   9.700   7.832   8.079
17491WAT      O52714   6.058   1.280   6.547
17491WAT     H152715   6.041   1.366   6.499
17491WAT     H252716   6.149   1.247   6.525
17492WAT      O52717   2.787   6.379   8.832
17492WAT     H152718   2.813   6.358   8.926
17492WAT     H252719   2.733   6.302   8.794
17493WAT      O52720   2.037   6.157   1.444
17493WAT     H152721   2.015   6.243   1.397
17493WAT     H252722   1.954   6.117   1.483
17494WAT      O52723   9.215   4.865   5.838
17494WAT     H152724   9.223   4.940   5.905
17494WAT     H252725   9.173   4.786   5.883
17495WAT      O52726   7.045   7.940   2.786
17495WAT     H152727   7.061   7.887   2.868
17495WAT     H252728   7.130   7.984   2.757
17496WAT      O52729   6.126   2.700   5.149
17496WAT     H152730   6.082   2.621   5.190
17496WAT     H252731   6.214   2.717   5.194
17497WAT      O52732   4.347   0.356   9.359
17497WAT     H152733   4.318   0.282   9.421
17497WAT     H252734   4.402   0.422   9.410
17498WAT      O52735   3.616   0.583   6.127
17498WAT     H152736   3.624   0.595   6.226
17498WAT     H252737   3.566   0.661   6.088
17499WAT      O52738   6.897   8.229   4.502
17499WAT     H152739   6.982   8.239   4.450
17499WAT     H252740   6.870   8.318   4.539
17500WAT      O52741   6.487   4.317   6.801
17500WAT     H152742   6.559   4.247   6.805
17500WAT     H252743   6.468   4.339   6.705
17501WAT      O52744   7.878   7.412   4.716
17501WAT     H152745   7.908   7.478   4.647
17501WAT     H252746   7.795   7.445   4.760
17502WAT      O52747   2.172   1.051   3.752
17502WAT     H152748   2.135   1.015   3.837
17502WAT     H252749   2.131   1.140   3.733
17503WAT      O52750   1.471   3.882   9.145
17503WAT     H152751   1.480   3.785   9.168
17503WAT     H252752   1.395   3.895   9.082
17504WAT      O52753   6.208   2.826   9.011
17504WAT     H152754   6.261   2.786   9.085
17504WAT     H252755   6.267   2.887   8.958
17505WAT      O52756   7.577   3.849   6.291
17505WAT     H152757   7.566   3.940   6.332
17505WAT     H252758   7.603   3.859   6.195
17506WAT      O52759   7.258   2.279   7.116
17506WAT     H152760   7.346   2.260   7.073
17506WAT     H252761   7.244   2.378   7.120
17507WAT      O52762   8.410   8.081   3.893
17507WAT     H152763   8.355   7.998   3.879
17507WAT     H252764   8.492   8.076   3.836
17508WAT      O52765   3.902   7.257   8.397
17508WAT     H152766   3.819   7.276   8.449
17508WAT     H252767   3.958   7.339   8.392
17509WAT      O52768   6.162   7.249   5.674
17509WAT     H152769   6.185   7.312   5.749
17509WAT     H252770   6.067   7.218   5.686
17510WAT      O52771   6.535   5.357   4.841
17510WAT     H152772   6.523   5.273   4.788
17510WAT     H252773   6.451   5.376   4.892
17511WAT      O52774   5.507   1.575   5.011
17511WAT     H152775   5.568   1.595   5.088
17511WAT     H252776   5.434   1.645   5.008
17512WAT      O52777   8.265   2.091   8.430
17512WAT     H152778   8.180   2.098   8.377
17512WAT     H252779   8.300   2.183   8.447
17513WAT      O52780   1.330   8.161   1.028
17513WAT     H152781   1.275   8.115   1.097
17513WAT     H252782   1.340   8.102   0.948
17514WAT      O52783   5.626   2.691   9.731
17514WAT     H152784   5.551   2.755   9.719
17514WAT     H252785   5.605   2.629   9.807
17515WAT      O52786   7.751   4.691   0.573
17515WAT     H152787   7.840   4.662   0.605
17515WAT     H252788   7.712   4.757   0.637
17516WAT      O52789   6.634   2.112   0.642
17516WAT     H152790   6.703   2.110   0.714
17516WAT     H252791   6.678   2.121   0.553
17517WAT      O52792   4.605   3.555   3.817
17517WAT     H152793   4.535   3.622   3.843
17517WAT     H252794   4.605   3.543   3.718
17518WAT      O52795   8.238   6.556   3.459
17518WAT     H152796   8.265   6.482   3.520
17518WAT     H252797   8.146   6.539   3.423
17519WAT      O52798   2.063   6.167   5.802
17519WAT     H152799   2.107   6.237   5.745
17519WAT     H252800   2.132   6.103   5.836
17520WAT      O52801   1.492   1.125   5.719
17520WAT     H152802   1.416   1.139   5.783
17520WAT     H252803   1.500   1.027   5.699
17521WAT      O52804   2.789   1.727   0.128
17521WAT     H152805   2.758   1.667   0.202
17521WAT     H252806   2.840   1.804   0.167
17522WAT      O52807   1.163   4.599   1.027
17522WAT     H152808   1.220   4.545   1.088
17522WAT     H252809   1.219   4.666   0.979
17523WAT      O52810   1.196   6.879   6.271
17523WAT     H152811   1.197   6.788   6.230
17523WAT     H252812   1.250   6.942   6.215
17524WAT      O52813   7.050   0.810   7.608
17524WAT     H152814   7.066   0.713   7.628
17524WAT     H252815   7.119   0.842   7.544
17525WAT      O52816   9.788   2.329   4.250
17525WAT     H152817   9.828   2.364   4.334
17525WAT     H252818   9.820   2.235   4.235
17526WAT      O52819   8.074   9.572   2.445
17526WAT     H152820   8.027   9.653   2.481
17526WAT     H252821   8.007   9.510   2.405
17527WAT      O52822   2.741   3.178   8.719
17527WAT     H152823   2.792   3.246   8.772
17527WAT     H252824   2.657   3.219   8.684
17528WAT      O52825   8.260   0.470   5.698
17528WAT     H152826   8.208   0.550   5.667
17528WAT     H252827   8.349   0.469   5.652
17529WAT      O52828   1.981   7.374   3.640
17529WAT     H152829   2.077   7.384   3.667
17529WAT     H252830   1.975   7.366   3.541
17530WAT      O52831   3.921   0.245   6.782
17530WAT     H152832   3.877   0.286   6.702
17530WAT     H252833   3.858   0.183   6.828
17531WAT      O52834   5.812   6.712   7.827
17531WAT     H152835   5.864   6.729   7.911
17531WAT     H252836   5.773   6.620   7.831
17532WAT      O52837   1.694   1.302   9.104
17532WAT     H152838   1.716   1.269   9.196
17532WAT     H252839   1.737   1.392   9.091
17533WAT      O52840   2.808   7.889   0.145
17533WAT     H152841   2.708   7.884   0.135
17533WAT     H252842   2.847   7.938   0.067
17534WAT      O52843   0.840   2.357   6.450
17534WAT     H152844   0.892   2.440   6.471
17534WAT     H252845   0.782   2.334   6.528
17535WAT      O52846   6.406   9.538   0.411
17535WAT     H152847   6.327   9.522   0.469
17535WAT     H252848   6.400   9.630   0.372
17536WAT      O52849   2.591   2.611   5.457
17536WAT     H152850   2.544   2.696   5.436
17536WAT     H252851   2.567   2.542   5.389
17537WAT      O52852   6.483   3.383   5.791
17537WAT     H152853   6.442   3.425   5.710
17537WAT     H252854   6.543   3.450   5.835
17538WAT      O52855   0.959   8.291   7.928
17538WAT     H152856   0.867   8.321   7.952
17538WAT     H252857   1.026   8.350   7.973
17539WAT      O52858   4.189   1.418   9.218
17539WAT     H152859   4.134   1.371   9.287
17539WAT     H252860   4.222   1.352   9.151
17540WAT      O52861   2.838   7.191   0.445
17540WAT     H152862   2.873   7.122   0.508
17540WAT     H252863   2.906   7.208   0.374
17541WAT      O52864   8.290   9.741   7.909
17541WAT     H152865   8.233   9.820   7.887
17541WAT     H252866   8.286   9.725   8.007
17542WAT      O52867   1.961   7.820   1.012
17542WAT     H152868   1.989   7.725   1.007
17542WAT     H252869   1.889   7.837   0.944
17543WAT      O52870   5.322   2.167   0.669
17543WAT     H152871   5.353   2.158   0.763
17543WAT     H252872   5.374   2.104   0.610
17544WAT      O52873   3.201   6.451   0.814
17544WAT     H152874   3.266   6.435   0.888
17544WAT     H252875   3.226   6.535   0.765
17545WAT      O52876   7.724   2.350   1.852
17545WAT     H152877   7.719   2.299   1.766
17545WAT     H252878   7.773   2.296   1.920
17546WAT      O52879   1.832   0.747   1.345
17546WAT     H152880   1.833   0.676   1.274
17546WAT     H252881   1.744   0.795   1.342
17547WAT      O52882   3.034   7.942   9.199
17547WAT     H152883   3.126   7.932   9.238
17547WAT     H252884   3.042   7.967   9.102
17548WAT      O52885   0.958   1.910   2.891
17548WAT     H152886   0.909   1.823   2.897
17548WAT     H252887   0.942   1.963   2.974
17549WAT      O52888   0.636   5.625   8.196
17549WAT     H152889   0.687   5.627   8.110
17549WAT     H252890   0.699   5.642   8.272
17550WAT      O52891   0.269   9.772   0.955
17550WAT     H152892   0.310   9.696   1.005
17550WAT     H252893   0.341   9.836   0.927
17551WAT      O52894   4.801   5.242   2.126
17551WAT     H152895   4.900   5.228   2.117
17551WAT     H252896   4.778   5.261   2.221
17552WAT      O52897   6.296   8.034   1.425
17552WAT     H152898   6.337   8.045   1.334
17552WAT     H252899   6.342   7.961   1.474
17553WAT      O52900   8.218   9.575   9.692
17553WAT     H152901   8.191   9.647   9.756
17553WAT     H252902   8.253   9.497   9.743
17554WAT      O52903   6.899   2.169   4.748
17554WAT     H152904   6.935   2.080   4.720
17554WAT     H252905   6.817   2.190   4.695
17555WAT      O52906   3.273   9.389   7.011
17555WAT     H152907   3.204   9.317   7.011
17555WAT     H252908   3.261   9.447   7.091
17556WAT      O52909   8.311   6.425   5.497
17556WAT     H152910   8.290   6.466   5.585
17556WAT     H252911   8.407   6.441   5.475
17557WAT      O52912   2.460   4.398   6.780
17557WAT     H152913   2.467   4.459   6.859
17557WAT     H252914   2.545   4.346   6.770
17558WAT      O52915   0.713   2.450   3.771
17558WAT     H152916   0.731   2.549   3.769
17558WAT     H252917   0.639   2.432   3.836
17559WAT      O52918   6.251   0.801   2.046
17559WAT     H152919   6.273   0.708   2.017
17559WAT     H252920   6.194   0.845   1.976
17560WAT      O52921   3.625   7.524   2.246
17560WAT     H152922   3.545   7.584   2.254
17560WAT     H252923   3.659   7.525   2.152
17561WAT      O52924   1.472   2.468   9.148
17561WAT     H152925   1.570   2.489   9.143
17561WAT     H252926   1.457   2.396   9.216
17562WAT      O52927   5.991   6.562   9.010
17562WAT     H152928   6.012   6.465   9.026
17562WAT     H252929   6.009   6.584   8.914
17563WAT      O52930   3.210   2.046   4.289
17563WAT     H152931   3.120   2.018   4.324
17563WAT     H252932   3.281   1.986   4.326
17564WAT      O52933   8.909   2.889   0.671
17564WAT     H152934   9.003   2.878   0.638
17564WAT     H252935   8.849   2.824   0.624
17565WAT      O52936   7.096   1.747   7.773
17565WAT     H152937   6.997   1.750   7.786
17565WAT     H252938   7.125   1.832   7.729
17566WAT      O52939   6.592   6.753   1.089
17566WAT     H152940   6.590   6.807   1.174
17566WAT     H252941   6.687   6.737   1.062
17567WAT      O52942   6.666   1.030   9.767
17567WAT     H152943   6.594   0.964   9.745
17567WAT     H252944   6.668   1.045   9.866
17568WAT      O52945   2.619   5.473   1.725
17568WAT     H152946   2.648   5.385   1.762
17568WAT     H252947   2.651   5.481   1.630
17569WAT      O52948   7.565   3.511   2.207
17569WAT     H152949   7.542   3.416   2.185
17569WAT     H252950   7.532   3.531   2.300
17570WAT      O52951   1.078   9.681   5.509
17570WAT     H152952   1.075   9.682   5.609
17570WAT     H252953   1.171   9.660   5.479
17571WAT      O52954   1.543   4.848   5.531
17571WAT     H152955   1.535   4.919   5.601
17571WAT     H252956   1.636   4.811   5.531
17572WAT      O52957   0.150   5.456   0.136
17572WAT     H152958   0.230   5.484   0.083
17572WAT     H252959   0.179   5.394   0.210
17573WAT      O52960   9.800   3.461   4.121
17573WAT     H152961   9.783   3.424   4.212
17573WAT     H252962   9.898   3.477   4.109
17574WAT      O52963   2.957   6.685   3.221
17574WAT     H152964   2.915   6.605   3.178
17574WAT     H252965   3.000   6.657   3.307
17575WAT      O52966   9.211   2.215   6.599
17575WAT     H152967   9.235   2.193   6.504
17575WAT     H252968   9.172   2.134   6.642
17576WAT      O52969   9.794   7.312   8.991
17576WAT     H152970   9.783   7.272   8.900
17576WAT     H252971   9.723   7.275   9.052
17577WAT      O52972   6.099   1.694   3.651
17577WAT     H152973   6.101   1.644   3.565
17577WAT     H252974   6.010   1.739   3.662
17578WAT      O52975   6.840   4.172   8.306
17578WAT     H152976   6.773   4.164   8.381
17578WAT     H252977   6.889   4.086   8.296
17579WAT      O52978   7.819   2.668   8.940
17579WAT     H152979   7.879   2.591   8.962
17579WAT     H252980   7.758   2.687   9.017
17580WAT      O52981   0.220   0.274   0.491
17580WAT     H152982   0.251   0.184   0.459
17580WAT     H252983   0.137   0.263   0.545
17581WAT      O52984   4.278   3.176   6.418
17581WAT     H152985   4.372   3.170   6.452
17581WAT     H252986   4.215   3.179   6.495
17582WAT      O52987   3.225   2.628   7.052
17582WAT     H152988   3.147   2.690   7.057
17582WAT     H252989   3.301   2.664   7.106
17583WAT      O52990   4.487   6.328   6.449
17583WAT     H152991   4.550   6.392   6.406
17583WAT     H252992   4.484   6.344   6.548
17584WAT      O52993   8.774   7.446   5.684
17584WAT     H152994   8.730   7.435   5.595
17584WAT     H252995   8.842   7.520   5.678
17585WAT      O52996   9.033   0.677   6.309
17585WAT     H152997   9.123   0.720   6.317
17585WAT     H252998   9.000   0.686   6.215
17586WAT      O52999   7.452   6.476   5.999
17586WAT     H153000   7.485   6.559   5.956
17586WAT     H253001   7.482   6.396   5.947
17587WAT      O53002   3.909   5.576   4.924
17587WAT     H153003   3.980   5.538   4.864
17587WAT     H253004   3.862   5.650   4.876
17588WAT      O53005   4.380   9.632   8.651
17588WAT     H153006   4.322   9.713   8.651
17588WAT     H253007   4.328   9.554   8.686
17589WAT      O53008   9.685   6.798   6.262
17589WAT     H153009   9.737   6.876   6.298
17589WAT     H253010   9.664   6.813   6.166
17590WAT      O53011   6.993   9.634   8.762
17590WAT     H153012   7.080   9.681   8.778
17590WAT     H253013   7.011   9.538   8.741
17591WAT      O53014   9.207   0.650   5.004
17591WAT     H153015   9.179   0.731   4.951
17591WAT     H253016   9.307   0.647   5.008
17592WAT      O53017   8.177   5.201   7.298
17592WAT     H153018   8.133   5.290   7.289
17592WAT     H253019   8.201   5.184   7.393
17593WAT      O53020   9.504   1.890   6.839
17593WAT     H153021   9.602   1.868   6.839
17593WAT     H253022   9.465   1.865   6.750
17594WAT      O53023   4.648   6.303   0.844
17594WAT     H153024   4.711   6.226   0.838
17594WAT     H253025   4.556   6.273   0.819
17595WAT      O53026   1.875   2.635   1.189
17595WAT     H153027   1.781   2.617   1.162
17595WAT     H253028   1.934   2.562   1.154
17596WAT      O53029   7.382   0.467   5.752
17596WAT     H153030   7.282   0.467   5.744
17596WAT     H253031   7.416   0.559   5.732
17597WAT      O53032   0.990   7.369   7.635
17597WAT     H153033   0.987   7.286   7.691
17597WAT     H253034   1.079   7.377   7.591
17598WAT      O53035   3.467   2.074   9.024
17598WAT     H153036   3.492   2.164   8.988
17598WAT     H253037   3.537   2.045   9.090
17599WAT      O53038   2.434   7.465   7.800
17599WAT     H153039   2.414   7.424   7.711
17599WAT     H253040   2.533   7.475   7.811
17600WAT      O53041   5.119   4.712   2.109
17600WAT     H153042   5.112   4.809   2.133
17600WAT     H253043   5.036   4.665   2.140
17601WAT      O53044   4.694   3.313   6.272
17601WAT     H153045   4.716   3.364   6.189
17601WAT     H253046   4.778   3.288   6.320
17602WAT      O53047   5.313   4.634   1.273
17602WAT     H153048   5.391   4.654   1.332
17602WAT     H253049   5.229   4.629   1.328
17603WAT      O53050   2.032   2.982   5.255
17603WAT     H153051   2.010   2.942   5.166
17603WAT     H253052   1.948   2.997   5.307
17604WAT      O53053   1.296   5.494   1.480
17604WAT     H153054   1.237   5.573   1.462
17604WAT     H253055   1.251   5.411   1.449
17605WAT      O53056   9.838   7.658   2.577
17605WAT     H153057   9.802   7.597   2.507
17605WAT     H253058   9.922   7.620   2.615
17606WAT      O53059   0.081   3.596   6.117
17606WAT     H153060   0.009   3.594   6.048
17606WAT     H253061   0.068   3.522   6.182
17607WAT      O53062   2.330   6.643   5.020
17607WAT     H153063   2.318   6.605   4.928
17607WAT     H253064   2.350   6.568   5.084
17608WAT      O53065   0.664   5.011   1.884
17608WAT     H153066   0.669   5.009   1.984
17608WAT     H253067   0.683   5.104   1.852
17609WAT      O53068   2.319   8.781   0.867
17609WAT     H153069   2.247   8.712   0.865
17609WAT     H253070   2.408   8.736   0.857
17610WAT      O53071   4.356   1.521   3.837
17610WAT     H153072   4.322   1.557   3.750
17610WAT     H253073   4.414   1.589   3.881
17611WAT      O53074   2.832   4.336   1.921
17611WAT     H153075   2.818   4.237   1.918
17611WAT     H253076   2.854   4.370   1.830
17612WAT      O53077   4.919   2.804   5.500
17612WAT     H153078   4.853   2.735   5.530
17612WAT     H253079   5.012   2.770   5.517
17613WAT      O53080   8.824   8.284   0.286
17613WAT     H153081   8.844   8.307   0.381
17613WAT     H253082   8.726   8.269   0.276
17614WAT      O53083   1.501   3.574   3.546
17614WAT     H153084   1.481   3.671   3.558
17614WAT     H253085   1.520   3.556   3.449
17615WAT      O53086   2.163   3.539   6.656
17615WAT     H153087   2.154   3.596   6.738
17615WAT     H253088   2.250   3.490   6.658
17616WAT      O53089   1.046   4.907   2.375
17616WAT     H153090   0.986   4.846   2.428
17616WAT     H253091   1.139   4.904   2.412
17617WAT      O53092   4.180   1.961   8.638
17617WAT     H153093   4.130   1.969   8.724
17617WAT     H253094   4.267   1.915   8.655
17618WAT      O53095   4.159   2.648   6.988
17618WAT     H153096   4.071   2.681   7.025
17618WAT     H253097   4.208   2.598   7.060
17619WAT      O53098   3.125   2.012   6.718
17619WAT     H153099   3.190   1.999   6.794
17619WAT     H253100   3.059   1.937   6.719
17620WAT      O53101   7.852   5.370   3.434
17620WAT     H153102   7.781   5.383   3.364
17620WAT     H253103   7.872   5.273   3.444
17621WAT      O53104   4.329   2.683   2.172
17621WAT     H153105   4.418   2.658   2.209
17621WAT     H253106   4.256   2.638   2.224
17622WAT      O53107   8.010   2.694   3.387
17622WAT     H153108   8.081   2.665   3.323
17622WAT     H253109   8.043   2.771   3.441
17623WAT      O53110   2.270   2.549   8.518
17623WAT     H153111   2.212   2.525   8.440
17623WAT     H253112   2.213   2.580   8.594
17624WAT      O53113   0.032   5.700   8.166
17624WAT     H153114   0.096   5.625   8.183
17624WAT     H253115  -0.006   5.691   8.074
17625WAT      O53116   5.265   7.252   8.331
17625WAT     H153117   5.197   7.240   8.403
17625WAT     H253118   5.336   7.315   8.363
17626WAT      O53119   0.502   1.429   2.340
17626WAT     H153120   0.571   1.388   2.400
17626WAT     H253121   0.541   1.507   2.292
17627WAT      O53122   1.333   1.146   4.912
17627WAT     H153123   1.366   1.184   4.826
17627WAT     H253124   1.353   1.210   4.987
17628WAT      O53125   8.116   2.217   9.654
17628WAT     H153126   8.062   2.166   9.587
17628WAT     H253127   8.061   2.292   9.690
17629WAT      O53128   2.154   1.934   7.571
17629WAT     H153129   2.208   1.855   7.541
17629WAT     H253130   2.212   1.996   7.624
17630WAT      O53131   0.330   9.392   4.468
17630WAT     H153132   0.400   9.462   4.474
17630WAT     H253133   0.249   9.429   4.421
17631WAT      O53134   9.134   9.216   8.993
17631WAT     H153135   9.057   9.248   9.048
17631WAT     H253136   9.219   9.245   9.037
17632WAT      O53137   8.644   3.268   3.300
17632WAT     H153138   8.588   3.186   3.292
17632WAT     H253139   8.733   3.253   3.256
17633WAT      O53140   5.422   6.641   6.375
17633WAT     H153141   5.379   6.697   6.446
17633WAT     H253142   5.359   6.628   6.299
17634WAT      O53143   9.305   3.893   7.835
17634WAT     H153144   9.251   3.957   7.889
17634WAT     H253145   9.387   3.867   7.887
17635WAT      O53146   3.546   9.145   9.022
17635WAT     H153147   3.620   9.201   9.060
17635WAT     H253148   3.585   9.064   8.978
17636WAT      O53149   0.960   6.255   5.271
17636WAT     H153150   0.984   6.175   5.217
17636WAT     H253151   0.916   6.227   5.356
17637WAT      O53152   2.012   1.895   2.280
17637WAT     H153153   1.974   1.945   2.202
17637WAT     H253154   2.103   1.860   2.257
17638WAT      O53155   3.633   2.780   2.814
17638WAT     H153156   3.594   2.799   2.904
17638WAT     H253157   3.624   2.860   2.756
17639WAT      O53158   1.650   2.533   1.074
17639WAT     H153159   1.713   2.471   1.028
17639WAT     H253160   1.608   2.593   1.007
17640WAT      O53161   9.317   7.661   2.023
17640WAT     H153162   9.336   7.685   1.928
17640WAT     H253163   9.403   7.659   2.075
17641WAT      O53164   1.223   0.575   3.275
17641WAT     H153165   1.230   0.527   3.187
17641WAT     H253166   1.238   0.673   3.260
17642WAT      O53167   8.320   3.192   2.435
17642WAT     H153168   8.341   3.167   2.340
17642WAT     H253169   8.280   3.284   2.437
17643WAT      O53170   5.826   9.603   5.599
17643WAT     H153171   5.876   9.669   5.655
17643WAT     H253172   5.799   9.646   5.513
17644WAT      O53173   4.570   6.116   2.614
17644WAT     H153174   4.628   6.162   2.681
17644WAT     H253175   4.476   6.151   2.621
17645WAT      O53176   9.265   5.721   9.821
17645WAT     H153177   9.198   5.705   9.749
17645WAT     H253178   9.356   5.694   9.789
17646WAT      O53179   1.860   9.193   0.022
17646WAT     H153180   1.957   9.167   0.027
17646WAT     H253181   1.839   9.260   0.094
17647WAT      O53182   5.782   7.696   9.607
17647WAT     H153183   5.815   7.617   9.658
17647WAT     H253184   5.742   7.666   9.520
17648WAT      O53185   1.825   8.019   8.722
17648WAT     H153186   1.754   7.963   8.765
17648WAT     H253187   1.783   8.078   8.653
17649WAT      O53188   5.319   5.196   6.261
17649WAT     H153189   5.250   5.209   6.331
17649WAT     H253190   5.287   5.235   6.175
17650WAT      O53191   5.173   6.563   3.661
17650WAT     H153192   5.217   6.593   3.746
17650WAT     H253193   5.223   6.600   3.583
17651WAT      O53194   2.206   6.241   5.112
17651WAT     H153195   2.107   6.238   5.102
17651WAT     H253196   2.248   6.243   5.021
17652WAT      O53197   9.161   5.387   1.929
17652WAT     H153198   9.119   5.314   1.982
17652WAT     H253199   9.118   5.474   1.950
17653WAT      O53200   6.439   9.694   7.549
17653WAT     H153201   6.437   9.596   7.529
17653WAT     H253202   6.426   9.709   7.647
17654WAT      O53203   9.215   2.623   3.090
17654WAT     H153204   9.194   2.701   3.032
17654WAT     H253205   9.174   2.636   3.180
17655WAT      O53206   2.750   0.827   7.226
17655WAT     H153207   2.659   0.793   7.199
17655WAT     H253208   2.761   0.817   7.325
17656WAT      O53209   5.969   0.545   3.917
17656WAT     H153210   5.980   0.530   4.015
17656WAT     H253211   5.872   0.550   3.894
17657WAT      O53212   3.284   7.112   7.782
17657WAT     H153213   3.360   7.127   7.718
17657WAT     H253214   3.224   7.040   7.747
17658WAT      O53215   5.881   4.902   2.114
17658WAT     H153216   5.971   4.907   2.071
17658WAT     H253217   5.886   4.941   2.206
17659WAT      O53218   7.487   8.523   3.044
17659WAT     H153219   7.515   8.618   3.030
17659WAT     H253220   7.438   8.491   2.964
17660WAT      O53221   4.743   4.560   8.302
17660WAT     H153222   4.733   4.653   8.266
17660WAT     H253223   4.654   4.527   8.335
17661WAT      O53224   6.842   3.079   1.883
17661WAT     H153225   6.937   3.055   1.901
17661WAT     H253226   6.821   3.167   1.926
17662WAT      O53227   4.826   3.405   8.619
17662WAT     H153228   4.747   3.465   8.633
17662WAT     H253229   4.905   3.459   8.592
17663WAT      O53230   1.152   4.338   4.429
17663WAT     H153231   1.067   4.300   4.466
17663WAT     H253232   1.189   4.405   4.492
17664WAT      O53233   7.731   3.861   4.227
17664WAT     H153234   7.668   3.893   4.298
17664WAT     H253235   7.682   3.800   4.165
17665WAT      O53236   5.196   1.498   6.584
17665WAT     H153237   5.113   1.532   6.629
17665WAT     H253238   5.192   1.522   6.486
17666WAT      O53239   3.509   2.450   6.545
17666WAT     H153240   3.524   2.540   6.503
17666WAT     H253241   3.496   2.462   6.643
17667WAT      O53242   6.606   7.311   1.049
17667WAT     H153243   6.539   7.365   0.998
17667WAT     H253244   6.562   7.273   1.130
17668WAT      O53245   0.309   0.458   8.440
17668WAT     H153246   0.286   0.394   8.367
17668WAT     H253247   0.399   0.434   8.478
17669WAT      O53248   8.112   1.918   3.339
17669WAT     H153249   8.026   1.904   3.290
17669WAT     H253250   8.106   1.873   3.429
17670WAT      O53251   1.511   8.673   8.548
17670WAT     H153252   1.497   8.765   8.584
17670WAT     H253253   1.590   8.632   8.593
17671WAT      O53254   0.814   2.214   3.917
17671WAT     H153255   0.815   2.293   3.856
17671WAT     H253256   0.907   2.180   3.930
17672WAT      O53257   9.036   2.013   0.071
17672WAT     H153258   9.103   2.039   0.001
17672WAT     H253259   8.944   2.039   0.041
17673WAT      O53260   4.199   1.149   9.788
17673WAT     H153261   4.161   1.129   9.698
17673WAT     H253262   4.247   1.069   9.822
17674WAT      O53263   6.043   2.932   4.326
17674WAT     H153264   6.059   3.028   4.302
17674WAT     H253265   6.127   2.880   4.313
17675WAT      O53266   9.404   2.921   9.224
17675WAT     H153267   9.378   2.869   9.143
17675WAT     H253268   9.354   2.887   9.304
17676WAT      O53269   2.765   1.270   2.567
17676WAT     H153270   2.820   1.212   2.507
17676WAT     H253271   2.777   1.241   2.662
17677WAT      O53272   0.804   8.300   5.241
17677WAT     H153273   0.898   8.278   5.265
17677WAT     H253274   0.765   8.225   5.187
17678WAT      O53275   0.251   1.910   3.918
17678WAT     H153276   0.262   1.982   3.986
17678WAT     H253277   0.154   1.891   3.905
17679WAT      O53278   4.149   1.743   0.781
17679WAT     H153279   4.125   1.828   0.828
17679WAT     H253280   4.130   1.665   0.841
17680WAT      O53281   0.368   5.511   5.720
17680WAT     H153282   0.423   5.591   5.696
17680WAT     H253283   0.337   5.518   5.814
17681WAT      O53284   1.017   3.888   1.782
17681WAT     H153285   0.975   3.824   1.846
17681WAT     H253286   0.948   3.921   1.717
17682WAT      O53287   5.787   3.164   0.542
17682WAT     H153288   5.713   3.217   0.583
17682WAT     H253289   5.819   3.210   0.459
17683WAT      O53290   8.124   8.693   6.614
17683WAT     H153291   8.207   8.744   6.635
17683WAT     H253292   8.123   8.608   6.666
17684WAT      O53293   2.117   8.320   6.341
17684WAT     H153294   2.087   8.233   6.300
17684WAT     H253295   2.047   8.389   6.326
17685WAT      O53296   8.703   8.469   3.312
17685WAT     H153297   8.631   8.399   3.313
17685WAT     H253298   8.781   8.437   3.364
17686WAT      O53299   8.669   7.804   3.412
17686WAT     H153300   8.579   7.801   3.369
17686WAT     H253301   8.686   7.718   3.461
17687WAT      O53302   4.354   2.312   6.643
17687WAT     H153303   4.275   2.365   6.672
17687WAT     H253304   4.359   2.312   6.543
17688WAT      O53305   0.155   0.616   0.959
17688WAT     H153306   0.185   0.707   0.986
17688WAT     H253307   0.183   0.598   0.864
17689WAT      O53308   1.229   7.942   7.581
17689WAT     H153309   1.236   8.041   7.578
17689WAT     H253310   1.184   7.914   7.666
17690WAT      O53311   8.577   9.073   3.656
17690WAT     H153312   8.648   9.084   3.726
17690WAT     H253313   8.491   9.110   3.690
17691WAT      O53314   6.912   1.454   9.283
17691WAT     H153315   7.004   1.437   9.249
17691WAT     H253316   6.875   1.537   9.240
17692WAT      O53317   9.226   6.220   1.857
17692WAT     H153318   9.202   6.139   1.911
17692WAT     H253319   9.280   6.192   1.778
17693WAT      O53320   1.363   4.113   7.362
17693WAT     H153321   1.296   4.076   7.427
17693WAT     H253322   1.399   4.200   7.397
17694WAT      O53323   5.737   7.014   0.736
17694WAT     H153324   5.788   7.100   0.733
17694WAT     H253325   5.653   7.023   0.682
17695WAT      O53326   5.060   0.781   3.826
17695WAT     H153327   5.071   0.819   3.918
17695WAT     H253328   5.066   0.855   3.759
17696WAT      O53329   3.314   6.795   2.679
17696WAT     H153330   3.300   6.829   2.772
17696WAT     H253331   3.295   6.868   2.613
17697WAT      O53332   8.976   7.138   2.004
17697WAT     H153333   8.989   7.163   2.100
17697WAT     H253334   9.054   7.170   1.951
17698WAT      O53335   8.066   1.496   0.679
17698WAT     H153336   7.966   1.502   0.689
17698WAT     H253337   8.091   1.406   0.644
17699WAT      O53338   6.246   7.759   0.632
17699WAT     H153339   6.334   7.748   0.679
17699WAT     H253340   6.233   7.855   0.608
17700WAT      O53341   8.598   0.499   8.315
17700WAT     H153342   8.662   0.423   8.304
17700WAT     H253343   8.614   0.567   8.243
17701WAT      O53344   9.602   7.671   0.367
17701WAT     H153345   9.621   7.763   0.332
17701WAT     H253346   9.687   7.631   0.401
17702WAT      O53347   4.290   6.441   0.241
17702WAT     H153348   4.301   6.393   0.154
17702WAT     H253349   4.312   6.538   0.229
17703WAT      O53350   0.073   8.385   3.654
17703WAT     H153351   0.079   8.302   3.598
17703WAT     H253352  -0.017   8.390   3.696
17704WAT      O53353   4.720   2.181   5.583
17704WAT     H153354   4.777   2.134   5.650
17704WAT     H253355   4.651   2.118   5.548
17705WAT      O53356   0.384   3.947   6.476
17705WAT     H153357   0.359   4.039   6.507
17705WAT     H253358   0.397   3.887   6.555
17706WAT      O53359   0.075   5.962   4.475
17706WAT     H153360   0.162   5.929   4.511
17706WAT     H253361   0.091   6.010   4.388
17707WAT      O53362   5.060   7.463   2.812
17707WAT     H153363   5.134   7.523   2.783
17707WAT     H253364   5.095   7.397   2.879
17708WAT      O53365   2.296   2.898   1.932
17708WAT     H153366   2.269   2.824   1.870
17708WAT     H253367   2.227   2.970   1.929
17709WAT      O53368   4.186   1.035   7.624
17709WAT     H153369   4.126   1.075   7.694
17709WAT     H253370   4.277   1.021   7.662
17710WAT      O53371   9.535   7.260   7.824
17710WAT     H153372   9.598   7.257   7.747
17710WAT     H253373   9.552   7.182   7.885
17711WAT      O53374   3.644   2.524   1.071
17711WAT     H153375   3.547   2.550   1.065
17711WAT     H253376   3.698   2.605   1.095
17712WAT      O53377   2.916   0.018   7.817
17712WAT     H153378   2.844   0.020   7.886
17712WAT     H253379   2.979  -0.057   7.837
17713WAT      O53380   4.732   4.542   2.985
17713WAT     H153381   4.734   4.497   3.075
17713WAT     H253382   4.742   4.473   2.913
17714WAT      O53383   9.747   1.646   8.753
17714WAT     H153384   9.818   1.711   8.725
17714WAT     H253385   9.733   1.579   8.680
17715WAT      O53386   4.772   0.014   5.996
17715WAT     H153387   4.858   0.047   6.034
17715WAT     H253388   4.788  -0.028   5.907
17716WAT      O53389   8.526   8.666   8.820
17716WAT     H153390   8.592   8.620   8.761
17716WAT     H253391   8.571   8.695   8.904
17717WAT      O53392   0.943   7.328   8.941
17717WAT     H153393   0.988   7.402   8.990
17717WAT     H253394   0.973   7.240   8.976
17718WAT      O53395   2.177   3.874   6.426
17718WAT     H153396   2.095   3.894   6.373
17718WAT     H253397   2.173   3.923   6.513
17719WAT      O53398   8.878   6.923   9.554
17719WAT     H153399   8.801   6.973   9.594
17719WAT     H253400   8.895   6.957   9.462
17720WAT      O53401   0.277   5.203   1.835
17720WAT     H153402   0.247   5.219   1.929
17720WAT     H253403   0.328   5.282   1.802
17721WAT      O53404   8.099   6.725   5.193
17721WAT     H153405   8.056   6.813   5.212
17721WAT     H253406   8.080   6.662   5.268
17722WAT      O53407   2.146   7.970   7.364
17722WAT     H153408   2.212   8.044   7.349
17722WAT     H253409   2.057   7.998   7.329
17723WAT      O53410   8.619   1.144   9.438
17723WAT     H153411   8.633   1.199   9.520
17723WAT     H253412   8.708   1.125   9.396
17724WAT      O53413   1.364   3.025   2.382
17724WAT     H153414   1.374   2.980   2.293
17724WAT     H253415   1.337   2.957   2.450
17725WAT      O53416   3.747   0.822   6.878
17725WAT     H153417   3.798   0.843   6.962
17725WAT     H253418   3.717   0.907   6.835
17726WAT      O53419   1.178   5.413   8.117
17726WAT     H153420   1.095   5.433   8.065
17726WAT     H253421   1.194   5.485   8.185
17727WAT      O53422   9.704   2.893   8.943
17727WAT     H153423   9.725   2.856   9.034
17727WAT     H253424   9.605   2.890   8.929
17728WAT      O53425   7.381   8.682   5.281
17728WAT     H153426   7.282   8.700   5.277
17728WAT     H253427   7.396   8.588   5.313
17729WAT      O53428   5.677   2.593   7.501
17729WAT     H153429   5.760   2.632   7.463
17729WAT     H253430   5.696   2.551   7.589
17730WAT      O53431   8.034   2.470   4.384
17730WAT     H153432   7.983   2.489   4.301
17730WAT     H253433   8.110   2.535   4.392
17731WAT      O53434   7.989   2.926   1.456
17731WAT     H153435   8.073   2.896   1.502
17731WAT     H253436   8.006   2.932   1.357
17732WAT      O53437   3.698   1.056   3.821
17732WAT     H153438   3.777   0.997   3.836
17732WAT     H253439   3.677   1.059   3.723
17733WAT      O53440   7.324   5.264   7.668
17733WAT     H153441   7.284   5.261   7.760
17733WAT     H253442   7.391   5.337   7.664
17734WAT      O53443   2.952   2.583   4.951
17734WAT     H153444   3.024   2.521   4.981
17734WAT     H253445   2.913   2.630   5.030
17735WAT      O53446   2.934   4.426   7.339
17735WAT     H153447   3.015   4.485   7.339
17735WAT     H253448   2.864   4.466   7.281
17736WAT      O53449   4.267   7.018   8.044
17736WAT     H153450   4.265   7.089   8.114
17736WAT     H253451   4.226   6.934   8.081
17737WAT      O53452   7.986   3.544   6.490
17737WAT     H153453   7.943   3.624   6.447
17737WAT     H253454   7.960   3.461   6.440
17738WAT      O53455   6.417   7.280   0.386
17738WAT     H153456   6.337   7.222   0.373
17738WAT     H253457   6.388   7.375   0.397
17739WAT      O53458   3.655   8.006   4.712
17739WAT     H153459   3.672   8.002   4.810
17739WAT     H253460   3.560   7.981   4.694
17740WAT      O53461   6.070   3.976   5.801
17740WAT     H153462   6.034   4.053   5.854
17740WAT     H253463   6.027   3.891   5.834
17741WAT      O53464   7.251   5.893   1.263
17741WAT     H153465   7.297   5.827   1.205
17741WAT     H253466   7.190   5.845   1.326
17742WAT      O53467   9.444   3.397   3.502
17742WAT     H153468   9.456   3.327   3.432
17742WAT     H253469   9.406   3.480   3.462
17743WAT      O53470   5.653   1.854   6.717
17743WAT     H153471   5.683   1.900   6.800
17743WAT     H253472   5.690   1.901   6.637
17744WAT      O53473   7.885   7.570   4.393
17744WAT     H153474   7.898   7.635   4.318
17744WAT     H253475   7.969   7.518   4.407
17745WAT      O53476   1.262   5.759   3.573
17745WAT     H153477   1.299   5.788   3.662
17745WAT     H253478   1.337   5.725   3.516
17746WAT      O53479   8.696   0.777   7.940
17746WAT     H153480   8.750   0.843   7.992
17746WAT     H253481   8.634   0.825   7.878
17747WAT      O53482   0.836   1.119   3.156
17747WAT     H153483   0.891   1.038   3.139
17747WAT     H253484   0.887   1.201   3.130
17748WAT      O53485   5.774   8.535   4.122
17748WAT     H153486   5.728   8.501   4.203
17748WAT     H253487   5.852   8.593   4.149
17749WAT      O53488   1.084   5.170   9.780
17749WAT     H153489   1.163   5.135   9.731
17749WAT     H253490   1.005   5.112   9.762
17750WAT      O53491   2.739   2.337   5.324
17750WAT     H153492   2.748   2.253   5.377
17750WAT     H253493   2.643   2.363   5.317
17751WAT      O53494   6.665   8.044   7.746
17751WAT     H153495   6.682   7.946   7.737
17751WAT     H253496   6.577   8.058   7.792
17752WAT      O53497   8.758   5.158   6.988
17752WAT     H153498   8.795   5.112   7.069
17752WAT     H253499   8.723   5.089   6.924
17753WAT      O53500   3.780   6.718   3.919
17753WAT     H153501   3.843   6.677   3.853
17753WAT     H253502   3.695   6.666   3.920
17754WAT      O53503   1.597   4.016   7.258
17754WAT     H153504   1.674   4.054   7.310
17754WAT     H253505   1.512   4.053   7.294
17755WAT      O53506   0.779   4.180   7.526
17755WAT     H153507   0.830   4.104   7.568
17755WAT     H253508   0.798   4.181   7.428
17756WAT      O53509   7.330   6.546   3.633
17756WAT     H153510   7.231   6.552   3.633
17756WAT     H253511   7.369   6.635   3.608
17757WAT      O53512   4.292   2.127   0.430
17757WAT     H153513   4.265   2.031   0.433
17757WAT     H253514   4.276   2.162   0.337
17758WAT      O53515   9.069   9.358   6.281
17758WAT     H153516   9.106   9.265   6.287
17758WAT     H253517   9.077   9.391   6.187
17759WAT      O53518   2.040   7.467   9.505
17759WAT     H153519   2.060   7.549   9.452
17759WAT     H253520   1.965   7.417   9.462
17760WAT      O53521   3.510   7.756   1.284
17760WAT     H153522   3.610   7.758   1.296
17760WAT     H253523   3.466   7.769   1.372
17761WAT      O53524   0.462   8.070   5.992
17761WAT     H153525   0.415   8.147   5.949
17761WAT     H253526   0.444   7.986   5.941
17762WAT      O53527   4.902   9.605   8.630
17762WAT     H153528   4.813   9.560   8.618
17762WAT     H253529   4.897   9.669   8.706
17763WAT      O53530   0.960   9.607   3.686
17763WAT     H153531   1.006   9.554   3.615
17763WAT     H253532   0.868   9.570   3.700
17764WAT      O53533   0.171   2.631   7.678
17764WAT     H153534   0.236   2.692   7.633
17764WAT     H253535   0.219   2.549   7.710
17765WAT      O53536   4.065   3.523   9.760
17765WAT     H153537   4.149   3.491   9.718
17765WAT     H253538   4.024   3.594   9.703
17766WAT      O53539   4.714   2.224   4.503
17766WAT     H153540   4.728   2.139   4.552
17766WAT     H253541   4.760   2.220   4.414
17767WAT      O53542   0.244   0.992   3.950
17767WAT     H153543   0.150   0.960   3.938
17767WAT     H253544   0.259   1.017   4.045
17768WAT      O53545   3.216   6.859   8.648
17768WAT     H153546   3.310   6.838   8.621
17768WAT     H253547   3.164   6.774   8.652
17769WAT      O53548   9.065   2.220   0.824
17769WAT     H153549   9.124   2.298   0.802
17769WAT     H253550   9.054   2.214   0.923
17770WAT      O53551   0.599   9.295   8.937
17770WAT     H153552   0.544   9.352   8.998
17770WAT     H253553   0.540   9.229   8.891
17771WAT      O53554   2.578   5.094   1.255
17771WAT     H153555   2.560   5.096   1.157
17771WAT     H253556   2.539   5.010   1.294
17772WAT      O53557   4.431   5.593   1.539
17772WAT     H153558   4.440   5.498   1.569
17772WAT     H253559   4.519   5.639   1.547
17773WAT      O53560   9.551   6.421   9.579
17773WAT     H153561   9.514   6.334   9.545
17773WAT     H253562   9.636   6.403   9.629
17774WAT      O53563   4.091   3.319   6.059
17774WAT     H153564   4.180   3.280   6.035
17774WAT     H253565   4.091   3.417   6.038
17775WAT      O53566   4.267   6.465   7.326
17775WAT     H153567   4.363   6.436   7.319
17775WAT     H253568   4.227   6.470   7.234
17776WAT      O53569   7.562   5.149   6.690
17776WAT     H153570   7.654   5.188   6.687
17776WAT     H253571   7.541   5.121   6.784
17777WAT      O53572   5.319   4.012   0.544
17777WAT     H153573   5.235   4.045   0.501
17777WAT     H253574   5.321   3.912   0.542
17778WAT      O53575   3.204   1.953   6.043
17778WAT     H153576   3.136   2.011   5.999
17778WAT     H253577   3.276   2.009   6.083
17779WAT      O53578   0.741   6.871   7.687
17779WAT     H153579   0.655   6.905   7.727
17779WAT     H253580   0.779   6.941   7.626
17780WAT      O53581   2.052   5.648   7.361
17780WAT     H153582   2.088   5.657   7.454
17780WAT     H253583   2.084   5.562   7.322
17781WAT      O53584   9.431   9.338   4.840
17781WAT     H153585   9.385   9.427   4.835
17781WAT     H253586   9.503   9.341   4.909
17782WAT      O53587   6.046   0.388   7.798
17782WAT     H153588   6.036   0.289   7.793
17782WAT     H253589   6.127   0.411   7.851
17783WAT      O53590   6.215   6.720   9.295
17783WAT     H153591   6.229   6.691   9.390
17783WAT     H253592   6.122   6.754   9.283
17784WAT      O53593   7.215   2.874   3.467
17784WAT     H153594   7.188   2.905   3.559
17784WAT     H253595   7.298   2.820   3.473
17785WAT      O53596   2.931   9.153   3.925
17785WAT     H153597   2.994   9.092   3.875
17785WAT     H253598   2.842   9.152   3.880
17786WAT      O53599   9.860   5.839   3.323
17786WAT     H153600   9.783   5.799   3.274
17786WAT     H253601   9.826   5.910   3.385
17787WAT      O53602   2.662   8.275   9.820
17787WAT     H153603   2.691   8.273   9.915
17787WAT     H253604   2.730   8.325   9.766
17788WAT      O53605   9.672   2.076   8.115
17788WAT     H153606   9.616   2.000   8.149
17788WAT     H253607   9.649   2.094   8.020
17789WAT      O53608   5.277   0.646   5.911
17789WAT     H153609   5.249   0.613   5.821
17789WAT     H253610   5.221   0.602   5.981
17790WAT      O53611   0.719   6.205   1.391
17790WAT     H153612   0.791   6.170   1.451
17790WAT     H253613   0.730   6.304   1.381
17791WAT      O53614   8.484   6.499   0.791
17791WAT     H153615   8.460   6.591   0.760
17791WAT     H253616   8.555   6.461   0.731
17792WAT      O53617   7.898   8.909   3.484
17792WAT     H153618   7.954   8.832   3.517
17792WAT     H253619   7.856   8.956   3.562
17793WAT      O53620   6.845   9.748   5.368
17793WAT     H153621   6.841   9.744   5.269
17793WAT     H253622   6.882   9.837   5.397
17794WAT      O53623   1.002   7.535   9.131
17794WAT     H153624   1.049   7.523   9.218
17794WAT     H253625   0.910   7.570   9.148
17795WAT      O53626   8.424   2.844   3.341
17795WAT     H153627   8.488   2.807   3.408
17795WAT     H253628   8.353   2.777   3.321
17796WAT      O53629   5.944   3.307   2.150
17796WAT     H153630   5.984   3.286   2.240
17796WAT     H253631   5.873   3.377   2.161
17797WAT      O53632   8.495   9.654   2.515
17797WAT     H153633   8.479   9.743   2.556
17797WAT     H253634   8.409   9.606   2.503
17798WAT      O53635   8.962   6.519   6.859
17798WAT     H153636   8.881   6.572   6.832
17798WAT     H253637   8.943   6.422   6.850
17799WAT      O53638   7.495   3.695   8.212
17799WAT     H153639   7.497   3.778   8.156
17799WAT     H253640   7.465   3.719   8.305
17800WAT      O53641   8.666   8.434   2.059
17800WAT     H153642   8.599   8.389   2.000
17800WAT     H253643   8.731   8.367   2.093
17801WAT      O53644   3.376   8.575   2.077
17801WAT     H153645   3.406   8.618   1.992
17801WAT     H253646   3.417   8.622   2.155
17802WAT      O53647   2.679   2.009   4.577
17802WAT     H153648   2.693   2.033   4.481
17802WAT     H253649   2.660   1.911   4.585
17803WAT      O53650   1.730   5.677   2.386
17803WAT     H153651   1.787   5.688   2.305
17803WAT     H253652   1.761   5.740   2.457
17804WAT      O53653   6.174   2.331   5.326
17804WAT     H153654   6.114   2.267   5.373
17804WAT     H253655   6.239   2.280   5.269
17805WAT      O53656   7.398   0.944   6.697
17805WAT     H153657   7.350   0.913   6.615
17805WAT     H253658   7.494   0.917   6.691
17806WAT      O53659   1.502   5.490   8.904
17806WAT     H153660   1.487   5.587   8.925
17806WAT     H253661   1.584   5.459   8.950
17807WAT      O53662   0.237   6.480   9.716
17807WAT     H153663   0.217   6.385   9.693
17807WAT     H253664   0.179   6.540   9.661
17808WAT      O53665   6.571   8.752   1.317
17808WAT     H153666   6.632   8.821   1.278
17808WAT     H253667   6.561   8.676   1.252
17809WAT      O53668   6.955   4.578   1.248
17809WAT     H153669   6.856   4.575   1.253
17809WAT     H253670   6.993   4.585   1.340
17810WAT      O53671   7.786   8.958   6.133
17810WAT     H153672   7.700   8.985   6.088
17810WAT     H253673   7.815   8.869   6.098
17811WAT      O53674   6.807   3.760   0.664
17811WAT     H153675   6.815   3.830   0.736
17811WAT     H253676   6.871   3.782   0.590
17812WAT      O53677   2.060   5.365   3.930
17812WAT     H153678   1.971   5.353   3.972
17812WAT     H253679   2.132   5.362   4.000
17813WAT      O53680   6.465   5.129   2.128
17813WAT     H153681   6.537   5.061   2.114
17813WAT     H253682   6.502   5.207   2.178
17814WAT      O53683   1.493   4.269   0.194
17814WAT     H153684   1.409   4.301   0.237
17814WAT     H253685   1.475   4.187   0.140
17815WAT      O53686   8.549   0.588   2.622
17815WAT     H153687   8.548   0.490   2.644
17815WAT     H253688   8.455   0.621   2.614
17816WAT      O53689   0.633   9.164   0.052
17816WAT     H153690   0.596   9.256   0.039
17816WAT     H253691   0.698   9.143  -0.021
17817WAT      O53692   6.205   7.347   9.617
17817WAT     H153693   6.186   7.302   9.530
17817WAT     H253694   6.119   7.370   9.662
17818WAT      O53695   7.551   7.251   1.945
17818WAT     H153696   7.500   7.246   1.859
17818WAT     H253697   7.532   7.339   1.990
17819WAT      O53698   5.097   4.425   1.102
17819WAT     H153699   5.103   4.328   1.126
17819WAT     H253700   5.082   4.478   1.185
17820WAT      O53701   0.287   9.819   9.378
17820WAT     H153702   0.283   9.722   9.352
17820WAT     H253703   0.245   9.831   9.468
17821WAT      O53704   2.866   7.503   9.563
17821WAT     H153705   2.888   7.548   9.649
17821WAT     H253706   2.767   7.486   9.559
17822WAT      O53707   5.012   2.954   5.275
17822WAT     H153708   4.941   2.929   5.341
17822WAT     H253709   5.080   2.881   5.270
17823WAT      O53710   2.863   6.403   3.290
17823WAT     H153711   2.904   6.345   3.360
17823WAT     H253712   2.930   6.422   3.218
17824WAT      O53713   3.358   9.235   5.429
17824WAT     H153714   3.348   9.314   5.368
17824WAT     H253715   3.454   9.224   5.453
17825WAT      O53716   6.363   9.479   5.116
17825WAT     H153717   6.422   9.527   5.181
17825WAT     H253718   6.410   9.470   5.028
17826WAT      O53719   2.064   8.313   3.101
17826WAT     H153720   2.156   8.288   3.074
17826WAT     H253721   2.022   8.370   3.030
17827WAT      O53722   9.092   4.611   1.617
17827WAT     H153723   9.019   4.631   1.551
17827WAT     H253724   9.180   4.612   1.571
17828WAT      O53725   4.932   9.124   9.434
17828WAT     H153726   4.841   9.165   9.425
17828WAT     H253727   5.001   9.190   9.404
17829WAT      O53728   2.312   3.332   7.345
17829WAT     H153729   2.365   3.256   7.382
17829WAT     H253730   2.244   3.361   7.412
17830WAT      O53731   5.304   2.663   5.804
17830WAT     H153732   5.381   2.720   5.835
17830WAT     H253733   5.339   2.586   5.751
17831WAT      O53734   0.241   8.506   6.654
17831WAT     H153735   0.177   8.468   6.588
17831WAT     H253736   0.281   8.590   6.618
17832WAT      O53737   1.241   1.939   4.714
17832WAT     H153738   1.255   2.033   4.684
17832WAT     H253739   1.317   1.882   4.684
17833WAT      O53740   2.397   3.285   5.774
17833WAT     H153741   2.414   3.225   5.852
17833WAT     H253742   2.325   3.245   5.717
17834WAT      O53743   8.391   0.907   8.699
17834WAT     H153744   8.383   0.920   8.600
17834WAT     H253745   8.406   0.995   8.744
17835WAT      O53746   8.796   4.033   6.454
17835WAT     H153747   8.789   4.101   6.381
17835WAT     H253748   8.804   4.080   6.542
17836WAT      O53749   5.126   2.414   5.170
17836WAT     H153750   5.223   2.440   5.163
17836WAT     H253751   5.116   2.318   5.143
17837WAT      O53752   7.997   4.402   3.799
17837WAT     H153753   8.035   4.471   3.736
17837WAT     H253754   7.911   4.367   3.762
17838WAT      O53755   9.823   7.852   4.278
17838WAT     H153756   9.755   7.831   4.348
17838WAT     H253757   9.881   7.927   4.310
17839WAT      O53758   1.005   8.041   8.255
17839WAT     H153759   0.925   7.981   8.255
17839WAT     H253760   1.044   8.046   8.164
17840WAT      O53761   8.626   3.507   3.052
17840WAT     H153762   8.723   3.480   3.051
17840WAT     H253763   8.619   3.606   3.067
17841WAT      O53764   8.656   3.584   4.172
17841WAT     H153765   8.751   3.604   4.199
17841WAT     H253766   8.655   3.503   4.115
17842WAT      O53767   5.523   7.416   0.009
17842WAT     H153768   5.620   7.413  -0.017
17842WAT     H253769   5.473   7.346  -0.040
17843WAT      O53770   9.319   2.332   6.815
17843WAT     H153771   9.293   2.272   6.739
17843WAT     H253772   9.403   2.298   6.857
17844WAT      O53773   9.222   1.903   1.169
17844WAT     H153774   9.284   1.954   1.110
17844WAT     H253775   9.273   1.866   1.247
17845WAT      O53776   8.540   0.497   1.493
17845WAT     H153777   8.486   0.530   1.570
17845WAT     H253778   8.493   0.516   1.407
17846WAT      O53779   1.662   0.748   0.254
17846WAT     H153780   1.670   0.847   0.242
17846WAT     H253781   1.746   0.713   0.294
17847WAT      O53782   5.778   4.315   4.582
17847WAT     H153783   5.776   4.413   4.601
17847WAT     H253784   5.748   4.298   4.488
17848WAT      O53785   0.857   4.520   0.494
17848WAT     H153786   0.758   4.506   0.491
17848WAT     H253787   0.876   4.608   0.538
17849WAT      O53788   9.429   2.361   0.237
17849WAT     H153789   9.433   2.270   0.196
17849WAT     H253790   9.397   2.353   0.332
17850WAT      O53791   8.978   7.019   2.494
17850WAT     H153792   8.895   7.066   2.524
17850WAT     H253793   8.954   6.946   2.429
17851WAT      O53794   1.079   0.482   4.954
17851WAT     H153795   1.149   0.550   4.930
17851WAT     H253796   1.108   0.392   4.919
17852WAT      O53797   8.569   2.216   2.621
17852WAT     H153798   8.488   2.157   2.616
17852WAT     H253799   8.541   2.311   2.607
17853WAT      O53800   0.926   6.969   3.617
17853WAT     H153801   1.000   6.948   3.552
17853WAT     H253802   0.934   7.065   3.645
17854WAT      O53803   7.237   7.790   7.670
17854WAT     H153804   7.237   7.690   7.671
17854WAT     H253805   7.161   7.823   7.726
17855WAT      O53806   9.797   7.146   4.762
17855WAT     H153807   9.756   7.089   4.691
17855WAT     H253808   9.775   7.109   4.852
17856WAT      O53809   8.454   9.229   4.488
17856WAT     H153810   8.457   9.322   4.523
17856WAT     H253811   8.409   9.170   4.555
17857WAT      O53812   9.710   4.007   4.465
17857WAT     H153813   9.737   3.913   4.485
17857WAT     H253814   9.663   4.047   4.544
17858WAT      O53815   7.933   5.149   5.369
17858WAT     H153816   7.909   5.052   5.378
17858WAT     H253817   7.854   5.205   5.395
17859WAT      O53818   7.431   9.570   6.973
17859WAT     H153819   7.478   9.629   6.907
17859WAT     H253820   7.333   9.591   6.972
17860WAT      O53821   5.857   0.764   0.696
17860WAT     H153822   5.831   0.832   0.764
17860WAT     H253823   5.948   0.786   0.660
17861WAT      O53824   0.174   5.831   5.031
17861WAT     H153825   0.159   5.913   4.977
17861WAT     H253826   0.198   5.755   4.971
17862WAT      O53827   4.969   7.023   7.868
17862WAT     H153828   4.890   7.060   7.918
17862WAT     H253829   4.939   6.990   7.779
17863WAT      O53830   0.685   7.540  -0.001
17863WAT     H153831   0.588   7.550   0.018
17863WAT     H253832   0.736   7.536   0.085
17864WAT      O53833   3.019   9.587   2.031
17864WAT     H153834   3.002   9.538   1.945
17864WAT     H253835   2.981   9.536   2.107
17865WAT      O53836   8.222   8.997   0.381
17865WAT     H153837   8.257   9.080   0.425
17865WAT     H253838   8.297   8.932   0.370
17866WAT      O53839   0.910   9.327   0.545
17866WAT     H153840   0.896   9.228   0.557
17866WAT     H253841   0.998   9.343   0.501
17867WAT      O53842   2.842   5.118   8.915
17867WAT     H153843   2.858   5.105   8.817
17867WAT     H253844   2.844   5.029   8.961
17868WAT      O53845   6.836   2.924   3.281
17868WAT     H153846   6.919   2.976   3.262
17868WAT     H253847   6.770   2.983   3.329
17869WAT      O53848   0.569   6.587   6.248
17869WAT     H153849   0.481   6.622   6.279
17869WAT     H253850   0.555   6.500   6.201
17870WAT      O53851   7.845   1.197   0.511
17870WAT     H153852   7.836   1.098   0.499
17870WAT     H253853   7.942   1.221   0.513
17871WAT      O53854   5.416   2.353   3.364
17871WAT     H153855   5.466   2.294   3.299
17871WAT     H253856   5.454   2.340   3.456
17872WAT      O53857   1.531   2.215   2.370
17872WAT     H153858   1.554   2.276   2.446
17872WAT     H253859   1.489   2.132   2.406
17873WAT      O53860   7.699   1.868   7.767
17873WAT     H153861   7.720   1.795   7.702
17873WAT     H253862   7.768   1.870   7.839
17874WAT      O53863   9.618   1.948   1.303
17874WAT     H153864   9.698   1.891   1.323
17874WAT     H253865   9.627   1.988   1.212
17875WAT      O53866   9.082   2.417   0.175
17875WAT     H153867   9.087   2.517   0.179
17875WAT     H253868   9.014   2.389   0.107
17876WAT      O53869   3.554   6.712   7.058
17876WAT     H153870   3.571   6.714   7.156
17876WAT     H253871   3.619   6.773   7.012
17877WAT      O53872   9.584   8.988   3.354
17877WAT     H153873   9.668   8.934   3.350
17877WAT     H253874   9.588   9.050   3.432
17878WAT      O53875   7.954   1.349   4.071
17878WAT     H153876   8.033   1.368   4.129
17878WAT     H253877   7.935   1.251   4.070
17879WAT      O53878  -0.003   5.138   7.397
17879WAT     H153879   0.092   5.158   7.372
17879WAT     H253880  -0.005   5.089   7.484
17880WAT      O53881   5.138   5.802   7.038
17880WAT     H153882   5.061   5.750   7.072
17880WAT     H253883   5.155   5.881   7.097
17881WAT      O53884   9.350   2.526   1.046
17881WAT     H153885   9.385   2.607   1.000
17881WAT     H253886   9.426   2.475   1.086
17882WAT      O53887   3.239   4.956   0.339
17882WAT     H153888   3.289   4.986   0.420
17882WAT     H253889   3.297   4.966   0.258
17883WAT      O53890   5.077   6.316   4.526
17883WAT     H153891   4.990   6.314   4.576
17883WAT     H253892   5.146   6.365   4.580
17884WAT      O53893   6.953   3.873   0.451
17884WAT     H153894   6.993   3.816   0.379
17884WAT     H253895   6.983   3.968   0.439
17885WAT      O53896   1.033   5.246   6.450
17885WAT     H153897   1.130   5.223   6.461
17885WAT     H253898   1.023   5.312   6.375
17886WAT      O53899   6.455   8.277   7.288
17886WAT     H153900   6.511   8.348   7.332
17886WAT     H253901   6.370   8.317   7.256
17887WAT      O53902   0.704   7.858   4.769
17887WAT     H153903   0.618   7.819   4.804
17887WAT     H253904   0.738   7.801   4.694
17888WAT      O53905   6.771   1.167   6.964
17888WAT     H153906   6.747   1.132   6.873
17888WAT     H253907   6.868   1.153   6.981
17889WAT      O53908   4.687   0.332   9.031
17889WAT     H153909   4.611   0.268   9.044
17889WAT     H253910   4.771   0.280   9.015
17890WAT      O53911   2.211   6.120   4.744
17890WAT     H153912   2.271   6.045   4.714
17890WAT     H253913   2.160   6.154   4.666
17891WAT      O53914   2.163   0.348   2.431
17891WAT     H153915   2.194   0.322   2.339
17891WAT     H253916   2.242   0.354   2.492
17892WAT      O53917   5.885   9.385   8.746
17892WAT     H153918   5.847   9.472   8.777
17892WAT     H253919   5.877   9.317   8.819
17893WAT      O53920   3.884   9.751   7.337
17893WAT     H153921   3.939   9.670   7.319
17893WAT     H253922   3.919   9.797   7.420
17894WAT      O53923   6.418   5.236   2.661
17894WAT     H153924   6.444   5.158   2.718
17894WAT     H253925   6.499   5.272   2.614
17895WAT      O53926   8.084   1.105   6.695
17895WAT     H153927   8.145   1.177   6.664
17895WAT     H253928   8.122   1.015   6.671
17896WAT      O53929   7.540   5.373   3.501
17896WAT     H153930   7.561   5.461   3.543
17896WAT     H253931   7.584   5.367   3.412
17897WAT      O53932   8.269   7.560   4.651
17897WAT     H153933   8.199   7.509   4.600
17897WAT     H253934   8.276   7.521   4.743
17898WAT      O53935   1.369   2.727   9.136
17898WAT     H153936   1.390   2.631   9.119
17898WAT     H253937   1.455   2.778   9.144
17899WAT      O53938   6.678   9.493   6.302
17899WAT     H153939   6.764   9.458   6.266
17899WAT     H253940   6.602   9.439   6.265
17900WAT      O53941   6.021   1.540   1.691
17900WAT     H153942   6.105   1.556   1.639
17900WAT     H253943   5.950   1.505   1.630
17901WAT      O53944   1.657   6.080   9.573
17901WAT     H153945   1.645   6.011   9.502
17901WAT     H253946   1.722   6.150   9.542
17902WAT      O53947   8.087   1.657   4.432
17902WAT     H153948   8.000   1.648   4.480
17902WAT     H253949   8.162   1.647   4.497
17903WAT      O53950   6.251   1.483   8.181
17903WAT     H153951   6.213   1.556   8.124
17903WAT     H253952   6.289   1.523   8.265
17904WAT      O53953   0.316   6.320   1.669
17904WAT     H153954   0.332   6.413   1.701
17904WAT     H253955   0.259   6.271   1.735
17905WAT      O53956   2.298   8.937   9.299
17905WAT     H153957   2.200   8.929   9.282
17905WAT     H253958   2.347   8.872   9.241
17906WAT      O53959   2.222   4.375   6.336
17906WAT     H153960   2.301   4.404   6.390
17906WAT     H253961   2.247   4.295   6.280
17907WAT      O53962   6.087   2.162   4.868
17907WAT     H153963   6.014   2.193   4.928
17907WAT     H253964   6.101   2.229   4.795
17908WAT      O53965   8.070   1.289   7.962
17908WAT     H153966   8.035   1.379   7.987
17908WAT     H253967   8.008   1.246   7.896
17909WAT      O53968   7.984   3.581   8.920
17909WAT     H153969   8.060   3.621   8.869
17909WAT     H253970   7.968   3.635   9.003
17910WAT      O53971   1.946   2.138   3.643
17910WAT     H153972   2.006   2.200   3.593
17910WAT     H253973   1.956   2.045   3.606
17911WAT      O53974   3.595   4.322   3.585
17911WAT     H153975   3.550   4.371   3.510
17911WAT     H253976   3.545   4.239   3.606
17912WAT      O53977   1.969   0.675   9.522
17912WAT     H153978   1.999   0.580   9.521
17912WAT     H253979   1.973   0.710   9.616
17913WAT      O53980   2.464   1.847   8.039
17913WAT     H153981   2.531   1.858   7.965
17913WAT     H253982   2.372   1.841   7.999
17914WAT      O53983   1.508   3.050   6.195
17914WAT     H153984   1.428   3.066   6.254
17914WAT     H253985   1.554   3.137   6.177
17915WAT      O53986   1.458   8.522   6.911
17915WAT     H153987   1.530   8.467   6.869
17915WAT     H253988   1.494   8.567   6.993
17916WAT      O53989   8.268   8.644   8.802
17916WAT     H153990   8.246   8.549   8.822
17916WAT     H253991   8.368   8.655   8.799
17917WAT      O53992   8.599   5.403   0.771
17917WAT     H153993   8.520   5.455   0.738
17917WAT     H253994   8.639   5.449   0.850
17918WAT      O53995   7.591   7.920   9.066
17918WAT     H153996   7.530   7.850   9.104
17918WAT     H253997   7.669   7.876   9.023
17919WAT      O53998   1.684   9.044   8.711
17919WAT     H153999   1.758   9.005   8.656
17919WAT     H254000   1.658   9.134   8.674
17920WAT      O54001   8.677   0.818   4.400
17920WAT     H154002   8.775   0.798   4.413
17920WAT     H254003   8.664   0.862   4.312
17921WAT      O54004   7.876   5.434   0.195
17921WAT     H154005   7.788   5.408   0.156
17921WAT     H254006   7.887   5.392   0.285
17922WAT      O54007   5.604   2.866   0.254
17922WAT     H154008   5.512   2.893   0.228
17922WAT     H254009   5.662   2.948   0.262
17923WAT      O54010   9.477   3.043   4.676
17923WAT     H154011   9.558   3.102   4.681
17923WAT     H254012   9.441   3.029   4.768
17924WAT      O54013   7.672   5.802   8.784
17924WAT     H154014   7.755   5.747   8.789
17924WAT     H254015   7.627   5.804   8.873
17925WAT      O54016   9.187   2.814   5.281
17925WAT     H154017   9.145   2.901   5.309
17925WAT     H254018   9.160   2.794   5.186
17926WAT      O54019   4.332   8.472   4.243
17926WAT     H154020   4.265   8.426   4.184
17926WAT     H254021   4.332   8.429   4.334
17927WAT      O54022   4.551   5.445   2.632
17927WAT     H154023   4.614   5.410   2.702
17927WAT     H254024   4.540   5.377   2.560
17928WAT      O54025   7.346   4.116   7.243
17928WAT     H154026   7.350   4.026   7.201
17928WAT     H254027   7.289   4.113   7.324
17929WAT      O54028   2.411   7.912   8.043
17929WAT     H154029   2.384   7.957   8.129
17929WAT     H254030   2.383   7.816   8.046
17930WAT      O54031   7.222   1.283   8.016
17930WAT     H154032   7.316   1.275   8.049
17930WAT     H254033   7.210   1.372   7.970
17931WAT      O54034   4.989   4.441   8.266
17931WAT     H154035   4.988   4.410   8.171
17931WAT     H254036   4.896   4.468   8.293
17932WAT      O54037   7.441   9.380   9.821
17932WAT     H154038   7.354   9.348   9.786
17932WAT     H254039   7.473   9.318   9.892
17933WAT      O54040   7.690   0.845   0.913
17933WAT     H154041   7.628   0.811   0.983
17933WAT     H254042   7.759   0.905   0.955
17934WAT      O54043   3.265   4.763   7.051
17934WAT     H154044   3.331   4.687   7.047
17934WAT     H254045   3.310   4.843   7.090
17935WAT      O54046   3.225   7.077   6.704
17935WAT     H154047   3.216   7.155   6.767
17935WAT     H254048   3.190   6.994   6.749
17936WAT      O54049   5.530   7.704   1.161
17936WAT     H154050   5.595   7.708   1.085
17936WAT     H254051   5.443   7.745   1.133
17937WAT      O54052   5.139   7.262   2.993
17937WAT     H154053   5.123   7.168   2.963
17937WAT     H254054   5.217   7.264   3.056
17938WAT      O54055   5.899   4.306   7.014
17938WAT     H154056   5.958   4.278   6.938
17938WAT     H254057   5.855   4.393   6.992
17939WAT      O54058   6.619   0.121   6.475
17939WAT     H154059   6.522   0.126   6.452
17939WAT     H254060   6.666   0.062   6.409
17940WAT      O54061   0.998   6.540   1.842
17940WAT     H154062   1.091   6.511   1.819
17940WAT     H254063   1.002   6.628   1.889
17941WAT      O54064   3.530   2.097   1.242
17941WAT     H154065   3.537   2.028   1.313
17941WAT     H254066   3.478   2.175   1.276
17942WAT      O54067   1.209   3.706   7.532
17942WAT     H154068   1.219   3.709   7.432
17942WAT     H254069   1.223   3.612   7.564
17943WAT      O54070   2.226   2.644   8.129
17943WAT     H154071   2.313   2.676   8.164
17943WAT     H254072   2.241   2.593   8.044
17944WAT      O54073   4.692   4.265   1.321
17944WAT     H154074   4.676   4.167   1.325
17944WAT     H254075   4.698   4.302   1.414
17945WAT      O54076   4.471   6.550   1.098
17945WAT     H154077   4.445   6.611   1.172
17945WAT     H254078   4.414   6.467   1.101
17946WAT      O54079   6.644   2.960   1.064
17946WAT     H154080   6.668   2.868   1.094
17946WAT     H254081   6.696   3.027   1.116
17947WAT      O54082   5.385   4.859   9.543
17947WAT     H154083   5.324   4.894   9.613
17947WAT     H254084   5.480   4.882   9.566
17948WAT      O54085   4.131   3.799   8.123
17948WAT     H154086   4.223   3.772   8.095
17948WAT     H254087   4.124   3.797   8.222
17949WAT      O54088   2.542   6.531   8.345
17949WAT     H154089   2.510   6.550   8.252
17949WAT     H254090   2.466   6.497   8.400
17950WAT      O54091   7.683   4.398   0.130
17950WAT     H154092   7.632   4.396   0.217
17950WAT     H254093   7.770   4.349   0.141
17951WAT      O54094   6.962   9.426   2.485
17951WAT     H154095   6.985   9.389   2.396
17951WAT     H254096   6.906   9.360   2.535
17952WAT      O54097   3.630   0.221   7.602
17952WAT     H154098   3.577   0.141   7.573
17952WAT     H254099   3.718   0.222   7.555
17953WAT      O54100   9.845   7.367   0.298
17953WAT     H154101   9.859   7.431   0.373
17953WAT     H254102   9.844   7.416   0.211
17954WAT      O54103   4.945   8.027   2.827
17954WAT     H154104   4.940   7.927   2.832
17954WAT     H254105   4.928   8.065   2.918
17955WAT      O54106   3.400   8.687   0.889
17955WAT     H154107   3.342   8.621   0.937
17955WAT     H254108   3.488   8.644   0.867
17956WAT      O54109   2.145   1.521   6.736
17956WAT     H154110   2.147   1.421   6.735
17956WAT     H254111   2.064   1.554   6.688
17957WAT      O54112   0.237   4.856   8.789
17957WAT     H154113   0.283   4.928   8.736
17957WAT     H254114   0.237   4.771   8.738
17958WAT      O54115   9.730   8.665   9.274
17958WAT     H154116   9.824   8.632   9.283
17958WAT     H254117   9.689   8.676   9.365
17959WAT      O54118   5.376   3.416   6.734
17959WAT     H154119   5.394   3.444   6.640
17959WAT     H254120   5.280   3.387   6.742
17960WAT      O54121   6.041   7.901   6.158
17960WAT     H154122   6.128   7.936   6.123
17960WAT     H254123   6.058   7.823   6.218
17961WAT      O54124   3.438   2.741   3.759
17961WAT     H154125   3.389   2.791   3.830
17961WAT     H254126   3.496   2.804   3.707
17962WAT      O54127   9.299   2.717   1.992
17962WAT     H154128   9.331   2.649   1.927
17962WAT     H254129   9.329   2.691   2.084
17963WAT      O54130   4.999   0.512   5.667
17963WAT     H154131   5.097   0.526   5.656
17963WAT     H254132   4.983   0.425   5.714
17964WAT      O54133   1.863   0.495   8.330
17964WAT     H154134   1.837   0.524   8.238
17964WAT     H254135   1.916   0.411   8.325
17965WAT      O54136   3.464   0.754   9.143
17965WAT     H154137   3.497   0.662   9.167
17965WAT     H254138   3.364   0.755   9.146
17966WAT      O54139   5.257   5.696   5.105
17966WAT     H154140   5.266   5.602   5.139
17966WAT     H254141   5.245   5.695   5.006
17967WAT      O54142   4.579   2.154   3.806
17967WAT     H154143   4.489   2.146   3.763
17967WAT     H254144   4.623   2.238   3.775
17968WAT      O54145   0.313   4.873   9.048
17968WAT     H154146   0.270   4.865   8.958
17968WAT     H254147   0.401   4.919   9.039
17969WAT      O54148   5.565   8.494   2.654
17969WAT     H154149   5.570   8.472   2.751
17969WAT     H254150   5.590   8.414   2.600
17970WAT      O54151   4.823   5.266   1.672
17970WAT     H154152   4.786   5.309   1.754
17970WAT     H254153   4.912   5.226   1.692
17971WAT      O54154   7.901   8.355   5.515
17971WAT     H154155   7.867   8.434   5.465
17971WAT     H254156   7.874   8.271   5.466
17972WAT      O54157   9.247   9.686   5.876
17972WAT     H154158   9.164   9.740   5.859
17972WAT     H254159   9.270   9.633   5.794
17973WAT      O54160   2.562   6.957   5.278
17973WAT     H154161   2.463   6.952   5.292
17973WAT     H254162   2.582   6.948   5.181
17974WAT      O54163   6.270   4.501   8.726
17974WAT     H154164   6.170   4.504   8.725
17974WAT     H254165   6.307   4.593   8.737
17975WAT      O54166   7.813   7.103   2.038
17975WAT     H154167   7.823   7.137   1.944
17975WAT     H254168   7.749   7.162   2.088
17976WAT      O54169   0.982   7.586   0.049
17976WAT     H154170   0.946   7.660  -0.008
17976WAT     H254171   1.070   7.613   0.088
17977WAT      O54172   6.294   4.393   6.985
17977WAT     H154173   6.384   4.390   6.942
17977WAT     H254174   6.225   4.357   6.922
17978WAT      O54175   7.168   1.658   3.537
17978WAT     H154176   7.139   1.563   3.523
17978WAT     H254177   7.088   1.718   3.531
17979WAT      O54178   2.529   1.609   8.155
17979WAT     H154179   2.438   1.584   8.186
17979WAT     H254180   2.525   1.696   8.106
17980WAT      O54181   5.034   9.599   3.317
17980WAT     H154182   5.116   9.550   3.346
17980WAT     H254183   5.060   9.678   3.262
17981WAT      O54184   2.954   8.113   0.687
17981WAT     H154185   2.992   8.178   0.622
17981WAT     H254186   2.995   8.023   0.673
17982WAT      O54187   3.510   2.811   0.167
17982WAT     H154188   3.534   2.722   0.127
17982WAT     H254189   3.427   2.845   0.123
17983WAT      O54190   4.305   8.641   7.669
17983WAT     H154191   4.296   8.555   7.719
17983WAT     H254192   4.375   8.697   7.711
17984WAT      O54193   6.678   8.821   0.289
17984WAT     H154194   6.605   8.764   0.252
17984WAT     H254195   6.766   8.775   0.276
17985WAT      O54196   0.622   8.471   2.736
17985WAT     H154197   0.580   8.466   2.826
17985WAT     H254198   0.685   8.548   2.732
17986WAT      O54199   8.601   6.797   4.890
17986WAT     H154200   8.552   6.850   4.960
17986WAT     H254201   8.663   6.858   4.840
17987WAT      O54202   9.591   4.929   1.508
17987WAT     H154203   9.532   4.993   1.461
17987WAT     H254204   9.608   4.850   1.449
17988WAT      O54205   6.626   5.229   1.847
17988WAT     H154206   6.621   5.318   1.893
17988WAT     H254207   6.548   5.173   1.874
17989WAT      O54208   8.416   1.810   1.226
17989WAT     H154209   8.378   1.717   1.218
17989WAT     H254210   8.341   1.876   1.232
17990WAT      O54211   1.441   2.049   5.327
17990WAT     H154212   1.373   2.056   5.400
17990WAT     H254213   1.507   1.977   5.350
17991WAT      O54214   4.388   5.321   9.684
17991WAT     H154215   4.358   5.413   9.660
17991WAT     H254216   4.487   5.321   9.700
17992WAT      O54217   3.688   1.356   0.861
17992WAT     H154218   3.686   1.434   0.923
17992WAT     H254219   3.762   1.294   0.887
17993WAT      O54220   1.351   6.361   0.742
17993WAT     H154221   1.311   6.449   0.717
17993WAT     H254222   1.435   6.347   0.691
17994WAT      O54223   6.737   5.344   1.062
17994WAT     H154224   6.679   5.408   1.012
17994WAT     H254225   6.680   5.286   1.120
17995WAT      O54226   4.552   1.825   6.020
17995WAT     H154227   4.645   1.861   6.025
17995WAT     H254228   4.488   1.891   6.059
17996WAT      O54229   6.218   2.403   0.565
17996WAT     H154230   6.288   2.420   0.495
17996WAT     H254231   6.144   2.350   0.524
17997WAT      O54232   8.336   4.394   5.103
17997WAT     H154233   8.377   4.326   5.163
17997WAT     H254234   8.400   4.471   5.091
17998WAT      O54235   7.355   6.907   6.012
17998WAT     H154236   7.439   6.958   5.994
17998WAT     H254237   7.307   6.892   5.926
17999WAT      O54238   6.783   1.736   2.564
17999WAT     H154239   6.753   1.692   2.649
17999WAT     H254240   6.721   1.711   2.490
18000WAT      O54241   6.152   0.082   8.284
18000WAT     H154242   6.103   0.026   8.217
18000WAT     H254243   6.197   0.022   8.351
18001WAT      O54244   8.190   4.735   5.766
18001WAT     H154245   8.169   4.751   5.669
18001WAT     H254246   8.283   4.701   5.774
18002WAT      O54247   4.729   0.210   6.950
18002WAT     H154248   4.732   0.301   6.907
18002WAT     H254249   4.697   0.143   6.884
18003WAT      O54250   4.614   0.510   6.520
18003WAT     H154251   4.652   0.448   6.451
18003WAT     H254252   4.689   0.550   6.573
18004WAT      O54253   3.883   5.754   7.671
18004WAT     H154254   3.901   5.818   7.745
18004WAT     H254255   3.852   5.804   7.590
18005WAT      O54256   0.161   8.903   5.479
18005WAT     H154257   0.245   8.897   5.533
18005WAT     H254258   0.089   8.946   5.533
18006WAT      O54259   1.319   3.304   2.949
18006WAT     H154260   1.387   3.249   2.998
18006WAT     H254261   1.333   3.293   2.850
18007WAT      O54262   0.233   8.908   7.210
18007WAT     H154263   0.245   8.968   7.289
18007WAT     H254264   0.276   8.950   7.129
18008WAT      O54265   0.496   6.291   0.955
18008WAT     H154266   0.589   6.289   0.991
18008WAT     H254267   0.445   6.213   0.992
18009WAT      O54268   2.627   6.724   6.009
18009WAT     H154269   2.644   6.794   5.940
18009WAT     H254270   2.649   6.761   6.100
18010WAT      O54271   0.775   5.703   9.682
18010WAT     H154272   0.861   5.750   9.664
18010WAT     H254273   0.751   5.645   9.604
18011WAT      O54274   2.594   2.551   6.097
18011WAT     H154275   2.676   2.565   6.153
18011WAT     H254276   2.520   2.517   6.155
18012WAT      O54277   8.721   7.286   0.775
18012WAT     H154278   8.731   7.380   0.807
18012WAT     H254279   8.647   7.241   0.825
18013WAT      O54280   7.210   8.177   0.825
18013WAT     H154281   7.213   8.146   0.920
18013WAT     H254282   7.117   8.168   0.790
18014WAT      O54283   6.557   6.600   7.365
18014WAT     H154284   6.620   6.677   7.355
18014WAT     H254285   6.528   6.568   7.275
18015WAT      O54286   3.125   1.644   3.010
18015WAT     H154287   3.064   1.612   3.083
18015WAT     H254288   3.111   1.742   2.995
18016WAT      O54289   9.283   5.769   1.398
18016WAT     H154290   9.252   5.861   1.422
18016WAT     H254291   9.320   5.724   1.480
18017WAT      O54292   2.986   6.162   0.112
18017WAT     H154293   3.015   6.105   0.035
18017WAT     H254294   2.897   6.203   0.092
18018WAT      O54295   4.049   8.525   5.077
18018WAT     H154296   4.111   8.507   5.001
18018WAT     H254297   4.084   8.601   5.132
18019WAT      O54298   4.574   5.211   0.876
18019WAT     H154299   4.595   5.243   0.784
18019WAT     H254300   4.494   5.261   0.911
18020WAT      O54301   9.593   2.847   6.275
18020WAT     H154302   9.582   2.917   6.204
18020WAT     H254303   9.561   2.883   6.362
18021WAT      O54304   0.645   6.732   8.742
18021WAT     H154305   0.676   6.640   8.718
18021WAT     H254306   0.547   6.729   8.765
18022WAT      O54307   7.567   0.441   6.305
18022WAT     H154308   7.499   0.379   6.268
18022WAT     H254309   7.600   0.407   6.393
18023WAT      O54310   4.983   6.891   8.851
18023WAT     H154311   5.031   6.891   8.939
18023WAT     H254312   4.900   6.836   8.859
18024WAT      O54313   8.125   5.006   2.112
18024WAT     H154314   8.053   4.940   2.133
18024WAT     H254315   8.090   5.072   2.046
18025WAT      O54316   8.990   3.341   2.597
18025WAT     H154317   8.947   3.270   2.652
18025WAT     H254318   9.023   3.301   2.511
18026WAT      O54319   1.797   3.333   9.023
18026WAT     H154320   1.859   3.406   9.051
18026WAT     H254321   1.803   3.319   8.924
18027WAT      O54322   5.546   5.250   2.465
18027WAT     H154323   5.597   5.321   2.415
18027WAT     H254324   5.571   5.253   2.562
18028WAT      O54325   2.863   4.910   6.867
18028WAT     H154326   2.936   4.907   6.799
18028WAT     H254327   2.775   4.896   6.823
18029WAT      O54328   3.932   7.578   6.791
18029WAT     H154329   3.991   7.516   6.843
18029WAT     H254330   3.960   7.672   6.808
18030WAT      O54331   1.822   0.762   2.923
18030WAT     H154332   1.918   0.779   2.947
18030WAT     H254333   1.816   0.681   2.864
18031WAT      O54334   7.672   6.546   5.084
18031WAT     H154335   7.598   6.592   5.035
18031WAT     H254336   7.692   6.459   5.039
18032WAT      O54337   8.454   1.606   4.060
18032WAT     H154338   8.428   1.635   4.153
18032WAT     H254339   8.372   1.580   4.009
18033WAT      O54340   0.625   1.965   4.608
18033WAT     H154341   0.620   2.019   4.524
18033WAT     H254342   0.535   1.964   4.652
18034WAT      O54343   4.053   9.058   9.594
18034WAT     H154344   4.103   8.974   9.571
18034WAT     H254345   4.102   9.137   9.558
18035WAT      O54346   1.167   9.538   6.490
18035WAT     H154347   1.244   9.496   6.442
18035WAT     H254348   1.179   9.526   6.589
18036WAT      O54349   2.887   7.884   4.044
18036WAT     H154350   2.787   7.879   4.041
18036WAT     H254351   2.920   7.846   4.130
18037WAT      O54352   8.113   2.533   1.816
18037WAT     H154353   8.044   2.539   1.743
18037WAT     H254354   8.067   2.523   1.904
18038WAT      O54355   7.647   3.644   2.846
18038WAT     H154356   7.723   3.667   2.906
18038WAT     H254357   7.569   3.703   2.867
18039WAT      O54358   0.522   9.639   0.826
18039WAT     H154359   0.445   9.608   0.882
18039WAT     H254360   0.583   9.695   0.883
18040WAT      O54361   0.483   1.014   0.861
18040WAT     H154362   0.500   0.929   0.810
18040WAT     H254363   0.400   1.004   0.915
18041WAT      O54364   7.745   9.367   4.209
18041WAT     H154365   7.779   9.412   4.127
18041WAT     H254366   7.743   9.433   4.285
18042WAT      O54367   7.881   1.472   8.042
18042WAT     H154368   7.781   1.462   8.038
18042WAT     H254369   7.909   1.476   8.138
18043WAT      O54370   4.920   5.746   7.177
18043WAT     H154371   4.891   5.841   7.183
18043WAT     H254372   4.842   5.688   7.157
18044WAT      O54373   4.142   4.678   9.108
18044WAT     H154374   4.081   4.604   9.136
18044WAT     H254375   4.098   4.766   9.126
18045WAT      O54376   9.712   8.681   0.168
18045WAT     H154377   9.726   8.740   0.089
18045WAT     H254378   9.723   8.734   0.252
18046WAT      O54379   5.722   6.942   6.833
18046WAT     H154380   5.678   7.023   6.871
18046WAT     H254381   5.724   6.948   6.733
18047WAT      O54382   9.752   0.732   0.625
18047WAT     H154383   9.779   0.684   0.709
18047WAT     H254384   9.728   0.827   0.647
18048WAT      O54385   3.228   3.024   6.308
18048WAT     H154386   3.254   3.073   6.225
18048WAT     H254387   3.133   2.994   6.301
18049WAT      O54388   1.326   5.612   6.880
18049WAT     H154389   1.313   5.520   6.843
18049WAT     H254390   1.241   5.643   6.923
18050WAT      O54391   7.785   8.453   1.180
18050WAT     H154392   7.862   8.463   1.243
18050WAT     H254393   7.779   8.533   1.121
18051WAT      O54394   6.210   6.640   9.582
18051WAT     H154395   6.284   6.697   9.617
18051WAT     H254396   6.241   6.545   9.576
18052WAT      O54397   6.753   3.568   0.061
18052WAT     H154398   6.659   3.601   0.061
18052WAT     H254399   6.756   3.472   0.090
18053WAT      O54400   1.567   4.349   3.307
18053WAT     H154401   1.666   4.364   3.312
18053WAT     H254402   1.521   4.438   3.297
18054WAT      O54403   7.516   1.547   4.379
18054WAT     H154404   7.500   1.641   4.411
18054WAT     H254405   7.430   1.497   4.377
18055WAT      O54406   3.634   2.096   1.671
18055WAT     H154407   3.687   2.115   1.754
18055WAT     H254408   3.573   2.173   1.653
18056WAT      O54409   8.281   7.136   8.410
18056WAT     H154410   8.248   7.119   8.317
18056WAT     H254411   8.379   7.114   8.414
18057WAT      O54412   8.621   6.026   5.668
18057WAT     H154413   8.660   6.046   5.578
18057WAT     H254414   8.683   5.967   5.719
18058WAT      O54415   0.842   8.533   3.129
18058WAT     H154416   0.820   8.616   3.179
18058WAT     H254417   0.776   8.461   3.151
18059WAT      O54418   8.727   2.877   5.046
18059WAT     H154419   8.697   2.954   4.989
18059WAT     H254420   8.744   2.910   5.139
18060WAT      O54421   0.737   0.827   1.539
18060WAT     H154422   0.831   0.793   1.538
18060WAT     H254423   0.675   0.754   1.510
18061WAT      O54424   9.349   5.975   8.093
18061WAT     H154425   9.380   5.998   8.000
18061WAT     H254426   9.351   6.056   8.150
18062WAT      O54427   3.658   3.094   1.410
18062WAT     H154428   3.582   3.128   1.465
18062WAT     H254429   3.629   3.087   1.314
18063WAT      O54430   1.956   5.545   5.689
18063WAT     H154431   1.934   5.495   5.606
18063WAT     H254432   1.932   5.490   5.769
18064WAT      O54433   7.251   5.813   3.900
18064WAT     H154434   7.255   5.748   3.824
18064WAT     H254435   7.160   5.814   3.940
18065WAT      O54436   6.655   4.924   2.140
18065WAT     H154437   6.650   4.933   2.240
18065WAT     H254438   6.598   4.847   2.111
18066WAT      O54439   1.294   9.101   6.871
18066WAT     H154440   1.238   9.130   6.950
18066WAT     H254441   1.377   9.157   6.867
18067WAT      O54442   3.714   2.477   4.771
18067WAT     H154443   3.711   2.414   4.849
18067WAT     H254444   3.779   2.551   4.790
18068WAT      O54445   5.013   2.232   8.565
18068WAT     H154446   4.974   2.317   8.602
18068WAT     H254447   5.073   2.253   8.488
18069WAT      O54448   0.194   3.525   4.098
18069WAT     H154449   0.212   3.612   4.052
18069WAT     H254450   0.249   3.453   4.055
18070WAT      O54451   9.645   5.328   1.936
18070WAT     H154452   9.606   5.268   1.866
18070WAT     H254453   9.578   5.398   1.962
18071WAT      O54454   6.225   4.264   7.966
18071WAT     H154455   6.148   4.285   7.906
18071WAT     H254456   6.228   4.330   8.041
18072WAT      O54457   7.248   1.504   4.559
18072WAT     H154458   7.273   1.424   4.505
18072WAT     H254459   7.317   1.576   4.547
18073WAT      O54460   3.538   1.732   6.652
18073WAT     H154461   3.536   1.749   6.750
18073WAT     H254462   3.591   1.804   6.607
18074WAT      O54463   3.747   3.430   5.431
18074WAT     H154464   3.689   3.423   5.350
18074WAT     H254465   3.716   3.363   5.499
18075WAT      O54466   2.694   1.802   0.591
18075WAT     H154467   2.789   1.801   0.560
18075WAT     H254468   2.650   1.887   0.561
18076WAT      O54469   2.400   3.800   5.111
18076WAT     H154470   2.313   3.840   5.138
18076WAT     H254471   2.405   3.706   5.144
18077WAT      O54472   6.030   8.189   0.127
18077WAT     H154473   6.118   8.229   0.153
18077WAT     H254474   5.959   8.259   0.129
18078WAT      O54475   3.547   2.373   7.787
18078WAT     H154476   3.610   2.424   7.729
18078WAT     H254477   3.512   2.294   7.736
18079WAT      O54478   5.121   3.787   6.861
18079WAT     H154479   5.030   3.761   6.829
18079WAT     H254480   5.133   3.886   6.854
18080WAT      O54481   8.872   9.159   4.769
18080WAT     H154482   8.963   9.195   4.788
18080WAT     H254483   8.846   9.094   4.840
18081WAT      O54484   1.128   2.844   0.816
18081WAT     H154485   1.129   2.926   0.758
18081WAT     H254486   1.139   2.763   0.760
18082WAT      O54487   3.473   8.711   9.067
18082WAT     H154488   3.386   8.756   9.086
18082WAT     H254489   3.514   8.681   9.153
18083WAT      O54490   0.351   4.394   3.335
18083WAT     H154491   0.380   4.298   3.329
18083WAT     H254492   0.252   4.398   3.349
18084WAT      O54493   0.708   5.012   7.828
18084WAT     H154494   0.657   4.968   7.755
18084WAT     H254495   0.667   4.989   7.916
18085WAT      O54496   4.251   7.983   0.531
18085WAT     H154497   4.172   8.044   0.531
18085WAT     H254498   4.221   7.889   0.548
18086WAT      O54499   0.851   6.666   0.445
18086WAT     H154500   0.875   6.569   0.444
18086WAT     H254501   0.766   6.679   0.497
18087WAT      O54502   7.623   1.682   4.675
18087WAT     H154503   7.696   1.640   4.622
18087WAT     H254504   7.569   1.741   4.616
18088WAT      O54505   8.692   7.688   1.554
18088WAT     H154506   8.718   7.613   1.493
18088WAT     H254507   8.597   7.674   1.584
18089WAT      O54508   9.761   1.524   3.398
18089WAT     H154509   9.793   1.496   3.489
18089WAT     H254510   9.666   1.496   3.386
18090WAT      O54511   7.808   6.354   4.312
18090WAT     H154512   7.884   6.419   4.316
18090WAT     H254513   7.835   6.268   4.356
18091WAT      O54514   2.013   4.378   0.842
18091WAT     H154515   1.967   4.429   0.915
18091WAT     H254516   1.987   4.416   0.753
18092WAT      O54517   9.559   5.544   6.708
18092WAT     H154518   9.580   5.490   6.790
18092WAT     H254519   9.560   5.483   6.628
18093WAT      O54520   3.079   1.523   4.488
18093WAT     H154521   3.166   1.569   4.477
18093WAT     H254522   3.045   1.537   4.582
18094WAT      O54523   9.547   5.849   8.853
18094WAT     H154524   9.543   5.823   8.949
18094WAT     H254525   9.462   5.823   8.807
18095WAT      O54526   6.158   7.071   5.110
18095WAT     H154527   6.152   7.015   5.193
18095WAT     H254528   6.076   7.129   5.103
18096WAT      O54529   9.814   6.929   2.668
18096WAT     H154530   9.759   6.874   2.605
18096WAT     H254531   9.793   7.026   2.656
18097WAT      O54532   8.543   2.453   8.043
18097WAT     H154533   8.453   2.418   8.069
18097WAT     H254534   8.610   2.426   8.112
18098WAT      O54535   3.647   8.828   3.935
18098WAT     H154536   3.653   8.848   3.837
18098WAT     H254537   3.552   8.805   3.958
18099WAT      O54538   2.804   5.327   4.606
18099WAT     H154539   2.839   5.235   4.588
18099WAT     H254540   2.846   5.363   4.689
18100WAT      O54541   0.764   5.722   4.854
18100WAT     H154542   0.716   5.676   4.929
18100WAT     H254543   0.862   5.707   4.863
18101WAT      O54544   0.464   8.816   6.713
18101WAT     H154545   0.384   8.807   6.654
18101WAT     H254546   0.535   8.867   6.666
18102WAT      O54547   7.620   8.745   5.131
18102WAT     H154548   7.539   8.733   5.189
18102WAT     H254549   7.644   8.842   5.127
18103WAT      O54550   3.268   7.925   0.665
18103WAT     H154551   3.275   7.999   0.732
18103WAT     H254552   3.297   7.839   0.707
18104WAT      O54553   5.914   0.734   6.717
18104WAT     H154554   5.908   0.666   6.644
18104WAT     H254555   5.855   0.812   6.695
18105WAT      O54556   7.395   1.726   5.955
18105WAT     H154557   7.318   1.671   5.923
18105WAT     H254558   7.428   1.691   6.042
18106WAT      O54559   7.957   4.925   0.576
18106WAT     H154560   8.018   4.845   0.580
18106WAT     H254561   7.919   4.933   0.484
18107WAT      O54562   4.145   7.316   2.672
18107WAT     H154563   4.111   7.318   2.766
18107WAT     H254564   4.203   7.396   2.657
18108WAT      O54565   8.215   8.604   4.312
18108WAT     H154566   8.159   8.653   4.245
18108WAT     H254567   8.163   8.591   4.396
18109WAT      O54568   9.672   0.414   2.280
18109WAT     H154569   9.594   0.375   2.231
18109WAT     H254570   9.721   0.341   2.328
18110WAT      O54571   9.598   8.807   3.076
18110WAT     H154572   9.551   8.724   3.106
18110WAT     H254573   9.532   8.870   3.036
18111WAT      O54574   4.389   3.221   1.436
18111WAT     H154575   4.301   3.255   1.470
18111WAT     H254576   4.400   3.250   1.341
18112WAT      O54577   0.419   4.988   2.319
18112WAT     H154578   0.440   4.983   2.417
18112WAT     H254579   0.331   5.035   2.307
18113WAT      O54580   7.286   6.728   0.281
18113WAT     H154581   7.319   6.764   0.194
18113WAT     H254582   7.251   6.804   0.337
18114WAT      O54583   2.825   1.540   1.614
18114WAT     H154584   2.859   1.616   1.669
18114WAT     H254585   2.893   1.516   1.545
18115WAT      O54586   7.776   7.429   9.172
18115WAT     H154587   7.713   7.490   9.219
18115WAT     H254588   7.869   7.464   9.182
18116WAT      O54589   6.148   4.951   6.521
18116WAT     H154590   6.224   4.963   6.585
18116WAT     H254591   6.165   4.872   6.463
18117WAT      O54592   9.611   9.386   0.985
18117WAT     H154593   9.703   9.405   0.951
18117WAT     H254594   9.612   9.387   1.085
18118WAT      O54595   7.591   6.002   1.733
18118WAT     H154596   7.516   5.937   1.727
18118WAT     H254597   7.675   5.955   1.760
18119WAT      O54598   1.601   6.700   4.279
18119WAT     H154599   1.653   6.679   4.362
18119WAT     H254600   1.653   6.673   4.198
18120WAT      O54601   7.525   2.739   6.655
18120WAT     H154602   7.583   2.719   6.577
18120WAT     H254603   7.428   2.731   6.629
18121WAT      O54604   7.511   2.940   1.429
18121WAT     H154605   7.493   2.955   1.332
18121WAT     H254606   7.427   2.954   1.481
18122WAT      O54607   3.323   4.814   1.933
18122WAT     H154608   3.369   4.894   1.895
18122WAT     H254609   3.383   4.734   1.923
18123WAT      O54610   7.679   7.805   6.338
18123WAT     H154611   7.657   7.903   6.340
18123WAT     H254612   7.750   7.788   6.271
18124WAT      O54613   3.252   6.769   8.105
18124WAT     H154614   3.198   6.854   8.106
18124WAT     H254615   3.287   6.751   8.197
18125WAT      O54616   3.056   3.306   5.774
18125WAT     H154617   3.079   3.403   5.784
18125WAT     H254618   3.137   3.250   5.794
18126WAT      O54619   6.777   0.609   3.242
18126WAT     H154620   6.702   0.589   3.179
18126WAT     H254621   6.779   0.707   3.261
18127WAT      O54622   1.808   8.920   4.358
18127WAT     H154623   1.796   8.925   4.457
18127WAT     H254624   1.904   8.899   4.337
18128WAT      O54625   3.916   1.473   0.401
18128WAT     H154626   4.016   1.481   0.394
18128WAT     H254627   3.881   1.547   0.458
18129WAT      O54628   4.628   8.344   5.076
18129WAT     H154629   4.548   8.303   5.120
18129WAT     H254630   4.613   8.349   4.977
18130WAT      O54631   4.737   1.912   9.194
18130WAT     H154632   4.809   1.981   9.184
18130WAT     H254633   4.737   1.852   9.114
18131WAT      O54634   2.091   5.561   6.031
18131WAT     H154635   2.162   5.630   6.042
18131WAT     H254636   2.077   5.513   6.118
18132WAT      O54637   1.697   9.796   9.833
18132WAT     H154638   1.642   9.873   9.868
18132WAT     H254639   1.643   9.712   9.836
18133WAT      O54640   0.454   9.427   9.164
18133WAT     H154641   0.393   9.447   9.240
18133WAT     H254642   0.477   9.511   9.115
18134WAT      O54643   1.215   2.521   4.979
18134WAT     H154644   1.134   2.476   5.018
18134WAT     H254645   1.263   2.457   4.920
18135WAT      O54646   0.184   2.250   4.853
18135WAT     H154647   0.107   2.297   4.896
18135WAT     H254648   0.193   2.159   4.891
18136WAT      O54649   8.483   4.524   7.442
18136WAT     H154650   8.521   4.499   7.353
18136WAT     H254651   8.399   4.575   7.429
18137WAT      O54652   8.024   8.000   8.491
18137WAT     H154653   8.045   7.969   8.583
18137WAT     H254654   7.925   8.004   8.479
18138WAT      O54655   1.477   9.063   3.091
18138WAT     H154656   1.470   9.162   3.083
18138WAT     H254657   1.469   9.022   3.000
18139WAT      O54658   2.369   3.969   6.249
18139WAT     H154659   2.323   4.056   6.230
18139WAT     H254660   2.306   3.909   6.300
18140WAT      O54661   6.286   9.247   0.747
18140WAT     H154662   6.209   9.311   0.747
18140WAT     H254663   6.301   9.213   0.840
18141WAT      O54664   1.578   2.691   0.863
18141WAT     H154665   1.600   2.788   0.871
18141WAT     H254666   1.629   2.652   0.785
18142WAT      O54667   1.843   6.387   6.379
18142WAT     H154668   1.818   6.456   6.312
18142WAT     H254669   1.896   6.315   6.335
18143WAT      O54670   3.290   6.869   2.958
18143WAT     H154671   3.361   6.803   2.980
18143WAT     H254672   3.256   6.911   3.042
18144WAT      O54673   9.724   5.439   3.182
18144WAT     H154674   9.691   5.532   3.200
18144WAT     H254675   9.646   5.376   3.184
18145WAT      O54676   7.277   6.339   0.707
18145WAT     H154677   7.196   6.311   0.656
18145WAT     H254678   7.352   6.358   0.643
18146WAT      O54679   6.041   2.657   2.949
18146WAT     H154680   6.094   2.669   2.865
18146WAT     H254681   5.970   2.588   2.934
18147WAT      O54682   0.819   8.373   1.624
18147WAT     H154683   0.916   8.394   1.608
18147WAT     H254684   0.810   8.326   1.712
18148WAT      O54685   0.569   8.682   5.339
18148WAT     H154686   0.547   8.635   5.425
18148WAT     H254687   0.568   8.616   5.264
18149WAT      O54688   1.011   5.952   3.797
18149WAT     H154689   1.095   5.937   3.745
18149WAT     H254690   1.032   5.955   3.895
18150WAT      O54691   4.823   3.979   1.067
18150WAT     H154692   4.917   3.961   1.040
18150WAT     H254693   4.796   4.072   1.039
18151WAT      O54694   5.063   9.389   0.034
18151WAT     H154695   5.124   9.463   0.063
18151WAT     H254696   5.105   9.301   0.056
18152WAT      O54697   9.214   7.920   4.423
18152WAT     H154698   9.298   7.950   4.378
18152WAT     H254699   9.140   7.984   4.402
18153WAT      O54700   3.569   2.900   5.962
18153WAT     H154701   3.643   2.966   5.960
18153WAT     H254702   3.595   2.818   5.912
18154WAT      O54703   8.605   3.777   9.280
18154WAT     H154704   8.621   3.712   9.206
18154WAT     H254705   8.670   3.853   9.273
18155WAT      O54706   2.992   6.121   4.141
18155WAT     H154707   2.896   6.105   4.166
18155WAT     H254708   3.048   6.121   4.224
18156WAT      O54709   7.385   7.001   0.202
18156WAT     H154710   7.448   6.946   0.258
18156WAT     H254711   7.418   7.095   0.198
18157WAT      O54712   2.251   5.902   2.078
18157WAT     H154713   2.339   5.858   2.062
18157WAT     H254714   2.218   5.941   1.992
18158WAT      O54715   1.911   0.260   2.333
18158WAT     H154716   1.996   0.272   2.383
18158WAT     H254717   1.853   0.341   2.345
18159WAT      O54718   0.079   8.127   3.836
18159WAT     H154719   0.163   8.140   3.890
18159WAT     H254720   0.104   8.116   3.740
18160WAT      O54721   1.440   1.096   3.995
18160WAT     H154722   1.510   1.079   3.925
18160WAT     H254723   1.482   1.141   4.074
18161WAT      O54724   8.250   7.584   2.973
18161WAT     H154725   8.304   7.500   2.971
18161WAT     H254726   8.306   7.659   3.007
18162WAT      O54727   6.784   4.448   6.611
18162WAT     H154728   6.779   4.349   6.601
18162WAT     H254729   6.877   4.474   6.638
18163WAT      O54730   2.983   0.027   2.035
18163WAT     H154731   2.992  -0.065   2.073
18163WAT     H254732   2.952   0.089   2.107
18164WAT      O54733   9.588   3.722   2.691
18164WAT     H154734   9.509   3.777   2.662
18164WAT     H254735   9.577   3.695   2.786
18165WAT      O54736   8.114   1.093   1.445
18165WAT     H154737   8.113   1.065   1.541
18165WAT     H254738   8.042   1.161   1.429
18166WAT      O54739   6.588   9.129   2.761
18166WAT     H154740   6.570   9.226   2.775
18166WAT     H254741   6.654   9.118   2.687
18167WAT      O54742   9.479   8.555   1.758
18167WAT     H154743   9.530   8.634   1.723
18167WAT     H254744   9.408   8.586   1.821
18168WAT      O54745   1.238   8.885   4.671
18168WAT     H154746   1.233   8.921   4.578
18168WAT     H254747   1.151   8.901   4.717
18169WAT      O54748   3.554   6.005   3.956
18169WAT     H154749   3.508   6.052   3.880
18169WAT     H254750   3.502   6.019   4.040
18170WAT      O54751   7.629   2.650   0.848
18170WAT     H154752   7.706   2.671   0.788
18170WAT     H254753   7.661   2.640   0.942
18171WAT      O54754   6.538   3.766   6.160
18171WAT     H154755   6.512   3.677   6.199
18171WAT     H254756   6.467   3.798   6.098
18172WAT      O54757   1.310   2.980   1.212
18172WAT     H154758   1.258   2.934   1.284
18172WAT     H254759   1.316   2.921   1.132
18173WAT      O54760   0.226   6.132   8.441
18173WAT     H154761   0.212   6.177   8.529
18173WAT     H254762   0.138   6.117   8.397
18174WAT      O54763   3.805   4.550   3.431
18174WAT     H154764   3.833   4.617   3.363
18174WAT     H254765   3.705   4.549   3.436
18175WAT      O54766   7.803   4.712   1.039
18175WAT     H154767   7.714   4.752   1.017
18175WAT     H254768   7.873   4.784   1.033
18176WAT      O54769   5.172   3.560   7.466
18176WAT     H154770   5.238   3.598   7.401
18176WAT     H254771   5.079   3.572   7.430
18177WAT      O54772   0.820   1.718   4.515
18177WAT     H154773   0.792   1.641   4.571
18177WAT     H254774   0.777   1.802   4.549
18178WAT      O54775   8.142   2.233   9.312
18178WAT     H154776   8.108   2.326   9.320
18178WAT     H254777   8.241   2.233   9.298
18179WAT      O54778   1.003   4.984   5.868
18179WAT     H154779   0.943   5.027   5.801
18179WAT     H254780   1.002   4.885   5.854
18180WAT      O54781   2.335   1.728   7.631
18180WAT     H154782   2.297   1.745   7.722
18180WAT     H254783   2.315   1.634   7.603
18181WAT      O54784   8.929   9.246   2.988
18181WAT     H154785   8.830   9.239   2.999
18181WAT     H254786   8.970   9.279   3.073
18182WAT      O54787   3.560   3.855   5.884
18182WAT     H154788   3.589   3.819   5.972
18182WAT     H254789   3.582   3.952   5.878
18183WAT      O54790   7.212   5.108   0.071
18183WAT     H154791   7.177   5.017   0.047
18183WAT     H254792   7.154   5.147   0.143
18184WAT      O54793   7.224   0.875   1.429
18184WAT     H154794   7.305   0.851   1.482
18184WAT     H254795   7.144   0.830   1.469
18185WAT      O54796   7.361   8.962   5.294
18185WAT     H154797   7.374   8.868   5.264
18185WAT     H254798   7.358   8.965   5.394
18186WAT      O54799   6.354   9.361   7.397
18186WAT     H154800   6.342   9.330   7.491
18186WAT     H254801   6.349   9.283   7.335
18187WAT      O54802   7.360   2.608   3.271
18187WAT     H154803   7.308   2.640   3.192
18187WAT     H254804   7.402   2.687   3.317
18188WAT      O54805   1.260   5.988   5.656
18188WAT     H154806   1.169   5.999   5.615
18188WAT     H254807   1.252   5.945   5.745
18189WAT      O54808   3.550   1.391   0.275
18189WAT     H154809   3.622   1.368   0.339
18189WAT     H254810   3.502   1.307   0.247
18190WAT      O54811   4.370   2.413   1.433
18190WAT     H154812   4.293   2.444   1.377
18190WAT     H254813   4.342   2.408   1.529
18191WAT      O54814   9.340   0.463   2.942
18191WAT     H154815   9.389   0.550   2.938
18191WAT     H254816   9.242   0.481   2.951
18192WAT      O54817   8.221   1.991   1.240
18192WAT     H154818   8.126   2.012   1.219
18192WAT     H254819   8.278   2.071   1.219
18193WAT      O54820   6.506   6.239   8.574
18193WAT     H154821   6.581   6.182   8.605
18193WAT     H254822   6.536   6.296   8.498
18194WAT      O54823   5.403   0.355   5.383
18194WAT     H154824   5.488   0.405   5.398
18194WAT     H254825   5.399   0.277   5.444
18195WAT      O54826   0.997   1.371   9.700
18195WAT     H154827   0.965   1.466   9.695
18195WAT     H254828   1.000   1.332   9.609
18196WAT      O54829   9.845   2.975   1.033
18196WAT     H154830   9.911   2.924   0.977
18196WAT     H254831   9.761   2.989   0.981
18197WAT      O54832   0.740   1.863   5.096
18197WAT     H154833   0.696   1.783   5.054
18197WAT     H254834   0.836   1.866   5.069
18198WAT      O54835   6.895   0.455   3.895
18198WAT     H154836   6.891   0.384   3.966
18198WAT     H254837   6.988   0.461   3.859
18199WAT      O54838   0.264   5.079   3.573
18199WAT     H154839   0.268   4.985   3.607
18199WAT     H254840   0.201   5.132   3.629
18200WAT      O54841   6.436   6.262   3.513
18200WAT     H154842   6.480   6.236   3.599
18200WAT     H254843   6.376   6.341   3.529
18201WAT      O54844   3.915   4.578   1.246
18201WAT     H154845   3.861   4.504   1.206
18201WAT     H254846   3.996   4.540   1.290
18202WAT      O54847   5.990   7.663   5.489
18202WAT     H154848   6.079   7.637   5.526
18202WAT     H254849   5.978   7.762   5.497
18203WAT      O54850   1.678   4.396   9.445
18203WAT     H154851   1.747   4.466   9.461
18203WAT     H254852   1.597   4.438   9.405
18204WAT      O54853   0.223   7.426   3.952
18204WAT     H154854   0.194   7.519   3.932
18204WAT     H254855   0.274   7.426   4.039
18205WAT      O54856   5.236   4.063   2.849
18205WAT     H154857   5.205   4.037   2.940
18205WAT     H254858   5.261   3.981   2.798
18206WAT      O54859   2.786   3.401   2.188
18206WAT     H154860   2.860   3.468   2.191
18206WAT     H254861   2.807   3.332   2.119
18207WAT      O54862   2.340   4.257   3.604
18207WAT     H154863   2.341   4.219   3.511
18207WAT     H254864   2.309   4.352   3.600
18208WAT      O54865   3.089   2.471   7.435
18208WAT     H154866   3.095   2.571   7.430
18208WAT     H254867   3.122   2.431   7.350
18209WAT      O54868   5.165   8.130   9.220
18209WAT     H154869   5.224   8.050   9.238
18209WAT     H254870   5.202   8.209   9.269
18210WAT      O54871   8.759   3.768   3.010
18210WAT     H154872   8.748   3.721   2.922
18210WAT     H254873   8.842   3.736   3.054
18211WAT      O54874   4.707   6.159   5.845
18211WAT     H154875   4.675   6.235   5.901
18211WAT     H254876   4.768   6.193   5.773
18212WAT      O54877   6.283   9.201   7.630
18212WAT     H154878   6.298   9.231   7.725
18212WAT     H254879   6.276   9.102   7.627
18213WAT      O54880   6.734   8.233   0.345
18213WAT     H154881   6.652   8.278   0.310
18213WAT     H254882   6.810   8.248   0.281
18214WAT      O54883   7.055   8.571   3.664
18214WAT     H154884   7.136   8.572   3.722
18214WAT     H254885   6.977   8.535   3.717
18215WAT      O54886   3.819   1.944   9.579
18215WAT     H154887   3.871   1.884   9.640
18215WAT     H254888   3.835   1.917   9.484
18216WAT      O54889   5.262   8.513   8.583
18216WAT     H154890   5.267   8.463   8.497
18216WAT     H254891   5.253   8.611   8.565
18217WAT      O54892   3.537   7.196   8.323
18217WAT     H154893   3.577   7.215   8.412
18217WAT     H254894   3.512   7.283   8.279
18218WAT      O54895   5.038   8.725   5.664
18218WAT     H154896   5.071   8.817   5.642
18218WAT     H254897   5.066   8.661   5.592
18219WAT      O54898   3.597   5.485   1.357
18219WAT     H154899   3.550   5.538   1.428
18219WAT     H254900   3.631   5.548   1.287
18220WAT      O54901   8.516   1.105   1.768
18220WAT     H154902   8.592   1.041   1.776
18220WAT     H254903   8.505   1.133   1.673
18221WAT      O54904   6.110   9.484   1.328
18221WAT     H154905   6.133   9.493   1.231
18221WAT     H254906   6.182   9.432   1.374
18222WAT      O54907   3.783   6.593   0.796
18222WAT     H154908   3.842   6.566   0.872
18222WAT     H254909   3.795   6.530   0.719
18223WAT      O54910   2.276   4.400   9.801
18223WAT     H154911   2.337   4.471   9.836
18223WAT     H254912   2.313   4.310   9.824
18224WAT      O54913   8.171   6.135   5.914
18224WAT     H154914   8.245   6.155   5.850
18224WAT     H254915   8.112   6.064   5.875
18225WAT      O54916   9.753   4.280   0.794
18225WAT     H154917   9.753   4.313   0.888
18225WAT     H254918   9.816   4.336   0.739
18226WAT      O54919   8.015   2.314   2.486
18226WAT     H154920   7.948   2.299   2.559
18226WAT     H254921   7.967   2.329   2.400
18227WAT      O54922   1.006   6.790   2.538
18227WAT     H154923   0.954   6.785   2.453
18227WAT     H254924   1.089   6.844   2.524
18228WAT      O54925   8.166   4.231   5.718
18228WAT     H154926   8.192   4.173   5.641
18228WAT     H254927   8.227   4.310   5.723
18229WAT      O54928   6.700   6.219   7.408
18229WAT     H154929   6.663   6.215   7.501
18229WAT     H254930   6.753   6.136   7.390
18230WAT      O54931   9.056   2.989   0.908
18230WAT     H154932   9.028   2.951   0.995
18230WAT     H254933   8.988   2.968   0.838
18231WAT      O54934   2.197   8.892   0.643
18231WAT     H154935   2.213   8.989   0.623
18231WAT     H254936   2.243   8.867   0.727
18232WAT      O54937   3.151   0.986   6.874
18232WAT     H154938   3.132   0.953   6.966
18232WAT     H254939   3.071   0.972   6.816
18233WAT      O54940   8.403   3.516   4.244
18233WAT     H154941   8.499   3.533   4.222
18233WAT     H254942   8.353   3.603   4.245
18234WAT      O54943   7.052   9.323   7.184
18234WAT     H154944   6.984   9.255   7.210
18234WAT     H254945   7.009   9.413   7.178
18235WAT      O54946   3.958   7.838   5.316
18235WAT     H154947   4.022   7.855   5.241
18235WAT     H254948   4.010   7.826   5.401
18236WAT      O54949   9.804   8.010   1.864
18236WAT     H154950   9.803   8.101   1.823
18236WAT     H254951   9.720   7.961   1.840
18237WAT      O54952   2.361   1.930   6.123
18237WAT     H154953   2.399   1.993   6.191
18237WAT     H254954   2.335   1.844   6.167
18238WAT      O54955   8.164   2.127   4.612
18238WAT     H154956   8.188   2.044   4.661
18238WAT     H254957   8.086   2.110   4.552
18239WAT      O54958   6.540   7.888   8.651
18239WAT     H154959   6.455   7.908   8.601
18239WAT     H254960   6.608   7.852   8.587
18240WAT      O54961   9.867   5.256   8.191
18240WAT     H154962   9.954   5.304   8.198
18240WAT     H254963   9.793   5.317   8.220
18241WAT      O54964   2.828   8.375   9.639
18241WAT     H154965   2.922   8.342   9.633
18241WAT     H254966   2.824   8.469   9.604
18242WAT      O54967   7.379   8.769   2.312
18242WAT     H154968   7.288   8.811   2.313
18242WAT     H254969   7.446   8.835   2.278
18243WAT      O54970   7.152   7.269   5.706
18243WAT     H154971   7.082   7.225   5.650
18243WAT     H254972   7.233   7.212   5.710
18244WAT      O54973   2.176   0.306   6.210
18244WAT     H154974   2.173   0.283   6.112
18244WAT     H254975   2.268   0.338   6.233
18245WAT      O54976   6.747   8.399   6.776
18245WAT     H154977   6.702   8.475   6.730
18245WAT     H254978   6.782   8.431   6.865
18246WAT      O54979   5.283   9.593   7.181
18246WAT     H154980   5.271   9.692   7.191
18246WAT     H254981   5.222   9.559   7.109
18247WAT      O54982   0.019   3.692   2.879
18247WAT     H154983   0.074   3.664   2.958
18247WAT     H254984  -0.074   3.713   2.909
18248WAT      O54985   4.906   3.041   5.626
18248WAT     H154986   4.915   2.959   5.570
18248WAT     H254987   4.929   3.020   5.721
18249WAT      O54988   9.282  -0.001   7.153
18249WAT     H154989   9.246   0.025   7.242
18249WAT     H254990   9.341   0.072   7.117
18250WAT      O54991   8.641   5.642   7.104
18250WAT     H154992   8.595   5.654   7.016
18250WAT     H254993   8.573   5.637   7.177
18251WAT      O54994   6.538   7.844   4.909
18251WAT     H154995   6.458   7.870   4.854
18251WAT     H254996   6.609   7.915   4.899
18252WAT      O54997   0.496   1.332   6.996
18252WAT     H154998   0.441   1.254   6.966
18252WAT     H254999   0.469   1.413   6.944
18253WAT      O55000   8.330   0.915   1.781
18253WAT     H155001   8.357   1.009   1.757
18253WAT     H255002   8.369   0.890   1.869
18254WAT      O55003   6.338   5.967   0.980
18254WAT     H155004   6.332   5.905   0.901
18254WAT     H255005   6.433   5.988   0.999
18255WAT      O55006   3.904   8.768   9.033
18255WAT     H155007   3.943   8.818   9.111
18255WAT     H255008   3.978   8.738   8.973
18256WAT      O55009   2.017   2.636   3.399
18256WAT     H155010   1.953   2.680   3.463
18256WAT     H255011   1.969   2.614   3.314
18257WAT      O55012   7.085   2.079   2.169
18257WAT     H155013   7.072   2.160   2.112
18257WAT     H255014   7.032   2.089   2.254
18258WAT      O55015   1.357   4.566   0.428
18258WAT     H155016   1.296   4.614   0.365
18258WAT     H255017   1.325   4.472   0.440
18259WAT      O55018   0.996   7.690   5.697
18259WAT     H155019   1.003   7.603   5.648
18259WAT     H255020   1.087   7.719   5.727
18260WAT      O55021   1.103   6.051   6.249
18260WAT     H155022   1.159   6.073   6.169
18260WAT     H255023   1.161   6.018   6.323
18261WAT      O55024   4.942   8.145   3.087
18261WAT     H155025   4.876   8.097   3.145
18261WAT     H255026   5.034   8.110   3.105
18262WAT      O55027   9.404   3.802   7.612
18262WAT     H155028   9.499   3.774   7.626
18262WAT     H255029   9.362   3.824   7.700
18263WAT      O55030   0.983   5.409   5.145
18263WAT     H155031   0.905   5.357   5.109
18263WAT     H255032   0.959   5.506   5.150
18264WAT      O55033   4.262   0.455   4.497
18264WAT     H155034   4.361   0.445   4.481
18264WAT     H255035   4.216   0.465   4.409
18265WAT      O55036   2.789   6.611   2.166
18265WAT     H155037   2.704   6.627   2.217
18265WAT     H255038   2.867   6.633   2.225
18266WAT      O55039   4.947   4.291   6.481
18266WAT     H155040   4.900   4.208   6.513
18266WAT     H255041   5.025   4.310   6.540
18267WAT      O55042   1.944   0.790   7.650
18267WAT     H155043   1.959   0.752   7.742
18267WAT     H255044   2.026   0.839   7.620
18268WAT      O55045   0.948   7.644   3.867
18268WAT     H155046   0.877   7.702   3.907
18268WAT     H255047   0.906   7.565   3.822
18269WAT      O55048   4.184   3.570   4.439
18269WAT     H155049   4.209   3.604   4.348
18269WAT     H255050   4.084   3.568   4.447
18270WAT      O55051   7.550   8.871   1.926
18270WAT     H155052   7.496   8.791   1.951
18270WAT     H255053   7.597   8.854   1.839
18271WAT      O55054   8.421   3.750   2.138
18271WAT     H155055   8.332   3.793   2.119
18271WAT     H255056   8.432   3.670   2.080
18272WAT      O55057   3.147   4.380   7.124
18272WAT     H155058   3.115   4.307   7.185
18272WAT     H255059   3.246   4.389   7.132
18273WAT      O55060   4.016   8.882   0.025
18273WAT     H155061   4.112   8.904   0.006
18273WAT     H255062   3.976   8.838  -0.056
18274WAT      O55063   7.980   1.569   6.742
18274WAT     H155064   7.981   1.584   6.841
18274WAT     H255065   8.009   1.475   6.723
18275WAT      O55066   3.080   1.042   8.740
18275WAT     H155067   3.082   0.990   8.655
18275WAT     H255068   3.019   0.997   8.805
18276WAT      O55069   0.881   8.741   3.977
18276WAT     H155070   0.896   8.800   4.056
18276WAT     H255071   0.889   8.645   4.005
18277WAT      O55072   9.665   3.542   9.850
18277WAT     H155073   9.661   3.641   9.862
18277WAT     H255074   9.748   3.518   9.800
18278WAT      O55075   8.808   7.852   4.402
18278WAT     H155076   8.846   7.832   4.492
18278WAT     H255077   8.847   7.937   4.367
18279WAT      O55078   2.813   9.278   2.969
18279WAT     H155079   2.733   9.227   2.998
18279WAT     H255080   2.855   9.323   3.048
18280WAT      O55081   5.408   5.510   9.380
18280WAT     H155082   5.388   5.607   9.374
18280WAT     H255083   5.496   5.491   9.336
18281WAT      O55084   3.327   4.701   1.076
18281WAT     H155085   3.250   4.750   1.117
18281WAT     H255086   3.304   4.678   0.981
18282WAT      O55087   8.863   6.320   7.205
18282WAT     H155088   8.886   6.224   7.221
18282WAT     H255089   8.766   6.334   7.223
18283WAT      O55090   2.348   5.107   3.979
18283WAT     H155091   2.432   5.150   4.011
18283WAT     H255092   2.290   5.175   3.934
18284WAT      O55093   6.286   5.682   8.061
18284WAT     H155094   6.226   5.624   8.006
18284WAT     H255095   6.334   5.626   8.128
18285WAT      O55096   9.654   6.034   8.477
18285WAT     H155097   9.650   5.936   8.492
18285WAT     H255098   9.658   6.081   8.566
18286WAT      O55099   3.268   8.914   0.954
18286WAT     H155100   3.315   8.826   0.946
18286WAT     H255101   3.305   8.966   1.031
18287WAT      O55102   9.071   6.189   5.612
18287WAT     H155103   9.055   6.165   5.708
18287WAT     H255104   9.155   6.243   5.605
18288WAT      O55105   1.825   6.965   5.907
18288WAT     H155106   1.891   6.969   5.832
18288WAT     H255107   1.851   7.033   5.976
18289WAT      O55108   1.020   8.339   4.907
18289WAT     H155109   1.087   8.350   4.833
18289WAT     H255110   1.028   8.247   4.946
18290WAT      O55111   4.817   8.482   8.546
18290WAT     H155112   4.733   8.518   8.588
18290WAT     H255113   4.886   8.468   8.617
18291WAT      O55114   3.512   8.256   0.723
18291WAT     H155115   3.483   8.319   0.652
18291WAT     H255116   3.553   8.308   0.799
18292WAT      O55117   2.666   5.659   4.680
18292WAT     H155118   2.616   5.698   4.603
18292WAT     H255119   2.627   5.570   4.704
18293WAT      O55120   6.409   4.202   1.804
18293WAT     H155121   6.496   4.233   1.767
18293WAT     H255122   6.409   4.211   1.903
18294WAT      O55123   1.184   1.116   0.796
18294WAT     H155124   1.086   1.134   0.780
18294WAT     H255125   1.238   1.174   0.735
18295WAT      O55126   2.417   6.527   5.268
18295WAT     H155127   2.418   6.430   5.294
18295WAT     H255128   2.396   6.583   5.349
18296WAT      O55129   9.503   8.676   1.325
18296WAT     H155130   9.491   8.755   1.385
18296WAT     H255131   9.454   8.690   1.239
18297WAT      O55132   7.713   6.762   5.701
18297WAT     H155133   7.652   6.816   5.643
18297WAT     H255134   7.700   6.665   5.682
18298WAT      O55135   8.927   3.830   3.670
18298WAT     H155136   8.985   3.749   3.684
18298WAT     H255137   8.977   3.896   3.613
18299WAT      O55138   1.273   6.057   7.275
18299WAT     H155139   1.309   6.032   7.365
18299WAT     H255140   1.174   6.045   7.275
18300WAT      O55141   0.950   4.504   6.403
18300WAT     H155142   0.893   4.518   6.322
18300WAT     H255143   0.988   4.592   6.432
18301WAT      O55144   6.166   4.047   0.647
18301WAT     H155145   6.149   4.126   0.705
18301WAT     H255146   6.259   4.013   0.663
18302WAT      O55147   0.240   3.582   6.846
18302WAT     H155148   0.244   3.513   6.774
18302WAT     H255149   0.228   3.672   6.805
18303WAT      O55150   3.035   2.204   3.596
18303WAT     H155151   3.022   2.255   3.510
18303WAT     H255152   3.102   2.252   3.653
18304WAT      O55153   1.544   1.214   0.600
18304WAT     H155154   1.555   1.150   0.676
18304WAT     H255155   1.506   1.165   0.521
18305WAT      O55156   8.191   8.958   2.102
18305WAT     H155157   8.146   8.982   2.188
18305WAT     H255158   8.279   8.915   2.121
18306WAT      O55159   8.242   5.369   2.746
18306WAT     H155160   8.232   5.345   2.649
18306WAT     H255161   8.283   5.293   2.796
18307WAT      O55162   4.373   6.195   3.115
18307WAT     H155163   4.294   6.134   3.129
18307WAT     H255164   4.444   6.146   3.065
18308WAT      O55165   4.411   4.938   6.664
18308WAT     H155166   4.340   4.911   6.729
18308WAT     H255167   4.501   4.919   6.702
18309WAT      O55168   3.382   7.438   4.843
18309WAT     H155169   3.311   7.453   4.911
18309WAT     H255170   3.468   7.479   4.874
18310WAT      O55171   2.586   2.129   2.539
18310WAT     H155172   2.565   2.215   2.493
18310WAT     H255173   2.540   2.127   2.628
18311WAT      O55174   8.649   6.824   3.395
18311WAT     H155175   8.617   6.919   3.399
18311WAT     H255176   8.622   6.783   3.308
18312WAT      O55177   6.734   3.711   4.586
18312WAT     H155178   6.700   3.791   4.636
18312WAT     H255179   6.799   3.741   4.517
18313WAT      O55180   6.259   7.031   1.049
18313WAT     H155181   6.182   6.968   1.040
18313WAT     H255182   6.279   7.046   1.146
18314WAT      O55183   8.816   0.792   6.438
18314WAT     H155184   8.899   0.737   6.424
18314WAT     H255185   8.840   0.889   6.437
18315WAT      O55186   0.431   3.596   2.854
18315WAT     H155187   0.376   3.672   2.889
18315WAT     H255188   0.464   3.541   2.930
18316WAT      O55189   6.107   6.266   6.139
18316WAT     H155190   6.024   6.209   6.146
18316WAT     H255191   6.163   6.233   6.063
18317WAT      O55192   1.928   1.010   0.386
18317WAT     H155193   1.849   0.985   0.442
18317WAT     H255194   1.953   1.105   0.404
18318WAT      O55195   0.428   1.120   0.451
18318WAT     H155196   0.432   1.098   0.353
18318WAT     H255197   0.501   1.186   0.472
18319WAT      O55198   0.436   5.787   2.529
18319WAT     H155199   0.377   5.819   2.603
18319WAT     H255200   0.458   5.690   2.544
18320WAT      O55201   4.263   8.003   8.459
18320WAT     H155202   4.218   8.067   8.396
18320WAT     H255203   4.290   8.051   8.542
18321WAT      O55204   3.595   3.183   3.954
18321WAT     H155205   3.684   3.230   3.955
18321WAT     H255206   3.533   3.228   4.019
18322WAT      O55207   5.085   7.145   8.780
18322WAT     H155208   5.059   7.209   8.852
18322WAT     H255209   5.043   7.056   8.798
18323WAT      O55210   1.822   1.716   5.170
18323WAT     H155211   1.876   1.651   5.224
18323WAT     H255212   1.827   1.690   5.073
18324WAT      O55213   1.129   0.573   9.108
18324WAT     H155214   1.122   0.528   9.197
18324WAT     H255215   1.052   0.546   9.050
18325WAT      O55216   9.663   6.071   7.076
18325WAT     H155217   9.590   6.040   7.137
18325WAT     H255218   9.750   6.031   7.106
18326WAT      O55219   7.753   7.830   1.532
18326WAT     H155220   7.748   7.754   1.467
18326WAT     H255221   7.661   7.853   1.564
18327WAT      O55222   9.844   9.238   9.573
18327WAT     H155223   9.753   9.223   9.610
18327WAT     H255224   9.837   9.277   9.481
18328WAT      O55225   6.734   6.996   9.512
18328WAT     H155226   6.643   6.971   9.478
18328WAT     H255227   6.796   6.917   9.502
18329WAT      O55228   8.397   3.668   7.820
18329WAT     H155229   8.449   3.683   7.904
18329WAT     H255230   8.299   3.680   7.839
18330WAT      O55231   7.248   0.972   2.301
18330WAT     H155232   7.320   0.970   2.370
18330WAT     H255233   7.205   1.062   2.300
18331WAT      O55234   7.672   1.162   8.018
18331WAT     H155235   7.600   1.225   8.046
18331WAT     H255236   7.735   1.148   8.095
18332WAT      O55237   9.886   8.902   9.472
18332WAT     H155238   9.922   8.830   9.413
18332WAT     H255239   9.793   8.879   9.501
18333WAT      O55240   4.781   3.537   3.343
18333WAT     H155241   4.841   3.462   3.317
18333WAT     H255242   4.826   3.624   3.323
18334WAT      O55243   5.362   3.967   1.686
18334WAT     H155244   5.332   3.872   1.686
18334WAT     H255245   5.351   4.006   1.595
18335WAT      O55246   7.898   1.364   8.331
18335WAT     H155247   7.830   1.423   8.373
18335WAT     H255248   7.989   1.404   8.340
18336WAT      O55249   8.435   9.356   2.398
18336WAT     H155250   8.505   9.369   2.329
18336WAT     H255251   8.385   9.442   2.413
18337WAT      O55252   1.605   4.285   6.035
18337WAT     H155253   1.658   4.311   6.116
18337WAT     H255254   1.538   4.356   6.015
18338WAT      O55255   6.320   3.204   9.167
18338WAT     H155256   6.305   3.123   9.224
18338WAT     H255257   6.233   3.236   9.130
18339WAT      O55258   2.980   1.941   4.007
18339WAT     H155259   2.972   1.918   3.910
18339WAT     H255260   3.044   2.017   4.018
18340WAT      O55261   5.837   4.924   0.147
18340WAT     H155262   5.848   4.976   0.232
18340WAT     H255263   5.740   4.904   0.133
18341WAT      O55264   5.919   0.969   7.628
18341WAT     H155265   5.871   1.040   7.577
18341WAT     H255266   6.015   0.966   7.599
18342WAT      O55267   2.702   6.375   9.123
18342WAT     H155268   2.636   6.450   9.128
18342WAT     H255269   2.673   6.301   9.183
18343WAT      O55270   9.211   7.074   2.648
18343WAT     H155271   9.155   7.031   2.577
18343WAT     H255272   9.153   7.132   2.705
18344WAT      O55273   7.215   4.651   7.128
18344WAT     H155274   7.146   4.719   7.152
18344WAT     H255275   7.170   4.567   7.097
18345WAT      O55276   6.929   6.719   6.681
18345WAT     H155277   6.889   6.682   6.597
18345WAT     H255278   6.908   6.657   6.757
18346WAT      O55279   8.670   9.119   6.588
18346WAT     H155280   8.612   9.055   6.639
18346WAT     H255281   8.702   9.077   6.504
18347WAT      O55282   0.144   6.771   0.027
18347WAT     H155283   0.177   6.810  -0.060
18347WAT     H255284   0.070   6.828   0.063
18348WAT      O55285   8.882   7.594   9.338
18348WAT     H155286   8.975   7.578   9.305
18348WAT     H255287   8.857   7.689   9.322
18349WAT      O55288   7.177   4.943   5.511
18349WAT     H155289   7.247   4.981   5.572
18349WAT     H255290   7.087   4.954   5.552
18350WAT      O55291   5.819   8.428   1.329
18350WAT     H155292   5.820   8.330   1.350
18350WAT     H255293   5.832   8.441   1.231
18351WAT      O55294   6.476   8.782   2.371
18351WAT     H155295   6.393   8.807   2.420
18351WAT     H255296   6.523   8.864   2.339
18352WAT      O55297   7.076   2.739   7.592
18352WAT     H155298   7.122   2.821   7.556
18352WAT     H255299   7.142   2.683   7.642
18353WAT      O55300   8.016   1.609   8.765
18353WAT     H155301   7.945   1.671   8.729
18353WAT     H255302   7.986   1.514   8.753
18354WAT      O55303   9.435   1.435   6.974
18354WAT     H155304   9.524   1.460   7.013
18354WAT     H255305   9.378   1.396   7.046
18355WAT      O55306   3.521   1.815   1.899
18355WAT     H155307   3.526   1.725   1.941
18355WAT     H255308   3.610   1.860   1.903
18356WAT      O55309   5.658   5.685   6.739
18356WAT     H155310   5.743   5.702   6.688
18356WAT     H255311   5.631   5.589   6.726
18357WAT      O55312   1.066   3.373   7.112
18357WAT     H155313   0.997   3.332   7.172
18357WAT     H255314   1.135   3.419   7.168
18358WAT      O55315   3.647   9.242   5.078
18358WAT     H155316   3.678   9.314   5.015
18358WAT     H255317   3.556   9.212   5.051
18359WAT      O55318   7.271   8.562   3.464
18359WAT     H155319   7.205   8.566   3.539
18359WAT     H255320   7.265   8.473   3.419
18360WAT      O55321   7.037   0.918   5.689
18360WAT     H155322   6.969   0.846   5.676
18360WAT     H255323   7.053   0.932   5.786
18361WAT      O55324   4.523   2.452   5.351
18361WAT     H155325   4.430   2.450   5.313
18361WAT     H255326   4.519   2.438   5.450
18362WAT      O55327   7.094   9.111   4.499
18362WAT     H155328   7.005   9.147   4.527
18362WAT     H255329   7.167   9.164   4.544
18363WAT      O55330   5.681   1.662   8.669
18363WAT     H155331   5.602   1.718   8.695
18363WAT     H255332   5.683   1.651   8.570
18364WAT      O55333   1.304   4.303   3.681
18364WAT     H155334   1.337   4.292   3.775
18364WAT     H255335   1.373   4.269   3.618
18365WAT      O55336   0.412   3.505   0.575
18365WAT     H155337   0.483   3.523   0.644
18365WAT     H255338   0.454   3.494   0.485
18366WAT      O55339   5.906   4.109   8.841
18366WAT     H155340   6.000   4.089   8.869
18366WAT     H255341   5.907   4.162   8.756
18367WAT      O55342   2.789   6.662   9.144
18367WAT     H155343   2.816   6.618   9.058
18367WAT     H255344   2.859   6.729   9.170
18368WAT      O55345   8.837   4.485   6.105
18368WAT     H155346   8.788   4.570   6.123
18368WAT     H255347   8.908   4.472   6.174
18369WAT      O55348   1.111   8.339   5.969
18369WAT     H155349   1.042   8.329   5.897
18369WAT     H255350   1.191   8.385   5.932
18370WAT      O55351   9.572   2.313   1.580
18370WAT     H155352   9.654   2.341   1.531
18370WAT     H255353   9.597   2.281   1.672
18371WAT      O55354   6.351   4.939   5.371
18371WAT     H155355   6.262   4.961   5.333
18371WAT     H255356   6.346   4.936   5.471
18372WAT      O55357   3.905   3.227   8.833
18372WAT     H155358   3.835   3.251   8.766
18372WAT     H255359   3.995   3.250   8.796
18373WAT      O55360   7.527   2.646   7.810
18373WAT     H155361   7.490   2.668   7.901
18373WAT     H255362   7.623   2.619   7.818
18374WAT      O55363   0.139   9.325   8.685
18374WAT     H155364   0.228   9.348   8.646
18374WAT     H255365   0.077   9.403   8.673
18375WAT      O55366   0.055   7.803   1.194
18375WAT     H155367   0.046   7.902   1.209
18375WAT     H255368   0.132   7.768   1.246
18376WAT      O55369   6.527   5.082   1.477
18376WAT     H155370   6.580   5.005   1.512
18376WAT     H255371   6.488   5.133   1.553
18377WAT      O55372   6.890   9.730   6.948
18377WAT     H155373   6.833   9.807   6.975
18377WAT     H255374   6.860   9.695   6.860
18378WAT      O55375   3.912   0.611   6.113
18378WAT     H155376   3.927   0.558   6.030
18378WAT     H255377   3.815   0.609   6.137
18379WAT      O55378   5.514   6.151   8.193
18379WAT     H155379   5.559   6.077   8.244
18379WAT     H255380   5.468   6.212   8.258
18380WAT      O55381   1.104   1.870   7.723
18380WAT     H155382   1.142   1.788   7.765
18380WAT     H255383   1.091   1.941   7.792
18381WAT      O55384   1.351   6.518   3.198
18381WAT     H155385   1.385   6.518   3.104
18381WAT     H255386   1.409   6.460   3.254
18382WAT      O55387   5.190   7.991   3.131
18382WAT     H155388   5.161   7.992   3.227
18382WAT     H255389   5.162   7.904   3.089
18383WAT      O55390   0.049   4.715   9.138
18383WAT     H155391   0.131   4.729   9.082
18383WAT     H255392   0.072   4.726   9.235
18384WAT      O55393   8.675   6.289   0.343
18384WAT     H155394   8.732   6.227   0.397
18384WAT     H255395   8.608   6.333   0.403
18385WAT      O55396   1.816   6.424   3.322
18385WAT     H155397   1.806   6.475   3.407
18385WAT     H255398   1.860   6.336   3.341
18386WAT      O55399   2.299   5.600   2.845
18386WAT     H155400   2.213   5.652   2.841
18386WAT     H255401   2.278   5.504   2.864
18387WAT      O55402   7.945   3.246   3.763
18387WAT     H155403   7.889   3.242   3.846
18387WAT     H255404   7.922   3.328   3.711
18388WAT      O55405   1.399   9.711   0.408
18388WAT     H155406   1.316   9.693   0.460
18388WAT     H255407   1.375   9.744   0.317
18389WAT      O55408   7.161   0.509   2.468
18389WAT     H155409   7.230   0.579   2.448
18389WAT     H255410   7.157   0.493   2.566
18390WAT      O55411   4.197   6.478   7.918
18390WAT     H155412   4.189   6.559   7.861
18390WAT     H255413   4.288   6.438   7.908
18391WAT      O55414   0.452   2.897   9.288
18391WAT     H155415   0.364   2.871   9.249
18391WAT     H255416   0.499   2.960   9.226
18392WAT      O55417   1.588   0.458   7.751
18392WAT     H155418   1.507   0.432   7.697
18392WAT     H255419   1.588   0.409   7.838
18393WAT      O55420   7.056   3.382   4.540
18393WAT     H155421   7.040   3.293   4.583
18393WAT     H255422   7.098   3.444   4.607
18394WAT      O55423   2.299   1.399   1.120
18394WAT     H155424   2.353   1.418   1.038
18394WAT     H255425   2.317   1.305   1.150
18395WAT      O55426   6.088   9.365   5.619
18395WAT     H155427   6.154   9.291   5.605
18395WAT     H255428   6.002   9.342   5.574
18396WAT      O55429   2.261   1.764   8.361
18396WAT     H155430   2.219   1.723   8.441
18396WAT     H255431   2.280   1.693   8.292
18397WAT      O55432   2.344   6.894   8.599
18397WAT     H155433   2.434   6.888   8.642
18397WAT     H255434   2.289   6.815   8.626
18398WAT      O55435   0.995   4.889   2.686
18398WAT     H155436   1.079   4.845   2.653
18398WAT     H255437   1.013   4.986   2.702
18399WAT      O55438   1.957   6.057   6.282
18399WAT     H155439   1.875   6.098   6.244
18399WAT     H255440   2.034   6.121   6.273
18400WAT      O55441   5.891   8.368   3.145
18400WAT     H155442   5.799   8.404   3.129
18400WAT     H255443   5.905   8.286   3.089
18401WAT      O55444   9.836   9.129   2.565
18401WAT     H155445   9.745   9.164   2.586
18401WAT     H255446   9.874   9.085   2.646
18402WAT      O55447   3.464   4.012   7.199
18402WAT     H155448   3.465   3.914   7.178
18402WAT     H255449   3.379   4.053   7.164
18403WAT      O55450   2.632   3.946   4.429
18403WAT     H155451   2.567   4.010   4.389
18403WAT     H255452   2.633   3.861   4.376
18404WAT      O55453   9.091   2.372   4.408
18404WAT     H155454   9.095   2.451   4.347
18404WAT     H255455   9.014   2.315   4.384
18405WAT      O55456   1.898   6.467   5.303
18405WAT     H155457   1.889   6.555   5.256
18405WAT     H255458   1.867   6.394   5.243
18406WAT      O55459   6.754   5.178   3.967
18406WAT     H155460   6.796   5.233   4.039
18406WAT     H255461   6.793   5.086   3.968
18407WAT      O55462   3.121   2.859   4.793
18407WAT     H155463   3.093   2.914   4.871
18407WAT     H255464   3.220   2.850   4.792
18408WAT      O55465   3.654   6.321   4.041
18408WAT     H155466   3.744   6.278   4.046
18408WAT     H255467   3.606   6.309   4.128
18409WAT      O55468   7.005   8.274   3.351
18409WAT     H155469   6.940   8.278   3.426
18409WAT     H255470   7.097   8.291   3.385
18410WAT      O55471   6.717   9.785   7.788
18410WAT     H155472   6.713   9.796   7.887
18410WAT     H255473   6.813   9.785   7.758
18411WAT      O55474   9.418   8.941   2.937
18411WAT     H155475   9.386   8.849   2.913
18411WAT     H255476   9.460   8.984   2.857
18412WAT      O55477   4.246   9.053   9.255
18412WAT     H155478   4.296   9.137   9.276
18412WAT     H255479   4.277   9.016   9.167
18413WAT      O55480   3.223   9.705   0.780
18413WAT     H155481   3.251   9.616   0.816
18413WAT     H255482   3.301   9.767   0.778
18414WAT      O55483   4.838   3.098   9.712
18414WAT     H155484   4.904   3.153   9.661
18414WAT     H255485   4.857   3.001   9.696
18415WAT      O55486   4.124   1.256   8.367
18415WAT     H155487   4.063   1.237   8.444
18415WAT     H255488   4.215   1.278   8.402
18416WAT      O55489   9.745   8.321   7.364
18416WAT     H155490   9.841   8.293   7.361
18416WAT     H255491   9.704   8.309   7.273
18417WAT      O55492   7.217   3.699   2.324
18417WAT     H155493   7.216   3.600   2.336
18417WAT     H255494   7.298   3.737   2.369
18418WAT      O55495   6.693   7.566   9.679
18418WAT     H155496   6.597   7.540   9.692
18418WAT     H255497   6.710   7.581   9.581
18419WAT      O55498   4.105   2.732   2.745
18419WAT     H155499   4.189   2.724   2.693
18419WAT     H255500   4.106   2.817   2.798
18420WAT      O55501   4.164   1.453   3.153
18420WAT     H155502   4.089   1.437   3.089
18420WAT     H255503   4.248   1.470   3.102
18421WAT      O55504   5.221   3.087   4.191
18421WAT     H155505   5.271   3.155   4.138
18421WAT     H255506   5.194   3.011   4.131
18422WAT      O55507   7.342   3.572   3.569
18422WAT     H155508   7.405   3.526   3.632
18422WAT     H255509   7.272   3.621   3.622
18423WAT      O55510   5.965   8.601   7.099
18423WAT     H155511   5.881   8.652   7.084
18423WAT     H255512   6.028   8.617   7.023
18424WAT      O55513   4.599   4.080   6.325
18424WAT     H155514   4.537   4.141   6.374
18424WAT     H255515   4.694   4.111   6.338
18425WAT      O55516   2.531   8.551   4.571
18425WAT     H155517   2.519   8.623   4.503
18425WAT     H255518   2.540   8.592   4.662
18426WAT      O55519   7.256   6.605   0.794
18426WAT     H155520   7.241   6.514   0.756
18426WAT     H255521   7.170   6.655   0.797
18427WAT      O55522   5.922   9.522   4.349
18427WAT     H155523   5.827   9.489   4.342
18427WAT     H255524   5.923   9.622   4.350
18428WAT      O55525   7.289   7.307   0.359
18428WAT     H155526   7.380   7.271   0.339
18428WAT     H255527   7.293   7.357   0.446
18429WAT      O55528   4.656   8.462   9.044
18429WAT     H155529   4.606   8.441   8.960
18429WAT     H255530   4.753   8.471   9.022
18430WAT      O55531   2.666   5.569   1.982
18430WAT     H155532   2.678   5.535   1.889
18430WAT     H255533   2.736   5.528   2.041
18431WAT      O55534   8.038   7.983   6.070
18431WAT     H155535   8.125   7.944   6.041
18431WAT     H255536   8.008   8.050   6.002
18432WAT      O55537   2.764   8.023   3.315
18432WAT     H155538   2.744   8.120   3.327
18432WAT     H255539   2.680   7.974   3.294
18433WAT      O55540   1.201   9.486   7.807
18433WAT     H155541   1.292   9.505   7.844
18433WAT     H255542   1.151   9.572   7.797
18434WAT      O55543   3.166   4.664   7.993
18434WAT     H155544   3.189   4.567   8.003
18434WAT     H255545   3.197   4.714   8.073
18435WAT      O55546   0.144   7.177   5.565
18435WAT     H155547   0.218   7.223   5.614
18435WAT     H255548   0.147   7.203   5.468
18436WAT      O55549   7.349   1.832   7.995
18436WAT     H155550   7.402   1.865   7.917
18436WAT     H255551   7.255   1.867   7.989
18437WAT      O55552   1.179   5.176   8.950
18437WAT     H155553   1.125   5.224   9.019
18437WAT     H255554   1.258   5.231   8.924
18438WAT      O55555   2.158   2.240   0.400
18438WAT     H155556   2.180   2.161   0.342
18438WAT     H255557   2.093   2.299   0.353
18439WAT      O55558   4.491   6.660   8.780
18439WAT     H155559   4.493   6.581   8.719
18439WAT     H255560   4.458   6.740   8.729
18440WAT      O55561   6.429   5.072   7.864
18440WAT     H155562   6.483   5.094   7.782
18440WAT     H255563   6.470   5.117   7.943
18441WAT      O55564   3.439   0.157   9.850
18441WAT     H155565   3.524   0.199   9.881
18441WAT     H255566   3.458   0.066   9.813
18442WAT      O55567   8.714   2.510   6.607
18442WAT     H155568   8.741   2.606   6.617
18442WAT     H255569   8.737   2.479   6.515
18443WAT      O55570   5.747   1.039   0.457
18443WAT     H155571   5.759   1.038   0.557
18443WAT     H255572   5.651   1.055   0.435
18444WAT      O55573   8.510   5.701   6.871
18444WAT     H155574   8.448   5.657   6.805
18444WAT     H255575   8.531   5.794   6.839
18445WAT      O55576   7.059   2.321   6.165
18445WAT     H155577   7.131   2.380   6.129
18445WAT     H255578   6.972   2.342   6.120
18446WAT      O55579   8.135   4.453   0.149
18446WAT     H155580   8.154   4.516   0.074
18446WAT     H255581   8.201   4.468   0.222
18447WAT      O55582   5.375   5.769   0.718
18447WAT     H155583   5.415   5.804   0.633
18447WAT     H255584   5.314   5.693   0.698
18448WAT      O55585   3.652   7.611   7.424
18448WAT     H155586   3.730   7.671   7.437
18448WAT     H255587   3.571   7.652   7.465
18449WAT      O55588   9.120   5.273   3.401
18449WAT     H155589   9.077   5.182   3.402
18449WAT     H255590   9.141   5.301   3.495
18450WAT      O55591   4.140   1.096   3.419
18450WAT     H155592   4.044   1.111   3.443
18450WAT     H255593   4.186   1.049   3.494
18451WAT      O55594   7.390   4.195   2.904
18451WAT     H155595   7.450   4.273   2.889
18451WAT     H255596   7.441   4.123   2.952
18452WAT      O55597   0.136   1.206   6.362
18452WAT     H155598   0.160   1.175   6.270
18452WAT     H255599   0.113   1.126   6.419
18453WAT      O55600   4.587   2.470   2.807
18453WAT     H155601   4.635   2.414   2.874
18453WAT     H255602   4.636   2.557   2.796
18454WAT      O55603   5.034   8.504   8.739
18454WAT     H155604   5.123   8.488   8.696
18454WAT     H255605   5.032   8.596   8.779
18455WAT      O55606   9.772   3.455   7.037
18455WAT     H155607   9.794   3.415   6.948
18455WAT     H255608   9.683   3.422   7.067
18456WAT      O55609   3.293   1.798   4.959
18456WAT     H155610   3.247   1.880   4.992
18456WAT     H255611   3.385   1.821   4.928
18457WAT      O55612   8.193   4.938   3.748
18457WAT     H155613   8.215   4.896   3.660
18457WAT     H255614   8.120   4.886   3.792
18458WAT      O55615   9.787   9.215   3.149
18458WAT     H155616   9.808   9.118   3.163
18458WAT     H255617   9.867   9.270   3.172
18459WAT      O55618   8.440   6.978   7.143
18459WAT     H155619   8.378   7.023   7.079
18459WAT     H255620   8.429   6.879   7.136
18460WAT      O55621   3.333   0.039   8.563
18460WAT     H155622   3.360  -0.056   8.549
18460WAT     H255623   3.414   0.097   8.565
18461WAT      O55624   9.453   2.899   2.980
18461WAT     H155625   9.485   2.827   2.918
18461WAT     H255626   9.511   2.900   3.062
18462WAT      O55627   1.542   0.318   5.412
18462WAT     H155628   1.598   0.267   5.347
18462WAT     H255629   1.498   0.254   5.476
18463WAT      O55630   0.462   4.321   2.609
18463WAT     H155631   0.463   4.370   2.696
18463WAT     H255632   0.407   4.370   2.543
18464WAT      O55633   4.818   5.023   1.110
18464WAT     H155634   4.836   5.094   1.178
18464WAT     H255635   4.873   5.042   1.028
18465WAT      O55636   0.484   5.040   3.416
18465WAT     H155637   0.491   5.100   3.336
18465WAT     H255638   0.421   5.080   3.482
18466WAT      O55639   8.417   4.206   5.293
18466WAT     H155640   8.516   4.199   5.294
18466WAT     H255641   8.389   4.291   5.336
18467WAT      O55642   1.895   9.297   8.624
18467WAT     H155643   1.902   9.318   8.721
18467WAT     H255644   1.801   9.312   8.593
18468WAT      O55645   6.179   5.153   2.545
18468WAT     H155646   6.195   5.068   2.494
18468WAT     H255647   6.267   5.190   2.575
18469WAT      O55648   5.326   9.129   9.727
18469WAT     H155649   5.349   9.041   9.768
18469WAT     H255650   5.253   9.173   9.780
18470WAT      O55651   3.088   6.208   7.989
18470WAT     H155652   3.008   6.265   8.001
18470WAT     H255653   3.163   6.263   7.953
18471WAT      O55654   6.164   0.576   1.209
18471WAT     H155655   6.145   0.479   1.225
18471WAT     H255656   6.078   0.627   1.215
18472WAT      O55657   6.618   4.259   5.991
18472WAT     H155658   6.546   4.229   5.928
18472WAT     H255659   6.633   4.357   5.980
18473WAT      O55660   1.980   8.214   7.266
18473WAT     H155661   1.964   8.278   7.191
18473WAT     H255662   2.026   8.261   7.341
18474WAT      O55663   7.051   8.142   9.452
18474WAT     H155664   7.082   8.230   9.487
18474WAT     H255665   6.961   8.121   9.491
18475WAT      O55666   6.581   2.857   6.388
18475WAT     H155667   6.525   2.919   6.443
18475WAT     H255668   6.645   2.809   6.448
18476WAT      O55669   3.133   0.028   0.545
18476WAT     H155670   3.168  -0.026   0.621
18476WAT     H255671   3.033   0.026   0.546
18477WAT      O55672   2.984   3.726   6.482
18477WAT     H155673   2.922   3.786   6.532
18477WAT     H255674   2.932   3.669   6.419
18478WAT      O55675   7.600   5.758   5.655
18478WAT     H155676   7.699   5.751   5.650
18478WAT     H255677   7.574   5.854   5.669
18479WAT      O55678   6.852   6.463   7.294
18479WAT     H155679   6.805   6.385   7.336
18479WAT     H255680   6.847   6.542   7.355
18480WAT      O55681   3.594   4.047   7.622
18480WAT     H155682   3.544   4.124   7.582
18480WAT     H255683   3.640   3.996   7.549
18481WAT      O55684   3.369   2.609   3.017
18481WAT     H155685   3.318   2.674   2.961
18481WAT     H255686   3.305   2.549   3.065
18482WAT      O55687   9.813   1.837   5.959
18482WAT     H155688   9.909   1.864   5.964
18482WAT     H255689   9.790   1.813   5.864
18483WAT      O55690   8.076   3.412   6.032
18483WAT     H155691   8.062   3.313   6.029
18483WAT     H255692   8.154   3.433   6.091
18484WAT      O55693   0.353   8.707   9.385
18484WAT     H155694   0.448   8.687   9.412
18484WAT     H255695   0.345   8.804   9.364
18485WAT      O55696   2.854   1.006   8.080
18485WAT     H155697   2.916   1.017   8.158
18485WAT     H255698   2.827   0.910   8.072
18486WAT      O55699   6.325   4.643   1.025
18486WAT     H155700   6.405   4.701   1.043
18486WAT     H255701   6.356   4.555   0.989
18487WAT      O55702   5.877   2.559   7.850
18487WAT     H155703   5.932   2.620   7.793
18487WAT     H255704   5.835   2.488   7.793
18488WAT      O55705   1.107   5.157   2.196
18488WAT     H155706   1.094   5.081   2.260
18488WAT     H255707   1.029   5.161   2.133
18489WAT      O55708   8.894   7.803   4.647
18489WAT     H155709   8.990   7.779   4.665
18489WAT     H255710   8.836   7.764   4.719
18490WAT      O55711   5.717   4.527   1.654
18490WAT     H155712   5.621   4.505   1.633
18490WAT     H255713   5.720   4.606   1.715
18491WAT      O55714   6.219   2.197   4.128
18491WAT     H155715   6.155   2.235   4.195
18491WAT     H255716   6.301   2.254   4.124
18492WAT      O55717   6.581   1.793   8.433
18492WAT     H155718   6.613   1.851   8.358
18492WAT     H255719   6.553   1.850   8.510
18493WAT      O55720   4.327   3.239   5.992
18493WAT     H155721   4.391   3.166   5.967
18493WAT     H255722   4.336   3.315   5.927
18494WAT      O55723   8.469   6.089   3.769
18494WAT     H155724   8.521   6.135   3.697
18494WAT     H255725   8.460   6.150   3.848
18495WAT      O55726   9.006   6.112   5.875
18495WAT     H155727   8.928   6.172   5.858
18495WAT     H255728   9.055   6.144   5.956
18496WAT      O55729   4.520   7.004   6.672
18496WAT     H155730   4.532   6.990   6.574
18496WAT     H255731   4.549   6.922   6.722
18497WAT      O55732   1.895   1.023   9.823
18497WAT     H155733   1.808   1.052   9.862
18497WAT     H255734   1.935   1.099   9.771
18498WAT      O55735   0.346   6.049   9.818
18498WAT     H155736   0.381   6.129   9.867
18498WAT     H255737   0.398   5.968   9.844
18499WAT      O55738   2.597   7.926   7.607
18499WAT     H155739   2.577   7.829   7.606
18499WAT     H255740   2.523   7.976   7.652
18500WAT      O55741   2.240   1.169   8.589
18500WAT     H155742   2.155   1.160   8.537
18500WAT     H255743   2.230   1.122   8.677
18501WAT      O55744   9.215   3.326   8.653
18501WAT     H155745   9.239   3.305   8.748
18501WAT     H255746   9.298   3.341   8.600
18502WAT      O55747   1.317   8.614   0.497
18502WAT     H155748   1.306   8.675   0.575
18502WAT     H255749   1.413   8.611   0.471
18503WAT      O55750   6.681   3.468   8.010
18503WAT     H155751   6.695   3.426   8.100
18503WAT     H255752   6.706   3.402   7.939
18504WAT      O55753   4.560   4.431   8.755
18504WAT     H155754   4.463   4.405   8.757
18504WAT     H255755   4.578   4.494   8.831
18505WAT      O55756   5.076   4.946   7.373
18505WAT     H155757   5.085   4.875   7.443
18505WAT     H255758   4.981   4.950   7.343
18506WAT      O55759   8.179   7.835   1.486
18506WAT     H155760   8.206   7.799   1.575
18506WAT     H255761   8.090   7.880   1.494
18507WAT      O55762   1.590   8.586   6.228
18507WAT     H155763   1.658   8.513   6.226
18507WAT     H255764   1.580   8.620   6.322
18508WAT      O55765   5.098   3.421   4.407
18508WAT     H155766   5.093   3.400   4.504
18508WAT     H255767   5.077   3.339   4.354
18509WAT      O55768   5.777   6.371   9.709
18509WAT     H155769   5.835   6.449   9.683
18509WAT     H255770   5.684   6.403   9.725
18510WAT      O55771   4.024   4.088   9.861
18510WAT     H155772   4.059   4.130   9.945
18510WAT     H255773   3.927   4.110   9.851
18511WAT      O55774   8.509   7.857   0.605
18511WAT     H155775   8.536   7.828   0.513
18511WAT     H255776   8.423   7.908   0.600
18512WAT      O55777   6.583   3.687   9.683
18512WAT     H155778   6.630   3.775   9.673
18512WAT     H255779   6.524   3.690   9.764
18513WAT      O55780   0.003   4.405   6.042
18513WAT     H155781  -0.012   4.405   5.943
18513WAT     H255782   0.057   4.324   6.067
18514WAT      O55783   1.299   6.229   6.141
18514WAT     H155784   1.228   6.287   6.101
18514WAT     H255785   1.346   6.179   6.068
18515WAT      O55786   6.966   0.395   1.965
18515WAT     H155787   7.003   0.303   1.980
18515WAT     H255788   7.006   0.434   1.882
18516WAT      O55789   2.877   7.581   8.521
18516WAT     H155790   2.897   7.490   8.558
18516WAT     H255791   2.832   7.571   8.432
18517WAT      O55792   3.295   0.031   2.548
18517WAT     H155793   3.293   0.031   2.448
18517WAT     H255794   3.203   0.050   2.583
18518WAT      O55795   9.312   5.430   8.403
18518WAT     H155796   9.270   5.520   8.390
18518WAT     H255797   9.367   5.430   8.486
18519WAT      O55798   0.055   3.138   1.854
18519WAT     H155799   0.052   3.040   1.833
18519WAT     H255800   0.149   3.165   1.876
18520WAT      O55801   0.952   2.629   8.776
18520WAT     H155802   0.910   2.560   8.716
18520WAT     H255803   0.896   2.640   8.858
18521WAT      O55804   5.741   6.122   6.954
18521WAT     H155805   5.805   6.147   7.027
18521WAT     H255806   5.684   6.046   6.985
18522WAT      O55807   9.218   3.043   4.572
18522WAT     H155808   9.210   2.961   4.516
18522WAT     H255809   9.310   3.047   4.611
18523WAT      O55810   0.680   2.216   1.907
18523WAT     H155811   0.772   2.209   1.946
18523WAT     H255812   0.677   2.293   1.842
18524WAT      O55813   0.200   7.113   2.032
18524WAT     H155814   0.132   7.058   2.081
18524WAT     H255815   0.223   7.069   1.945
18525WAT      O55816   9.515   4.794   0.051
18525WAT     H155817   9.559   4.862   0.109
18525WAT     H255818   9.439   4.837   0.001
18526WAT      O55819   4.105   6.072   7.748
18526WAT     H155820   4.125   5.980   7.781
18526WAT     H255821   4.187   6.129   7.755
18527WAT      O55822   0.965   0.009   1.162
18527WAT     H155823   0.950   0.104   1.134
18527WAT     H255824   0.899  -0.015   1.233
18528WAT      O55825   2.539   7.594   6.800
18528WAT     H155826   2.537   7.685   6.758
18528WAT     H255827   2.578   7.601   6.892
18529WAT      O55828   5.793   1.742   1.088
18529WAT     H155829   5.732   1.684   1.142
18529WAT     H255830   5.820   1.822   1.141
18530WAT      O55831   9.835   3.541   2.668
18530WAT     H155832   9.880   3.608   2.727
18530WAT     H255833   9.773   3.484   2.722
18531WAT      O55834   4.833   1.808   4.018
18531WAT     H155835   4.894   1.735   3.988
18531WAT     H255836   4.839   1.884   3.953
18532WAT      O55837   8.806   8.213   2.120
18532WAT     H155838   8.894   8.190   2.162
18532WAT     H255839   8.757   8.129   2.096
18533WAT      O55840   5.193   5.700   2.428
18533WAT     H155841   5.254   5.766   2.472
18533WAT     H255842   5.135   5.748   2.362
18534WAT      O55843   0.085   3.222   6.006
18534WAT     H155844   0.052   3.289   5.939
18534WAT     H255845   0.106   3.269   6.092
18535WAT      O55846   7.097   2.818   4.899
18535WAT     H155847   7.086   2.904   4.948
18535WAT     H255848   7.059   2.744   4.955
18536WAT      O55849   6.839   7.493   7.240
18536WAT     H155850   6.779   7.573   7.230
18536WAT     H255851   6.831   7.436   7.158
18537WAT      O55852   2.367   1.345   8.398
18537WAT     H155853   2.361   1.433   8.445
18537WAT     H255854   2.366   1.271   8.465
18538WAT      O55855   1.734   4.184   0.123
18538WAT     H155856   1.739   4.184   0.023
18538WAT     H255857   1.644   4.215   0.151
18539WAT      O55858   1.211   4.158   9.724
18539WAT     H155859   1.112   4.144   9.725
18539WAT     H255860   1.251   4.104   9.650
18540WAT      O55861   9.757   4.295   8.156
18540WAT     H155862   9.685   4.352   8.116
18540WAT     H255863   9.840   4.351   8.168
18541WAT      O55864   9.607   4.305   3.554
18541WAT     H155865   9.694   4.322   3.600
18541WAT     H255866   9.582   4.385   3.499
18542WAT      O55867   9.394   0.723   9.775
18542WAT     H155868   9.331   0.652   9.742
18542WAT     H255869   9.366   0.812   9.738
18543WAT      O55870   9.640   4.811   2.479
18543WAT     H155871   9.602   4.833   2.569
18543WAT     H255872   9.691   4.890   2.444
18544WAT      O55873   6.420   1.901   4.546
18544WAT     H155874   6.352   1.829   4.539
18544WAT     H255875   6.416   1.942   4.638
18545WAT      O55876   0.332   3.248   0.886
18545WAT     H155877   0.374   3.208   0.805
18545WAT     H255878   0.309   3.176   0.951
18546WAT      O55879   9.202   6.392   4.855
18546WAT     H155880   9.106   6.368   4.848
18546WAT     H255881   9.241   6.405   4.763
18547WAT      O55882   3.223   8.582   4.257
18547WAT     H155883   3.176   8.505   4.299
18547WAT     H255884   3.211   8.578   4.157
18548WAT      O55885   0.937   1.265   4.882
18548WAT     H155886   0.859   1.294   4.938
18548WAT     H255887   1.005   1.339   4.880
18549WAT      O55888   6.242   3.756   4.535
18549WAT     H155889   6.162   3.698   4.518
18549WAT     H255890   6.245   3.828   4.466
18550WAT      O55891   7.151   8.075   8.430
18550WAT     H155892   7.156   8.168   8.393
18550WAT     H255893   7.056   8.047   8.438
18551WAT      O55894   7.332   0.074   4.735
18551WAT     H155895   7.354  -0.014   4.693
18551WAT     H255896   7.233   0.080   4.749
18552WAT      O55897   0.621   2.626   4.322
18552WAT     H155898   0.627   2.538   4.368
18552WAT     H255899   0.527   2.660   4.328
18553WAT      O55900   9.689   6.751   1.825
18553WAT     H155901   9.593   6.728   1.809
18553WAT     H255902   9.740   6.746   1.739
18554WAT      O55903   1.987   8.147   4.139
18554WAT     H155904   1.954   8.072   4.081
18554WAT     H255905   2.063   8.115   4.194
18555WAT      O55906   4.308   7.043   9.338
18555WAT     H155907   4.364   6.988   9.277
18555WAT     H255908   4.213   7.011   9.335
18556WAT      O55909   7.323   6.693   9.385
18556WAT     H155910   7.369   6.628   9.324
18556WAT     H255911   7.273   6.760   9.331
18557WAT      O55912   8.517   6.635   4.015
18557WAT     H155913   8.593   6.623   4.078
18557WAT     H255914   8.454   6.704   4.052
18558WAT      O55915   6.935   0.694   8.306
18558WAT     H155916   6.858   0.638   8.340
18558WAT     H255917   7.018   0.668   8.355
18559WAT      O55918   0.928   4.326   6.862
18559WAT     H155919   1.002   4.289   6.805
18559WAT     H255920   0.959   4.333   6.956
18560WAT      O55921   2.650   8.828   3.080
18560WAT     H155922   2.605   8.895   3.140
18560WAT     H255923   2.747   8.824   3.103
18561WAT      O55924   3.007   9.578   7.119
18561WAT     H155925   3.013   9.596   7.217
18561WAT     H255926   3.077   9.632   7.072
18562WAT      O55927   5.442   1.497   9.348
18562WAT     H155928   5.375   1.563   9.315
18562WAT     H255929   5.502   1.541   9.416
18563WAT      O55930   6.951   8.717   0.236
18563WAT     H155931   7.002   8.796   0.202
18563WAT     H255932   6.915   8.665   0.159
18564WAT      O55933   4.980   1.002   3.352
18564WAT     H155934   4.891   1.034   3.385
18564WAT     H255935   4.976   0.904   3.333
18565WAT      O55936   4.070   6.308   4.152
18565WAT     H155937   4.057   6.362   4.069
18565WAT     H255938   4.168   6.291   4.166
18566WAT      O55939   3.060   0.739   7.293
18566WAT     H155940   3.023   0.795   7.219
18566WAT     H255941   3.157   0.720   7.276
18567WAT      O55942   2.756   5.474   6.495
18567WAT     H155943   2.819   5.542   6.533
18567WAT     H255944   2.785   5.451   6.402
18568WAT      O55945   8.365   1.763   4.264
18568WAT     H155946   8.391   1.779   4.359
18568WAT     H255947   8.274   1.801   4.247
18569WAT      O55948   8.436   0.212   4.962
18569WAT     H155949   8.447   0.141   4.892
18569WAT     H255950   8.416   0.169   5.050
18570WAT      O55951   3.850   3.944   2.955
18570WAT     H155952   3.875   3.853   2.920
18570WAT     H255953   3.930   4.003   2.953
18571WAT      O55954   1.877   1.319   6.598
18571WAT     H155955   1.884   1.390   6.528
18571WAT     H255956   1.894   1.230   6.556
18572WAT      O55957   5.225   6.743   2.494
18572WAT     H155958   5.218   6.834   2.535
18572WAT     H255959   5.134   6.711   2.468
18573WAT      O55960   1.998   6.656   1.105
18573WAT     H155961   1.995   6.751   1.075
18573WAT     H255962   1.957   6.597   1.035
18574WAT      O55963   7.167   2.938   2.335
18574WAT     H155964   7.233   2.903   2.402
18574WAT     H255965   7.131   2.863   2.281
18575WAT      O55966   1.314   7.244   4.034
18575WAT     H155967   1.401   7.250   4.082
18575WAT     H255968   1.300   7.150   4.002
18576WAT      O55969   2.015   6.357   0.264
18576WAT     H155970   1.926   6.357   0.218
18576WAT     H255971   2.036   6.266   0.298
18577WAT      O55972   4.175   4.423   8.209
18577WAT     H155973   4.159   4.464   8.119
18577WAT     H255974   4.107   4.458   8.273
18578WAT      O55975   0.620   4.496   4.275
18578WAT     H155976   0.605   4.431   4.201
18578WAT     H255977   0.632   4.588   4.238
18579WAT      O55978   3.773   4.735   9.724
18579WAT     H155979   3.853   4.786   9.695
18579WAT     H255980   3.762   4.742   9.824
18580WAT      O55981   2.335   3.033   3.158
18580WAT     H155982   2.336   3.045   3.058
18580WAT     H255983   2.250   3.072   3.194
18581WAT      O55984   6.730   0.775   4.333
18581WAT     H155985   6.809   0.772   4.272
18581WAT     H255986   6.747   0.716   4.413
18582WAT      O55987   2.992   2.415   1.253
18582WAT     H155988   2.994   2.429   1.352
18582WAT     H255989   3.022   2.322   1.232
18583WAT      O55990   3.991   8.405   7.539
18583WAT     H155991   4.047   8.333   7.580
18583WAT     H255992   3.972   8.382   7.443
18584WAT      O55993   5.757   6.317   8.129
18584WAT     H155994   5.699   6.398   8.121
18584WAT     H255995   5.701   6.238   8.156
18585WAT      O55996   4.153   0.415   7.611
18585WAT     H155997   4.122   0.492   7.667
18585WAT     H255998   4.123   0.429   7.517
18586WAT      O55999   3.203   1.166   3.428
18586WAT     H156000   3.250   1.078   3.440
18586WAT     H256001   3.109   1.158   3.462
18587WAT      O56002   2.408   7.876   2.460
18587WAT     H156003   2.308   7.879   2.463
18587WAT     H256004   2.445   7.952   2.513
18588WAT      O56005   9.728   3.208   7.465
18588WAT     H156006   9.749   3.207   7.367
18588WAT     H256007   9.637   3.248   7.479
18589WAT      O56008   1.381   1.172   9.246
18589WAT     H156009   1.347   1.200   9.336
18589WAT     H256010   1.415   1.078   9.251
18590WAT      O56011   0.466   8.793   8.611
18590WAT     H156012   0.409   8.726   8.563
18590WAT     H256013   0.526   8.839   8.545
18591WAT      O56014   1.413   3.828   3.608
18591WAT     H156015   1.507   3.863   3.612
18591WAT     H256016   1.362   3.862   3.687
18592WAT      O56017   8.047   8.885   7.350
18592WAT     H156018   8.043   8.787   7.371
18592WAT     H256019   7.976   8.933   7.401
18593WAT      O56020   5.608   0.145   1.217
18593WAT     H156021   5.678   0.192   1.270
18593WAT     H256022   5.556   0.084   1.277
18594WAT      O56023   6.789   4.931   9.756
18594WAT     H156024   6.762   4.871   9.831
18594WAT     H256025   6.845   4.880   9.691
18595WAT      O56026   5.727   1.310   7.113
18595WAT     H156027   5.826   1.315   7.124
18595WAT     H256028   5.701   1.349   7.025
18596WAT      O56029   2.634   0.179   6.738
18596WAT     H156030   2.642   0.170   6.837
18596WAT     H256031   2.604   0.272   6.715
18597WAT      O56032   7.814   4.527   3.452
18597WAT     H156033   7.814   4.435   3.490
18597WAT     H256034   7.906   4.565   3.455
18598WAT      O56035   6.587   3.276   2.402
18598WAT     H156036   6.568   3.350   2.337
18598WAT     H256037   6.682   3.248   2.395
18599WAT      O56038   1.315   0.614   6.160
18599WAT     H156039   1.415   0.611   6.158
18599WAT     H256040   1.283   0.608   6.254
18600WAT      O56041   2.117   6.486   9.162
18600WAT     H156042   2.119   6.503   9.260
18600WAT     H256043   2.210   6.474   9.128
18601WAT      O56044   7.858   7.771   8.213
18601WAT     H156045   7.769   7.755   8.170
18601WAT     H256046   7.858   7.734   8.306
18602WAT      O56047   7.738   3.315   6.920
18602WAT     H156048   7.827   3.339   6.958
18602WAT     H256049   7.722   3.217   6.930
18603WAT      O56050   0.103   8.980   5.212
18603WAT     H156051   0.117   8.962   5.309
18603WAT     H256052   0.023   8.930   5.180
18604WAT      O56053   0.390   0.573   7.125
18604WAT     H156054   0.372   0.640   7.053
18604WAT     H256055   0.386   0.481   7.086
18605WAT      O56056   9.634   6.795   6.000
18605WAT     H156057   9.551   6.740   5.996
18605WAT     H256058   9.622   6.877   5.945
18606WAT      O56059   8.923   6.075   7.288
18606WAT     H156060   8.986   6.034   7.355
18606WAT     H256061   8.867   6.003   7.246
18607WAT      O56062   8.303   6.784   3.326
18607WAT     H156063   8.294   6.691   3.361
18607WAT     H256064   8.382   6.788   3.265
18608WAT      O56065   8.004   7.269   3.767
18608WAT     H156066   7.997   7.320   3.853
18608WAT     H256067   7.913   7.259   3.726
18609WAT      O56068   0.576   8.611   6.851
18609WAT     H156069   0.533   8.688   6.805
18609WAT     H256070   0.644   8.644   6.917
18610WAT      O56071   3.818   4.684   5.417
18610WAT     H156072   3.812   4.737   5.501
18610WAT     H256073   3.912   4.686   5.383
18611WAT      O56074   8.142   6.970   0.782
18611WAT     H156075   8.178   7.063   0.797
18611WAT     H256076   8.194   6.925   0.711
18612WAT      O56077   1.775   7.385   7.266
18612WAT     H156078   1.725   7.305   7.300
18612WAT     H256079   1.719   7.467   7.279
18613WAT      O56080   7.370   2.779   1.029
18613WAT     H156081   7.304   2.772   1.104
18613WAT     H256082   7.328   2.828   0.952
18614WAT      O56083   5.451   0.888   4.265
18614WAT     H156084   5.421   0.970   4.314
18614WAT     H256085   5.489   0.822   4.329
18615WAT      O56086   4.715   6.175   9.248
18615WAT     H156087   4.654   6.179   9.169
18615WAT     H256088   4.810   6.181   9.217
18616WAT      O56089   4.606   9.405   6.569
18616WAT     H156090   4.594   9.339   6.643
18616WAT     H256091   4.521   9.456   6.555
18617WAT      O56092   5.660   0.673   3.193
18617WAT     H156093   5.627   0.603   3.256
18617WAT     H256094   5.668   0.760   3.242
18618WAT      O56095   3.272   8.958   6.521
18618WAT     H156096   3.362   8.929   6.553
18618WAT     H256097   3.218   8.989   6.599
18619WAT      O56098   1.550   7.981   7.912
18619WAT     H156099   1.582   7.889   7.934
18619WAT     H256100   1.617   8.025   7.852
18620WAT      O56101   5.592   5.679   3.913
18620WAT     H156102   5.608   5.594   3.864
18620WAT     H256103   5.546   5.659   4.000
18621WAT      O56104   5.211   5.498   2.579
18621WAT     H156105   5.309   5.493   2.596
18621WAT     H256106   5.193   5.560   2.502
18622WAT      O56107   5.705   3.484   0.009
18622WAT     H156108   5.724   3.389  -0.018
18622WAT     H256109   5.634   3.522  -0.051
18623WAT      O56110   2.408   8.443   8.718
18623WAT     H156111   2.487   8.392   8.752
18623WAT     H256112   2.352   8.383   8.661
18624WAT      O56113   4.072   5.474   9.137
18624WAT     H156114   4.172   5.467   9.130
18624WAT     H256115   4.033   5.487   9.046
18625WAT      O56116   6.748   6.966   0.340
18625WAT     H156117   6.844   6.937   0.343
18625WAT     H256118   6.699   6.911   0.272
18626WAT      O56119   1.773   7.990   6.339
18626WAT     H156120   1.704   8.016   6.272
18626WAT     H256121   1.864   8.018   6.307
18627WAT      O56122   0.336   8.388   0.597
18627WAT     H156123   0.326   8.289   0.593
18627WAT     H256124   0.294   8.429   0.516
18628WAT      O56125   6.685   5.352   3.311
18628WAT     H156126   6.710   5.437   3.357
18628WAT     H256127   6.768   5.297   3.295
18629WAT      O56128   4.221   4.474   4.281
18629WAT     H156129   4.284   4.397   4.287
18629WAT     H256130   4.156   4.470   4.356
18630WAT      O56131   8.908   2.707   4.970
18630WAT     H156132   8.839   2.777   4.984
18630WAT     H256133   8.881   2.623   5.017
18631WAT      O56134   3.106   6.999   8.067
18631WAT     H156135   3.127   7.092   8.038
18631WAT     H256136   3.040   6.959   8.004
18632WAT      O56137   0.843   6.084   8.293
18632WAT     H156138   0.761   6.034   8.264
18632WAT     H256139   0.838   6.178   8.258
18633WAT      O56140   6.927   2.422   8.350
18633WAT     H156141   6.944   2.328   8.323
18633WAT     H256142   6.832   2.446   8.331
18634WAT      O56143   4.815   0.502   6.910
18634WAT     H156144   4.726   0.546   6.916
18634WAT     H256145   4.884   0.558   6.956
18635WAT      O56146   2.535   0.047   9.800
18635WAT     H156147   2.557  -0.049   9.814
18635WAT     H256148   2.471   0.056   9.723
18636WAT      O56149   6.241   0.596   3.899
18636WAT     H156150   6.146   0.622   3.880
18636WAT     H256151   6.243   0.525   3.969
18637WAT      O56152   5.039   8.302   7.036
18637WAT     H156153   5.094   8.263   7.110
18637WAT     H256154   5.066   8.261   6.949
18638WAT      O56155   9.134   0.128   5.003
18638WAT     H156156   9.207   0.096   4.943
18638WAT     H256157   9.137   0.228   5.008
18639WAT      O56158   1.931   4.983   5.658
18639WAT     H156159   1.883   4.963   5.572
18639WAT     H256160   2.022   5.017   5.638
18640WAT      O56161   6.290   4.735   6.750
18640WAT     H156162   6.205   4.684   6.765
18640WAT     H256163   6.353   4.680   6.696
18641WAT      O56164   1.359   6.268   6.686
18641WAT     H156165   1.386   6.180   6.726
18641WAT     H256166   1.271   6.258   6.641
18642WAT      O56167   4.291   0.372   2.649
18642WAT     H156168   4.291   0.430   2.568
18642WAT     H256169   4.379   0.324   2.656
18643WAT      O56170   7.703   6.813   8.261
18643WAT     H156171   7.706   6.750   8.338
18643WAT     H256172   7.668   6.902   8.293
18644WAT      O56173   2.824   2.385   9.577
18644WAT     H156174   2.883   2.451   9.623
18644WAT     H256175   2.803   2.416   9.485
18645WAT      O56176   8.286   4.449   0.380
18645WAT     H156177   8.199   4.403   0.398
18645WAT     H256178   8.306   4.514   0.454
18646WAT      O56179   0.605   4.540   0.949
18646WAT     H156180   0.677   4.593   0.905
18646WAT     H256181   0.547   4.601   1.004
18647WAT      O56182   2.679   4.152   5.942
18647WAT     H156183   2.693   4.136   5.844
18647WAT     H256184   2.746   4.218   5.975
18648WAT      O56185   1.846   8.861   3.696
18648WAT     H156186   1.750   8.867   3.723
18648WAT     H256187   1.896   8.940   3.733
18649WAT      O56188   0.467   4.476   2.856
18649WAT     H156189   0.552   4.528   2.866
18649WAT     H256190   0.424   4.464   2.945
18650WAT      O56191   1.046   1.614   8.574
18650WAT     H156192   1.010   1.687   8.516
18650WAT     H256193   0.976   1.584   8.639
18651WAT      O56194   1.258   5.494   3.816
18651WAT     H156195   1.319   5.422   3.783
18651WAT     H256196   1.185   5.509   3.749
18652WAT      O56197   3.479   0.416   1.258
18652WAT     H156198   3.448   0.458   1.173
18652WAT     H256199   3.577   0.432   1.269
18653WAT      O56200   7.426   0.371   0.216
18653WAT     H156201   7.478   0.427   0.280
18653WAT     H256202   7.397   0.428   0.139
18654WAT      O56203   8.894   3.541   8.172
18654WAT     H156204   8.978   3.517   8.221
18654WAT     H256205   8.915   3.609   8.101
18655WAT      O56206   5.935   4.593   0.843
18655WAT     H156207   5.851   4.539   0.848
18655WAT     H256208   6.003   4.554   0.906
18656WAT      O56209   7.092   5.900   6.834
18656WAT     H156210   7.137   5.855   6.911
18656WAT     H256211   7.130   5.992   6.822
18657WAT      O56212   1.315   0.087   9.573
18657WAT     H156213   1.405   0.050   9.593
18657WAT     H256214   1.255   0.074   9.652
18658WAT      O56215   0.473   4.628   4.770
18658WAT     H156216   0.527   4.597   4.692
18658WAT     H256217   0.533   4.654   4.845
18659WAT      O56218   6.356   6.140   9.765
18659WAT     H156219   6.368   6.099   9.675
18659WAT     H256220   6.325   6.235   9.755
18660WAT      O56221   0.024   7.282   3.129
18660WAT     H156222  -0.040   7.337   3.074
18660WAT     H256223   0.012   7.185   3.107
18661WAT      O56224   5.047   8.511   2.214
18661WAT     H156225   4.958   8.480   2.180
18661WAT     H256226   5.091   8.566   2.143
18662WAT      O56227   8.401   1.913   8.295
18662WAT     H156228   8.361   1.997   8.333
18662WAT     H256229   8.452   1.935   8.212
18663WAT      O56230   2.809   7.823   4.951
18663WAT     H156231   2.870   7.878   5.007
18663WAT     H256232   2.782   7.875   4.869
18664WAT      O56233   4.186   0.521   6.732
18664WAT     H156234   4.096   0.566   6.732
18664WAT     H256235   4.182   0.440   6.791
18665WAT      O56236   6.679   9.556   3.665
18665WAT     H156237   6.597   9.501   3.649
18665WAT     H256238   6.761   9.500   3.650
18666WAT      O56239   0.847   3.741   0.362
18666WAT     H156240   0.883   3.655   0.328
18666WAT     H256241   0.751   3.751   0.333
18667WAT      O56242   5.721   5.594   2.619
18667WAT     H156243   5.726   5.693   2.635
18667WAT     H256244   5.801   5.550   2.658
18668WAT      O56245   0.361   4.618   9.583
18668WAT     H156246   0.344   4.604   9.680
18668WAT     H256247   0.396   4.711   9.568
18669WAT      O56248   4.527   0.274   2.686
18669WAT     H156249   4.592   0.316   2.624
18669WAT     H256250   4.550   0.177   2.699
18670WAT      O56251   2.570   4.412   2.944
18670WAT     H156252   2.590   4.493   2.888
18670WAT     H256253   2.512   4.350   2.892
18671WAT      O56254   8.347   9.686   6.050
18671WAT     H156255   8.343   9.594   6.012
18671WAT     H256256   8.442   9.716   6.057
18672WAT      O56257   7.782   8.403   0.589
18672WAT     H156258   7.724   8.377   0.667
18672WAT     H256259   7.737   8.375   0.504
18673WAT      O56260   2.635   5.041   6.390
18673WAT     H156261   2.712   5.081   6.339
18673WAT     H256262   2.624   4.945   6.363
18674WAT      O56263   5.042   6.704   9.889
18674WAT     H156264   5.072   6.758   9.810
18674WAT     H256265   5.039   6.762   9.970
18675WAT      O56266   1.550   2.307   6.566
18675WAT     H156267   1.637   2.350   6.592
18675WAT     H256268   1.533   2.228   6.625
18676WAT      O56269   4.194   9.483   6.363
18676WAT     H156270   4.284   9.496   6.404
18676WAT     H256271   4.200   9.495   6.264
18677WAT      O56272   9.006   1.370   6.980
18677WAT     H156273   8.976   1.274   6.986
18677WAT     H256274   8.926   1.430   6.985
18678WAT      O56275   0.670   1.847   8.474
18678WAT     H156276   0.720   1.925   8.437
18678WAT     H256277   0.724   1.764   8.462
18679WAT      O56278   8.731   6.002   8.499
18679WAT     H156279   8.814   5.946   8.497
18679WAT     H256280   8.736   6.066   8.576
18680WAT      O56281   0.848   1.648   2.934
18680WAT     H156282   0.767   1.706   2.928
18680WAT     H256283   0.837   1.570   2.873
18681WAT      O56284   9.288   5.995   0.602
18681WAT     H156285   9.273   6.013   0.505
18681WAT     H256286   9.340   5.910   0.613
18682WAT      O56287   0.637   5.142   4.795
18682WAT     H156288   0.643   5.071   4.865
18682WAT     H256289   0.573   5.213   4.825
18683WAT      O56290   0.012   2.947   6.608
18683WAT     H156291   0.109   2.948   6.629
18683WAT     H256292  -0.005   2.886   6.531
18684WAT      O56293   4.465   7.900   1.859
18684WAT     H156294   4.368   7.877   1.848
18684WAT     H256295   4.507   7.840   1.927
18685WAT      O56296   7.208   2.440   9.797
18685WAT     H156297   7.121   2.426   9.749
18685WAT     H256298   7.210   2.532   9.836
18686WAT      O56299   8.121   8.079   6.521
18686WAT     H156300   8.048   8.092   6.453
18686WAT     H256301   8.081   8.044   6.606
18687WAT      O56302   2.385   8.835   4.972
18687WAT     H156303   2.465   8.872   5.020
18687WAT     H256304   2.316   8.807   5.039
18688WAT      O56305   2.140   8.097   0.408
18688WAT     H156306   2.157   8.016   0.465
18688WAT     H256307   2.148   8.073   0.312
18689WAT      O56308   8.022   8.762   4.174
18689WAT     H156309   7.958   8.735   4.245
18689WAT     H256310   8.001   8.713   4.089
18690WAT      O56311   0.968   8.829   1.391
18690WAT     H156312   1.059   8.853   1.427
18690WAT     H256313   0.924   8.911   1.354
18691WAT      O56314   8.105   6.205   6.187
18691WAT     H156315   8.142   6.211   6.094
18691WAT     H256316   8.145   6.277   6.244
18692WAT      O56317   1.771   5.365   5.957
18692WAT     H156318   1.751   5.459   5.928
18692WAT     H256319   1.824   5.367   6.041
18693WAT      O56320   9.769   2.903   0.702
18693WAT     H156321   9.691   2.947   0.747
18693WAT     H256322   9.790   2.951   0.617
18694WAT      O56323   2.662   7.029   2.031
18694WAT     H156324   2.664   7.065   1.937
18694WAT     H256325   2.749   6.982   2.050
18695WAT      O56326   6.726   5.185   9.835
18695WAT     H156327   6.760   5.091   9.825
18695WAT     H256328   6.634   5.183   9.874
18696WAT      O56329   9.614   1.337   6.215
18696WAT     H156330   9.686   1.404   6.234
18696WAT     H256331   9.544   1.379   6.158
18697WAT      O56332   2.247   8.591   6.719
18697WAT     H156333   2.200   8.521   6.665
18697WAT     H256334   2.257   8.559   6.813
18698WAT      O56335   2.924   5.964   5.228
18698WAT     H156336   2.926   5.937   5.324
18698WAT     H256337   2.921   6.064   5.221
18699WAT      O56338   9.306   6.714   4.634
18699WAT     H156339   9.215   6.698   4.673
18699WAT     H256340   9.339   6.805   4.661
18700WAT      O56341   5.281   8.305   8.783
18700WAT     H156342   5.242   8.237   8.845
18700WAT     H256343   5.230   8.306   8.697
18701WAT      O56344   7.541   1.414   5.961
18701WAT     H156345   7.499   1.327   5.932
18701WAT     H256346   7.533   1.480   5.886
18702WAT      O56347   5.705   3.939   5.953
18702WAT     H156348   5.687   3.970   6.046
18702WAT     H256349   5.802   3.917   5.944
18703WAT      O56350   1.301   8.047   5.030
18703WAT     H156351   1.215   8.027   4.983
18703WAT     H256352   1.336   8.135   4.998
18704WAT      O56353   8.181   9.082   9.395
18704WAT     H156354   8.152   9.032   9.476
18704WAT     H256355   8.214   9.173   9.422
18705WAT      O56356   9.310   2.886   0.793
18705WAT     H156357   9.232   2.925   0.841
18705WAT     H256358   9.368   2.837   0.857
18706WAT      O56359   8.516   5.005   0.490
18706WAT     H156360   8.470   4.928   0.446
18706WAT     H256361   8.449   5.077   0.509
18707WAT      O56362   0.173   5.740   1.278
18707WAT     H156363   0.269   5.731   1.252
18707WAT     H256364   0.119   5.766   1.197
18708WAT      O56365   9.068   2.643   4.734
18708WAT     H156366   9.013   2.660   4.816
18708WAT     H256367   9.148   2.588   4.758
18709WAT      O56368   0.094   4.013   7.036
18709WAT     H156369   0.007   4.041   7.078
18709WAT     H256370   0.109   3.916   7.053
18710WAT      O56371   2.403   5.764   0.923
18710WAT     H156372   2.354   5.809   0.998
18710WAT     H256373   2.466   5.696   0.961
18711WAT      O56374   6.185   1.482   4.601
18711WAT     H156375   6.232   1.457   4.686
18711WAT     H256376   6.087   1.465   4.611
18712WAT      O56377   4.949   2.128   9.707
18712WAT     H156378   4.971   2.173   9.620
18712WAT     H256379   4.877   2.060   9.691
18713WAT      O56380   6.852   8.666   7.845
18713WAT     H156381   6.828   8.584   7.898
18713WAT     H256382   6.952   8.672   7.838
18714WAT      O56383   7.724   5.007   1.394
18714WAT     H156384   7.689   4.997   1.301
18714WAT     H256385   7.736   5.104   1.415
18715WAT      O56386   9.456   4.551   4.064
18715WAT     H156387   9.392   4.475   4.050
18715WAT     H256388   9.533   4.542   4.000
18716WAT      O56389   8.326   2.056   9.615
18716WAT     H156390   8.257   2.126   9.598
18716WAT     H256391   8.417   2.096   9.608
18717WAT      O56392   1.507   4.155   3.519
18717WAT     H156393   1.530   4.205   3.435
18717WAT     H256394   1.420   4.107   3.506
18718WAT      O56395   5.940   3.523   0.156
18718WAT     H156396   5.863   3.542   0.095
18718WAT     H256397   5.956   3.601   0.216
18719WAT      O56398   9.209   1.323   7.585
18719WAT     H156399   9.182   1.418   7.571
18719WAT     H256400   9.127   1.267   7.599
18720WAT      O56401   9.405   6.896   7.720
18720WAT     H156402   9.437   6.872   7.628
18720WAT     H256403   9.482   6.930   7.774
18721WAT      O56404   3.251   6.427   6.278
18721WAT     H156405   3.270   6.482   6.197
18721WAT     H256406   3.266   6.482   6.360
18722WAT      O56407   4.682   3.273   5.466
18722WAT     H156408   4.625   3.354   5.473
18722WAT     H256409   4.633   3.201   5.417
18723WAT      O56410   6.442   1.774   0.402
18723WAT     H156411   6.358   1.799   0.449
18723WAT     H256412   6.519   1.778   0.466
18724WAT      O56413   1.194   6.602   2.433
18724WAT     H156414   1.146   6.651   2.506
18724WAT     H256415   1.201   6.660   2.352
18725WAT      O56416   2.269   2.153   7.704
18725WAT     H156417   2.369   2.155   7.697
18725WAT     H256418   2.242   2.170   7.799
18726WAT      O56419   3.023   7.796   0.260
18726WAT     H156420   2.936   7.838   0.235
18726WAT     H256421   3.008   7.700   0.284
18727WAT      O56422   3.433   8.746   8.594
18727WAT     H156423   3.334   8.735   8.583
18727WAT     H256424   3.463   8.699   8.677
18728WAT      O56425   0.402   1.082   0.159
18728WAT     H156426   0.324   1.051   0.104
18728WAT     H256427   0.462   1.139   0.103
18729WAT      O56428   5.308   6.008   2.025
18729WAT     H156429   5.343   6.053   1.942
18729WAT     H256430   5.366   5.929   2.047
18730WAT      O56431   2.767   9.237   7.319
18730WAT     H156432   2.694   9.236   7.387
18730WAT     H256433   2.837   9.170   7.344
18731WAT      O56434   9.268   0.016   9.009
18731WAT     H156435   9.213   0.025   9.092
18731WAT     H256436   9.365   0.018   9.032
18732WAT      O56437   0.607   5.424   7.853
18732WAT     H156438   0.660   5.505   7.827
18732WAT     H256439   0.657   5.373   7.923
18733WAT      O56440   6.981   0.334   6.672
18733WAT     H156441   7.065   0.338   6.727
18733WAT     H256442   6.955   0.238   6.659
18734WAT      O56443   0.710   4.647   2.592
18734WAT     H156444   0.695   4.693   2.504
18734WAT     H256445   0.696   4.713   2.666
18735WAT      O56446   4.141   1.680   9.128
18735WAT     H156447   4.163   1.585   9.152
18735WAT     H256448   4.213   1.716   9.069
18736WAT      O56449   6.897   4.785   2.549
18736WAT     H156450   6.927   4.830   2.465
18736WAT     H256451   6.893   4.686   2.535
18737WAT      O56452   0.647   5.710   7.101
18737WAT     H156453   0.640   5.611   7.089
18737WAT     H256454   0.731   5.733   7.150
18738WAT      O56455   5.452   5.368   1.001
18738WAT     H156456   5.507   5.443   0.966
18738WAT     H256457   5.448   5.295   0.933
18739WAT      O56458   6.125   4.185   5.073
18739WAT     H156459   6.043   4.128   5.066
18739WAT     H256460   6.165   4.196   4.982
18740WAT      O56461   4.751   4.004   8.020
18740WAT     H156462   4.843   3.995   7.980
18740WAT     H256463   4.745   4.089   8.072
18741WAT      O56464   5.113   9.820   3.190
18741WAT     H156465   5.031   9.852   3.144
18741WAT     H256466   5.129   9.875   3.272
18742WAT      O56467   6.519   2.707   6.893
18742WAT     H156468   6.504   2.627   6.951
18742WAT     H256469   6.598   2.758   6.926
18743WAT      O56470   5.516   4.162   4.143
18743WAT     H156471   5.578   4.176   4.065
18743WAT     H256472   5.568   4.136   4.224
18744WAT      O56473   5.612   3.149   4.811
18744WAT     H156474   5.548   3.073   4.798
18744WAT     H256475   5.598   3.216   4.738
18745WAT      O56476   0.643   3.788   1.534
18745WAT     H156477   0.717   3.856   1.528
18745WAT     H256478   0.683   3.696   1.539
18746WAT      O56479   9.744   6.382   0.093
18746WAT     H156480   9.738   6.481   0.099
18746WAT     H256481   9.781   6.356   0.003
18747WAT      O56482   1.572   1.590   3.524
18747WAT     H156483   1.584   1.644   3.441
18747WAT     H256484   1.646   1.610   3.588
18748WAT      O56485   2.957   6.321   2.742
18748WAT     H156486   2.912   6.232   2.752
18748WAT     H256487   3.044   6.319   2.792
18749WAT      O56488   8.298   0.644   8.521
18749WAT     H156489   8.286   0.657   8.619
18749WAT     H256490   8.380   0.693   8.491
18750WAT      O56491   0.769   1.611   7.874
18750WAT     H156492   0.757   1.683   7.806
18750WAT     H256493   0.821   1.536   7.835
18751WAT      O56494   8.541   4.914   3.051
18751WAT     H156495   8.548   4.916   2.952
18751WAT     H256496   8.445   4.901   3.077
18752WAT      O56497   8.481   0.799   8.369
18752WAT     H156498   8.442   0.771   8.281
18752WAT     H256499   8.560   0.858   8.354
18753WAT      O56500   5.591   2.054   1.999
18753WAT     H156501   5.513   1.996   2.022
18753WAT     H256502   5.599   2.059   1.899
18754WAT      O56503   0.996   5.938   1.599
18754WAT     H156504   1.052   5.960   1.519
18754WAT     H256505   1.005   6.009   1.668
18755WAT      O56506   9.491   2.752   2.736
18755WAT     H156507   9.525   2.658   2.744
18755WAT     H256508   9.562   2.811   2.698
18756WAT      O56509   8.155   1.027   4.892
18756WAT     H156510   8.069   1.059   4.851
18756WAT     H256511   8.135   0.954   4.957
18757WAT      O56512   0.587   1.528   5.262
18757WAT     H156513   0.487   1.526   5.261
18757WAT     H256514   0.620   1.575   5.181
18758WAT      O56515   4.540   0.563   3.446
18758WAT     H156516   4.498   0.472   3.446
18758WAT     H256517   4.471   0.632   3.422
18759WAT      O56518   3.881   5.023   8.001
18759WAT     H156519   3.975   5.037   7.970
18759WAT     H256520   3.820   5.081   7.947
18760WAT      O56521   5.083   6.608   2.752
18760WAT     H156522   5.138   6.661   2.687
18760WAT     H256523   5.127   6.611   2.842
18761WAT      O56524   4.288   5.094   7.333
18761WAT     H156525   4.231   5.012   7.336
18761WAT     H256526   4.236   5.168   7.289
18762WAT      O56527   1.328   0.693   2.933
18762WAT     H156528   1.296   0.603   2.964
18762WAT     H256529   1.293   0.712   2.842
18763WAT      O56530   7.135   4.054   8.826
18763WAT     H156531   7.115   4.080   8.732
18763WAT     H256532   7.148   3.955   8.831
18764WAT      O56533   9.680   3.095   6.611
18764WAT     H156534   9.608   3.033   6.579
18764WAT     H256535   9.768   3.048   6.606
18765WAT      O56536   1.142   2.049   2.304
18765WAT     H156537   1.127   2.147   2.318
18765WAT     H256538   1.158   2.004   2.391
18766WAT      O56539   9.772   4.004   4.828
18766WAT     H156540   9.829   3.922   4.816
18766WAT     H256541   9.822   4.084   4.795
18767WAT      O56542   7.932   6.927   4.091
18767WAT     H156543   7.837   6.957   4.094
18767WAT     H256544   7.942   6.850   4.028
18768WAT      O56545   9.561   1.869   8.211
18768WAT     H156546   9.531   1.864   8.306
18768WAT     H256547   9.567   1.776   8.173
18769WAT      O56548   9.076   2.261   3.437
18769WAT     H156549   9.096   2.228   3.345
18769WAT     H256550   9.068   2.184   3.499
18770WAT      O56551   0.288   0.828   3.327
18770WAT     H156552   0.343   0.906   3.357
18770WAT     H256553   0.272   0.767   3.405
18771WAT      O56554   7.980   2.896   0.225
18771WAT     H156555   8.006   2.931   0.315
18771WAT     H256556   8.017   2.804   0.214
18772WAT      O56557   0.949   2.025   9.087
18772WAT     H156558   1.011   2.103   9.096
18772WAT     H256559   0.986   1.961   9.019
18773WAT      O56560   3.084   8.675   2.126
18773WAT     H156561   3.029   8.616   2.067
18773WAT     H256562   3.180   8.648   2.120
18774WAT      O56563   0.932   5.139   6.710
18774WAT     H156564   0.858   5.072   6.698
18774WAT     H256565   0.926   5.208   6.638
18775WAT      O56566   0.649   7.573   6.986
18775WAT     H156567   0.747   7.594   6.989
18775WAT     H256568   0.597   7.656   6.969
18776WAT      O56569   2.541   5.032   2.263
18776WAT     H156570   2.552   5.120   2.311
18776WAT     H256571   2.580   5.039   2.171
18777WAT      O56572   9.508   4.022   6.815
18777WAT     H156573   9.585   3.997   6.755
18777WAT     H256574   9.423   4.019   6.762
18778WAT      O56575   3.754   6.490   5.890
18778WAT     H156576   3.769   6.450   5.799
18778WAT     H256577   3.669   6.455   5.928
18779WAT      O56578   2.277   1.406   3.764
18779WAT     H156579   2.178   1.419   3.761
18779WAT     H256580   2.300   1.334   3.829
18780WAT      O56581   3.290   6.752   7.028
18780WAT     H156582   3.379   6.714   7.000
18780WAT     H256583   3.239   6.683   7.079
18781WAT      O56584   2.502   1.880   7.448
18781WAT     H156585   2.568   1.947   7.483
18781WAT     H256586   2.444   1.847   7.523
18782WAT      O56587   9.264   5.936   8.423
18782WAT     H156588   9.290   5.843   8.398
18782WAT     H256589   9.316   6.001   8.367
18783WAT      O56590   5.868   9.304   6.015
18783WAT     H156591   5.837   9.209   6.011
18783WAT     H256592   5.878   9.332   6.111
18784WAT      O56593   7.281   3.548   4.118
18784WAT     H156594   7.191   3.545   4.162
18784WAT     H256595   7.302   3.458   4.080
18785WAT      O56596   9.727   7.400   5.857
18785WAT     H156597   9.676   7.442   5.781
18785WAT     H256598   9.668   7.394   5.937
18786WAT      O56599   2.265   3.473   0.952
18786WAT     H156600   2.177   3.482   0.906
18786WAT     H256601   2.290   3.559   0.995
18787WAT      O56602   2.791   6.608   2.804
18787WAT     H156603   2.731   6.529   2.792
18787WAT     H256604   2.885   6.577   2.816
18788WAT      O56605   6.503   3.112   8.973
18788WAT     H156606   6.442   3.055   8.918
18788WAT     H256607   6.451   3.153   9.048
18789WAT      O56608   8.063   1.566   7.002
18789WAT     H156609   8.115   1.489   7.040
18789WAT     H256610   7.975   1.572   7.048
18790WAT      O56611   8.568   6.111   8.322
18790WAT     H156612   8.614   6.153   8.243
18790WAT     H256613   8.629   6.043   8.363
18791WAT      O56614   4.037   2.308   3.057
18791WAT     H156615   3.970   2.246   3.016
18791WAT     H256616   4.010   2.403   3.041
18792WAT      O56617   8.817   4.011   4.297
18792WAT     H156618   8.838   3.947   4.223
18792WAT     H256619   8.879   4.089   4.292
18793WAT      O56620   8.806   6.237   8.920
18793WAT     H156621   8.823   6.158   8.862
18793WAT     H256622   8.885   6.298   8.920
18794WAT      O56623   0.439   1.617   0.118
18794WAT     H156624   0.519   1.563   0.144
18794WAT     H256625   0.418   1.683   0.191
18795WAT      O56626   7.081   2.405   1.816
18795WAT     H156627   7.105   2.311   1.795
18795WAT     H256628   7.083   2.460   1.733
18796WAT      O56629   9.233   8.612   2.113
18796WAT     H156630   9.162   8.679   2.133
18796WAT     H256631   9.314   8.632   2.168
18797WAT      O56632   0.784   2.568   4.085
18797WAT     H156633   0.736   2.582   4.171
18797WAT     H256634   0.718   2.561   4.010
18798WAT      O56635   4.061   4.191   8.326
18798WAT     H156636   4.001   4.229   8.396
18798WAT     H256637   4.149   4.238   8.329
18799WAT      O56638   2.773   7.850   5.491
18799WAT     H156639   2.779   7.772   5.553
18799WAT     H256640   2.682   7.855   5.451
18800WAT      O56641   2.540   9.216   4.024
18800WAT     H156642   2.441   9.227   4.023
18800WAT     H256643   2.566   9.150   4.094
18801WAT      O56644   9.242   6.667   7.990
18801WAT     H156645   9.294   6.665   7.904
18801WAT     H256646   9.168   6.600   7.985
18802WAT      O56647   0.514   6.193   6.636
18802WAT     H156648   0.559   6.277   6.606
18802WAT     H256649   0.489   6.138   6.556
18803WAT      O56650   3.852   6.326   3.645
18803WAT     H156651   3.814   6.356   3.557
18803WAT     H256652   3.779   6.285   3.699
18804WAT      O56653   6.920   7.050   2.579
18804WAT     H156654   6.984   7.107   2.631
18804WAT     H256655   6.830   7.051   2.624
18805WAT      O56656   3.659   8.615   0.523
18805WAT     H156657   3.610   8.649   0.443
18805WAT     H256658   3.730   8.551   0.494
18806WAT      O56659   1.142   1.515   3.838
18806WAT     H156660   1.051   1.474   3.838
18806WAT     H256661   1.208   1.447   3.806
18807WAT      O56662   1.446   8.646   7.830
18807WAT     H156663   1.417   8.675   7.921
18807WAT     H256664   1.517   8.708   7.797
18808WAT      O56665   9.317   3.001   7.504
18808WAT     H156666   9.286   3.060   7.578
18808WAT     H256667   9.376   2.929   7.540
18809WAT      O56668   3.921   0.546   3.456
18809WAT     H156669   3.950   0.587   3.369
18809WAT     H256670   3.831   0.505   3.445
18810WAT      O56671   2.345   6.297   3.987
18810WAT     H156672   2.434   6.338   4.010
18810WAT     H256673   2.315   6.329   3.898
18811WAT      O56674   5.005   0.870   4.415
18811WAT     H156675   4.960   0.898   4.330
18811WAT     H256676   4.936   0.847   4.483
18812WAT      O56677   4.305   3.823   4.213
18812WAT     H156678   4.391   3.825   4.264
18812WAT     H256679   4.255   3.908   4.228
18813WAT      O56680   6.174   7.813   8.037
18813WAT     H156681   6.131   7.902   8.020
18813WAT     H256682   6.180   7.762   7.951
18814WAT      O56683   6.739   2.338   1.448
18814WAT     H156684   6.651   2.385   1.437
18814WAT     H256685   6.754   2.317   1.544
18815WAT      O56686   4.171   6.143   0.387
18815WAT     H156687   4.134   6.050   0.385
18815WAT     H256688   4.193   6.168   0.482
18816WAT      O56689   4.989   2.671   6.772
18816WAT     H156690   4.890   2.665   6.784
18816WAT     H256691   5.010   2.734   6.699
18817WAT      O56692   7.285   2.299   7.585
18817WAT     H156693   7.298   2.244   7.503
18817WAT     H256694   7.269   2.394   7.559
18818WAT      O56695   6.572   9.470   2.942
18818WAT     H156696   6.495   9.475   3.007
18818WAT     H256697   6.545   9.513   2.856
18819WAT      O56698   7.268   6.464   5.664
18819WAT     H156699   7.316   6.532   5.607
18819WAT     H256700   7.199   6.510   5.719
18820WAT      O56701   8.092   5.889   0.080
18820WAT     H156702   8.067   5.955   0.008
18820WAT     H256703   8.139   5.811   0.039
18821WAT      O56704   3.440   5.207   5.993
18821WAT     H156705   3.533   5.174   6.014
18821WAT     H256706   3.374   5.157   6.048
18822WAT      O56707   4.582   3.640   7.101
18822WAT     H156708   4.549   3.546   7.095
18822WAT     H256709   4.505   3.703   7.098
18823WAT      O56710   9.008   4.895   0.211
18823WAT     H156711   9.029   4.835   0.134
18823WAT     H256712   8.915   4.930   0.202
18824WAT      O56713   9.298   3.256   3.709
18824WAT     H156714   9.335   3.320   3.641
18824WAT     H256715   9.343   3.272   3.797
18825WAT      O56716   0.241   8.484   7.561
18825WAT     H156717   0.185   8.563   7.537
18825WAT     H256718   0.198   8.401   7.526
18826WAT      O56719   9.652   4.531   2.531
18826WAT     H156720   9.657   4.625   2.495
18826WAT     H256721   9.737   4.508   2.578
18827WAT      O56722   8.804   3.127   9.570
18827WAT     H156723   8.813   3.226   9.577
18827WAT     H256724   8.728   3.096   9.628
18828WAT      O56725   7.722   0.428   7.503
18828WAT     H156726   7.801   0.424   7.442
18828WAT     H256727   7.671   0.512   7.486
18829WAT      O56728   5.711   9.580   8.909
18829WAT     H156729   5.673   9.654   8.854
18829WAT     H256730   5.652   9.563   8.988
18830WAT      O56731   0.506   4.179   7.595
18830WAT     H156732   0.603   4.206   7.600
18830WAT     H256733   0.500   4.087   7.554
18831WAT      O56734   4.201   4.784   5.808
18831WAT     H156735   4.165   4.854   5.746
18831WAT     H256736   4.134   4.711   5.818
18832WAT      O56737   4.153   6.009   3.139
18832WAT     H156738   4.122   6.023   3.233
18832WAT     H256739   4.139   5.913   3.113
18833WAT      O56740   3.848   0.372   5.406
18833WAT     H156741   3.927   0.313   5.424
18833WAT     H256742   3.818   0.360   5.312
18834WAT      O56743   5.269   3.727   3.663
18834WAT     H156744   5.185   3.682   3.635
18834WAT     H256745   5.254   3.776   3.749
18835WAT      O56746   1.041   6.541   2.894
18835WAT     H156747   1.019   6.532   2.991
18835WAT     H256748   1.058   6.450   2.856
18836WAT      O56749   1.240   6.084   3.256
18836WAT     H156750   1.194   6.144   3.321
18836WAT     H256751   1.339   6.086   3.274
18837WAT      O56752   8.934   8.780   6.241
18837WAT     H156753   9.011   8.799   6.301
18837WAT     H256754   8.967   8.766   6.147
18838WAT      O56755   7.656   2.712   3.693
18838WAT     H156756   7.604   2.797   3.685
18838WAT     H256757   7.595   2.634   3.679
18839WAT      O56758   6.202   4.777   7.332
18839WAT     H156759   6.205   4.768   7.232
18839WAT     H256760   6.218   4.873   7.357
18840WAT      O56761   0.733   1.113   1.219
18840WAT     H156762   0.797   1.126   1.295
18840WAT     H256763   0.696   1.201   1.190
18841WAT      O56764   1.021   3.418   9.655
18841WAT     H156765   1.001   3.322   9.636
18841WAT     H256766   1.102   3.446   9.603
18842WAT      O56767   1.294   0.340   4.799
18842WAT     H156768   1.238   0.258   4.787
18842WAT     H256769   1.327   0.371   4.710
18843WAT      O56770   6.319   4.594   4.388
18843WAT     H156771   6.346   4.585   4.292
18843WAT     H256772   6.358   4.520   4.441
18844WAT      O56773   9.813   6.055   3.496
18844WAT     H156774   9.898   6.080   3.450
18844WAT     H256775   9.745   6.127   3.483
18845WAT      O56776   3.236   7.583   1.473
18845WAT     H156777   3.295   7.664   1.472
18845WAT     H256778   3.157   7.600   1.532
18846WAT      O56779   8.078   4.968   6.833
18846WAT     H156780   8.044   4.950   6.926
18846WAT     H256781   8.163   5.021   6.839
18847WAT      O56782   1.983   1.498   8.376
18847WAT     H156783   1.890   1.534   8.386
18847WAT     H256784   2.012   1.507   8.281
18848WAT      O56785   3.076   0.098   4.693
18848WAT     H156786   3.101   0.066   4.785
18848WAT     H256787   3.091   0.196   4.687
18849WAT      O56788   2.804   7.354   7.542
18849WAT     H156789   2.896   7.319   7.555
18849WAT     H256790   2.794   7.385   7.447
18850WAT      O56791   6.864   1.322   7.268
18850WAT     H156792   6.920   1.361   7.341
18850WAT     H256793   6.923   1.276   7.201
18851WAT      O56794   3.076   4.827   3.790
18851WAT     H156795   3.091   4.925   3.792
18851WAT     H256796   3.006   4.802   3.858
18852WAT      O56797   3.658   4.951   6.937
18852WAT     H156798   3.697   4.905   7.016
18852WAT     H256799   3.628   4.882   6.870
18853WAT      O56800   3.026   5.691   2.089
18853WAT     H156801   3.055   5.754   2.161
18853WAT     H256802   2.967   5.620   2.128
18854WAT      O56803   5.449   6.002   0.073
18854WAT     H156804   5.479   6.095   0.051
18854WAT     H256805   5.416   5.998   0.167
18855WAT      O56806   3.569   2.083   8.010
18855WAT     H156807   3.590   2.025   8.088
18855WAT     H256808   3.502   2.152   8.036
18856WAT      O56809   0.106   1.363   7.511
18856WAT     H156810   0.096   1.456   7.476
18856WAT     H256811   0.140   1.366   7.605
18857WAT      O56812   4.534   5.380   6.621
18857WAT     H156813   4.463   5.350   6.685
18857WAT     H256814   4.579   5.462   6.657
18858WAT      O56815   8.462   0.118   6.218
18858WAT     H156816   8.446   0.051   6.290
18858WAT     H256817   8.500   0.072   6.138
18859WAT      O56818   0.693   2.135   4.855
18859WAT     H156819   0.790   2.130   4.878
18859WAT     H256820   0.675   2.084   4.771
18860WAT      O56821   3.228   4.233   2.115
18860WAT     H156822   3.140   4.281   2.108
18860WAT     H256823   3.291   4.287   2.171
18861WAT      O56824   3.969   0.914   6.211
18861WAT     H156825   3.899   0.930   6.141
18861WAT     H256826   4.049   0.872   6.169
18862WAT      O56827   3.219   3.593   8.936
18862WAT     H156828   3.270   3.639   9.008
18862WAT     H256829   3.204   3.656   8.860
18863WAT      O56830   5.498   7.451   2.675
18863WAT     H156831   5.582   7.429   2.725
18863WAT     H256832   5.519   7.509   2.597
18864WAT      O56833   1.476   0.854   5.595
18864WAT     H156834   1.384   0.868   5.560
18864WAT     H256835   1.472   0.825   5.691
18865WAT      O56836   3.734   8.396   6.390
18865WAT     H156837   3.732   8.465   6.318
18865WAT     H256838   3.689   8.431   6.471
18866WAT      O56839   1.447   6.491   6.551
18866WAT     H156840   1.382   6.567   6.552
18866WAT     H256841   1.407   6.412   6.597
18867WAT      O56842   0.218   9.323   3.395
18867WAT     H156843   0.308   9.284   3.373
18867WAT     H256844   0.182   9.371   3.316
18868WAT      O56845   0.792   2.163   8.897
18868WAT     H156846   0.807   2.129   8.990
18868WAT     H256847   0.712   2.118   8.858
18869WAT      O56848   2.569   4.933   0.761
18869WAT     H156849   2.537   4.973   0.674
18869WAT     H256850   2.519   4.847   0.778
18870WAT      O56851   9.429   5.384   0.574
18870WAT     H156852   9.377   5.429   0.646
18870WAT     H256853   9.518   5.429   0.563
18871WAT      O56854   8.625   8.378   9.398
18871WAT     H156855   8.664   8.455   9.448
18871WAT     H256856   8.679   8.361   9.316
18872WAT      O56857   8.951   1.806   7.257
18872WAT     H156858   8.917   1.839   7.169
18872WAT     H256859   8.875   1.798   7.321
18873WAT      O56860   2.231   4.941   8.863
18873WAT     H156861   2.324   4.974   8.856
18873WAT     H256862   2.173   4.985   8.794
18874WAT      O56863   9.058   6.889   9.776
18874WAT     H156864   9.034   6.904   9.680
18874WAT     H256865   8.995   6.822   9.816
18875WAT      O56866   3.633   8.859   7.394
18875WAT     H156867   3.583   8.836   7.310
18875WAT     H256868   3.569   8.863   7.471
18876WAT      O56869   7.929   2.822   5.734
18876WAT     H156870   7.873   2.806   5.652
18876WAT     H256871   7.959   2.734   5.772
18877WAT      O56872   6.105   0.550   9.673
18877WAT     H156873   6.094   0.628   9.611
18877WAT     H256874   6.064   0.573   9.762
18878WAT      O56875   9.618   3.787   0.257
18878WAT     H156876   9.535   3.799   0.311
18878WAT     H256877   9.676   3.718   0.300
18879WAT      O56878   0.948   1.518   0.042
18879WAT     H156879   0.934   1.459  -0.037
18879WAT     H256880   1.010   1.593   0.017
18880WAT      O56881   5.131   7.229   1.508
18880WAT     H156882   5.037   7.206   1.481
18880WAT     H256883   5.174   7.150   1.552
18881WAT      O56884   2.171   6.785   0.730
18881WAT     H156885   2.074   6.807   0.733
18881WAT     H256886   2.193   6.721   0.804
18882WAT      O56887   1.583   8.416   0.221
18882WAT     H156888   1.486   8.434   0.238
18882WAT     H256889   1.596   8.321   0.194
18883WAT      O56890   8.499   2.610   1.682
18883WAT     H156891   8.580   2.551   1.682
18883WAT     H256892   8.527   2.706   1.676
18884WAT      O56893   0.117   5.153   9.035
18884WAT     H156894   0.211   5.180   9.013
18884WAT     H256895   0.084   5.089   8.966
18885WAT      O56896   3.134   0.938   3.116
18885WAT     H156897   3.185   1.014   3.077
18885WAT     H256898   3.040   0.939   3.082
18886WAT      O56899   7.678   6.109   8.391
18886WAT     H156900   7.600   6.138   8.336
18886WAT     H256901   7.646   6.047   8.463
18887WAT      O56902   6.842   6.927   3.258
18887WAT     H156903   6.870   6.831   3.247
18887WAT     H256904   6.779   6.952   3.184
18888WAT      O56905   0.394   6.411   0.728
18888WAT     H156906   0.298   6.383   0.718
18888WAT     H256907   0.434   6.363   0.805
18889WAT      O56908   0.277   3.513   8.430
18889WAT     H156909   0.324   3.543   8.513
18889WAT     H256910   0.204   3.577   8.408
18890WAT      O56911   5.658   8.415   1.740
18890WAT     H156912   5.649   8.317   1.756
18890WAT     H256913   5.753   8.437   1.717
18891WAT      O56914   7.818   5.203   6.337
18891WAT     H156915   7.830   5.148   6.254
18891WAT     H256916   7.780   5.292   6.313
18892WAT      O56917   0.840   2.597   5.803
18892WAT     H156918   0.789   2.621   5.887
18892WAT     H256919   0.780   2.546   5.742
18893WAT      O56920   7.725   3.440   9.256
18893WAT     H156921   7.824   3.432   9.245
18893WAT     H256922   7.688   3.353   9.287
18894WAT      O56923   9.218   0.311   0.541
18894WAT     H156924   9.213   0.391   0.482
18894WAT     H256925   9.205   0.228   0.486
18895WAT      O56926   1.115   4.725   8.372
18895WAT     H156927   1.109   4.715   8.272
18895WAT     H256928   1.168   4.649   8.410
18896WAT      O56929   5.658   2.688   4.194
18896WAT     H156930   5.571   2.728   4.164
18896WAT     H256931   5.733   2.750   4.168
18897WAT      O56932   0.297   8.746   3.240
18897WAT     H156933   0.313   8.757   3.338
18897WAT     H256934   0.331   8.826   3.191
18898WAT      O56935   8.928   2.228   2.208
18898WAT     H156936   8.978   2.312   2.187
18898WAT     H256937   8.907   2.179   2.124
18899WAT      O56938   4.692   3.481   6.056
18899WAT     H156939   4.663   3.499   5.962
18899WAT     H256940   4.728   3.565   6.096
18900WAT      O56941   8.630   6.899   6.786
18900WAT     H156942   8.642   6.913   6.687
18900WAT     H256943   8.612   6.986   6.831
18901WAT      O56944   7.341   5.713   2.623
18901WAT     H156945   7.425   5.665   2.649
18901WAT     H256946   7.326   5.702   2.525
18902WAT      O56947   1.668   6.794   7.067
18902WAT     H156948   1.711   6.851   6.997
18902WAT     H256949   1.701   6.700   7.059
18903WAT      O56950   2.081   3.299   8.975
18903WAT     H156951   2.034   3.292   8.886
18903WAT     H256952   2.178   3.281   8.962
18904WAT      O56953   1.723   5.232   4.358
18904WAT     H156954   1.811   5.184   4.367
18904WAT     H256955   1.650   5.164   4.350
18905WAT      O56956   1.562   9.518   9.880
18905WAT     H156957   1.532   9.486   9.790
18905WAT     H256958   1.495   9.489   9.949
18906WAT      O56959   6.117   5.221   8.142
18906WAT     H156960   6.139   5.308   8.187
18906WAT     H256961   6.132   5.230   8.044
18907WAT      O56962   6.458   0.573   1.313
18907WAT     H156963   6.491   0.521   1.392
18907WAT     H256964   6.373   0.534   1.280
18908WAT      O56965   3.172   8.187   3.737
18908WAT     H156966   3.215   8.276   3.751
18908WAT     H256967   3.172   8.137   3.823
18909WAT      O56968   3.621   7.514   5.223
18909WAT     H156969   3.640   7.536   5.127
18909WAT     H256970   3.541   7.565   5.254
18910WAT      O56971   8.439   4.637   5.808
18910WAT     H156972   8.533   4.669   5.802
18910WAT     H256973   8.418   4.611   5.903
18911WAT      O56974   2.799   7.230   4.701
18911WAT     H156975   2.816   7.244   4.799
18911WAT     H256976   2.741   7.150   4.688
18912WAT      O56977   1.674   0.125   3.049
18912WAT     H156978   1.687   0.045   3.108
18912WAT     H256979   1.761   0.173   3.039
18913WAT      O56980   9.574   2.918   2.520
18913WAT     H156981   9.540   2.835   2.477
18913WAT     H256982   9.582   2.990   2.451
18914WAT      O56983   4.329   3.572   8.877
18914WAT     H156984   4.399   3.597   8.810
18914WAT     H256985   4.248   3.537   8.830
18915WAT      O56986   1.100   4.746   6.316
18915WAT     H156987   1.070   4.820   6.255
18915WAT     H256988   1.100   4.660   6.265
18916WAT      O56989   3.957   5.484   1.991
18916WAT     H156990   4.012   5.521   1.917
18916WAT     H256991   3.881   5.546   2.011
18917WAT      O56992   4.195   5.692   7.990
18917WAT     H156993   4.198   5.617   8.057
18917WAT     H256994   4.197   5.779   8.039
18918WAT      O56995   2.044   5.065   6.161
18918WAT     H156996   2.079   4.985   6.210
18918WAT     H256997   2.121   5.123   6.134
18919WAT      O56998   5.922   0.239   1.751
18919WAT     H156999   5.958   0.267   1.840
18919WAT     H257000   5.992   0.252   1.681
18920WAT      O57001   4.745   8.076   7.718
18920WAT     H157002   4.708   7.992   7.757
18920WAT     H257003   4.801   8.123   7.786
18921WAT      O57004   9.660   0.180   5.754
18921WAT     H157005   9.727   0.228   5.810
18921WAT     H257006   9.574   0.172   5.805
18922WAT      O57007   8.838   9.823   0.885
18922WAT     H157008   8.816   9.743   0.829
18922WAT     H257009   8.770   9.833   0.958
18923WAT      O57010   1.272   8.759   2.494
18923WAT     H157011   1.301   8.855   2.495
18923WAT     H257012   1.343   8.702   2.536
18924WAT      O57013   2.281   7.090   4.985
18924WAT     H157014   2.217   7.139   4.926
18924WAT     H257015   2.368   7.139   4.988
18925WAT      O57016   8.214   0.259   9.101
18925WAT     H157017   8.199   0.277   9.198
18925WAT     H257018   8.311   0.266   9.080
18926WAT      O57019   5.141   2.140   1.071
18926WAT     H157020   5.075   2.088   1.019
18926WAT     H257021   5.120   2.237   1.065
18927WAT      O57022   5.785   6.817   5.503
18927WAT     H157023   5.704   6.784   5.457
18927WAT     H257024   5.816   6.902   5.461
18928WAT      O57025   7.293   5.554   7.961
18928WAT     H157026   7.314   5.643   7.922
18928WAT     H257027   7.253   5.566   8.052
18929WAT      O57028   2.418   7.623   8.832
18929WAT     H157029   2.510   7.656   8.810
18929WAT     H257030   2.425   7.536   8.880
18930WAT      O57031   3.333   1.684   3.612
18930WAT     H157032   3.285   1.626   3.546
18930WAT     H257033   3.400   1.629   3.662
18931WAT      O57034   9.032   6.349   3.740
18931WAT     H157035   8.954   6.390   3.693
18931WAT     H257036   9.011   6.252   3.759
18932WAT      O57037   8.095   5.981   3.908
18932WAT     H157038   8.100   5.977   4.008
18932WAT     H257039   8.000   5.981   3.878
18933WAT      O57040   3.175   2.609   4.493
18933WAT     H157041   3.271   2.630   4.511
18933WAT     H257042   3.131   2.689   4.450
18934WAT      O57043   4.452   5.978   0.319
18934WAT     H157044   4.470   5.913   0.245
18934WAT     H257045   4.464   6.071   0.285
18935WAT      O57046   9.472   7.034   1.723
18935WAT     H157047   9.510   7.023   1.631
18935WAT     H257048   9.453   6.943   1.762
18936WAT      O57049   7.886   4.654   2.620
18936WAT     H157050   7.885   4.562   2.659
18936WAT     H257051   7.964   4.664   2.558
18937WAT      O57052   0.950   6.274   0.820
18937WAT     H157053   1.035   6.229   0.847
18937WAT     H257054   0.972   6.357   0.768
18938WAT      O57055   2.366   6.932   1.436
18938WAT     H157056   2.466   6.926   1.446
18938WAT     H257057   2.333   6.855   1.381
18939WAT      O57058   4.172   7.063   5.503
18939WAT     H157059   4.074   7.042   5.502
18939WAT     H257060   4.187   7.148   5.552
18940WAT      O57061   4.879   7.243   4.893
18940WAT     H157062   4.967   7.233   4.939
18940WAT     H257063   4.811   7.184   4.938
18941WAT      O57064   2.176   4.081   8.986
18941WAT     H157065   2.105   4.059   8.919
18941WAT     H257066   2.136   4.136   9.059
18942WAT      O57067   0.803   6.984   4.041
18942WAT     H157068   0.782   6.933   4.125
18942WAT     H257069   0.833   6.920   3.971
18943WAT      O57070   3.587   3.885   0.056
18943WAT     H157071   3.580   3.982   0.033
18943WAT     H257072   3.649   3.873   0.134
18944WAT      O57073   9.578   9.181   8.104
18944WAT     H157074   9.538   9.225   8.023
18944WAT     H257075   9.520   9.201   8.184
18945WAT      O57076   7.626   6.352   3.104
18945WAT     H157077   7.529   6.374   3.087
18945WAT     H257078   7.639   6.332   3.201
18946WAT      O57079   3.127   0.864   8.305
18946WAT     H157080   3.093   0.945   8.352
18946WAT     H257081   3.194   0.890   8.236
18947WAT      O57082   2.620   2.717   8.796
18947WAT     H157083   2.559   2.743   8.871
18947WAT     H257084   2.574   2.650   8.738
18948WAT      O57085   6.416   7.697   3.193
18948WAT     H157086   6.432   7.624   3.128
18948WAT     H257087   6.348   7.761   3.156
18949WAT      O57088   9.872   1.358   0.176
18949WAT     H157089   9.949   1.420   0.187
18949WAT     H257090   9.818   1.386   0.096
18950WAT      O57091   8.854   9.721   9.412
18950WAT     H157092   8.812   9.701   9.501
18950WAT     H257093   8.891   9.636   9.374
18951WAT      O57094   6.894   9.073   5.660
18951WAT     H157095   6.958   9.150   5.662
18951WAT     H257096   6.830   9.081   5.736
18952WAT      O57097   3.479   7.202   1.431
18952WAT     H157098   3.531   7.286   1.418
18952WAT     H257099   3.421   7.186   1.351
18953WAT      O57100   2.394   9.650   7.023
18953WAT     H157101   2.380   9.692   6.934
18953WAT     H257102   2.407   9.551   7.012
18954WAT      O57103   5.337   6.695   3.427
18954WAT     H157104   5.338   6.709   3.328
18954WAT     H257105   5.402   6.759   3.470
18955WAT      O57106   0.170   5.343   5.902
18955WAT     H157107   0.103   5.313   5.969
18955WAT     H257108   0.244   5.275   5.895
18956WAT      O57109   4.213   8.818   3.434
18956WAT     H157110   4.231   8.815   3.532
18956WAT     H257111   4.115   8.805   3.418
18957WAT      O57112   3.804   4.810   5.655
18957WAT     H157113   3.758   4.892   5.621
18957WAT     H257114   3.803   4.812   5.755
18958WAT      O57115   5.846   7.711   0.478
18958WAT     H157116   5.841   7.703   0.578
18958WAT     H257117   5.915   7.779   0.454
18959WAT      O57118   1.472   4.491   0.044
18959WAT     H157119   1.390   4.476  -0.011
18959WAT     H257120   1.489   4.410   0.100
18960WAT      O57121   6.360   2.732   5.291
18960WAT     H157122   6.458   2.714   5.282
18960WAT     H257123   6.341   2.766   5.384
18961WAT      O57124   9.673   7.673   0.810
18961WAT     H157125   9.678   7.734   0.889
18961WAT     H257126   9.604   7.706   0.746
18962WAT      O57127   3.202   6.466   2.376
18962WAT     H157128   3.158   6.376   2.377
18962WAT     H257129   3.133   6.537   2.377
18963WAT      O57130   2.875   8.331   8.998
18963WAT     H157131   2.962   8.357   8.957
18963WAT     H257132   2.891   8.288   9.087
18964WAT      O57133   0.209   5.867   2.718
18964WAT     H157134   0.118   5.839   2.687
18964WAT     H257135   0.225   5.833   2.810
18965WAT      O57136   0.904   8.873   6.130
18965WAT     H157137   0.927   8.814   6.207
18965WAT     H257138   0.972   8.945   6.121
18966WAT      O57139   8.614   7.187   0.558
18966WAT     H157140   8.529   7.147   0.594
18966WAT     H257141   8.662   7.235   0.632
18967WAT      O57142   5.765   8.656   2.246
18967WAT     H157143   5.735   8.668   2.341
18967WAT     H257144   5.791   8.561   2.231
18968WAT      O57145   8.890   9.226   1.376
18968WAT     H157146   8.928   9.159   1.438
18968WAT     H257147   8.944   9.230   1.292
18969WAT      O57148   0.320   2.897   2.248
18969WAT     H157149   0.274   2.976   2.208
18969WAT     H257150   0.272   2.869   2.331
18970WAT      O57151   2.490   3.712   3.743
18970WAT     H157152   2.446   3.761   3.668
18970WAT     H257153   2.579   3.679   3.715
18971WAT      O57154   0.521   8.926   2.290
18971WAT     H157155   0.438   8.905   2.239
18971WAT     H257156   0.542   9.023   2.280
18972WAT      O57157   3.935   7.578   4.137
18972WAT     H157158   3.990   7.495   4.125
18972WAT     H257159   3.893   7.577   4.227
18973WAT      O57160   9.358   9.825   4.870
18973WAT     H157161   9.441   9.849   4.819
18973WAT     H257162   9.373   9.839   4.968
18974WAT      O57163   0.766   4.034   2.919
18974WAT     H157164   0.842   4.004   2.978
18974WAT     H257165   0.709   4.099   2.970
18975WAT      O57166   7.018   7.802   4.622
18975WAT     H157167   6.992   7.815   4.526
18975WAT     H257168   7.020   7.704   4.643
18976WAT      O57169   0.350   2.770   7.475
18976WAT     H157170   0.349   2.856   7.526
18976WAT     H257171   0.353   2.790   7.377
18977WAT      O57172   1.203   4.537   6.825
18977WAT     H157173   1.158   4.590   6.753
18977WAT     H257174   1.139   4.527   6.902
18978WAT      O57175   8.458   3.389   9.111
18978WAT     H157176   8.488   3.310   9.058
18978WAT     H257177   8.496   3.383   9.203
18979WAT      O57178   4.476   5.030   5.725
18979WAT     H157179   4.384   5.049   5.759
18979WAT     H257180   4.526   4.974   5.792
18980WAT      O57181   4.264   4.834   2.242
18980WAT     H157182   4.165   4.849   2.239
18980WAT     H257183   4.311   4.921   2.235
18981WAT      O57184   7.895   3.097   4.386
18981WAT     H157185   7.961   3.022   4.396
18981WAT     H257186   7.824   3.088   4.456
18982WAT      O57187   0.228   6.259   0.428
18982WAT     H157188   0.265   6.214   0.347
18982WAT     H257189   0.190   6.348   0.402
18983WAT      O57190   8.102   9.225   9.107
18983WAT     H157191   8.173   9.291   9.135
18983WAT     H257192   8.038   9.271   9.045
18984WAT      O57193   3.443   8.141   3.208
18984WAT     H157194   3.413   8.073   3.276
18984WAT     H257195   3.364   8.171   3.155
18985WAT      O57196   8.175   7.377   7.376
18985WAT     H157197   8.266   7.348   7.405
18985WAT     H257198   8.126   7.417   7.453
18986WAT      O57199   8.161   8.640   7.097
18986WAT     H157200   8.089   8.625   7.029
18986WAT     H257201   8.146   8.579   7.175
18987WAT      O57202   6.629   4.280   4.572
18987WAT     H157203   6.701   4.344   4.600
18987WAT     H257204   6.615   4.212   4.644
18988WAT      O57205   1.502   9.245   1.316
18988WAT     H157206   1.449   9.310   1.263
18988WAT     H257207   1.589   9.286   1.343
18989WAT      O57208   5.285   9.124   5.855
18989WAT     H157209   5.367   9.176   5.829
18989WAT     H257210   5.245   9.083   5.773
18990WAT      O57211   1.094   1.318   5.601
18990WAT     H157212   1.001   1.301   5.568
18990WAT     H257213   1.100   1.412   5.634
18991WAT      O57214   1.455   5.540   7.526
18991WAT     H157215   1.550   5.517   7.503
18991WAT     H257216   1.412   5.585   7.448
18992WAT      O57217   2.157   2.967   9.550
18992WAT     H157218   2.094   3.011   9.613
18992WAT     H257219   2.158   2.868   9.567
18993WAT      O57220   8.448   2.632   7.289
18993WAT     H157221   8.447   2.646   7.388
18993WAT     H257222   8.486   2.712   7.244
18994WAT      O57223   0.351   9.819   5.338
18994WAT     H157224   0.428   9.880   5.319
18994WAT     H257225   0.335   9.760   5.258
18995WAT      O57226   8.643   2.353   1.316
18995WAT     H157227   8.681   2.262   1.300
18995WAT     H257228   8.696   2.400   1.386
18996WAT      O57229   3.399   7.677   2.243
18996WAT     H157230   3.413   7.762   2.292
18996WAT     H257231   3.352   7.695   2.156
18997WAT      O57232   4.531   5.521   8.173
18997WAT     H157233   4.463   5.460   8.212
18997WAT     H257234   4.617   5.471   8.157
18998WAT      O57235   5.174   3.314   2.795
18998WAT     H157236   5.273   3.320   2.806
18998WAT     H257237   5.128   3.359   2.871
18999WAT      O57238   9.054   3.023   5.384
18999WAT     H157239   8.982   2.958   5.410
18999WAT     H257240   9.099   3.057   5.467
19000WAT      O57241   3.305   1.646   8.345
19000WAT     H157242   3.343   1.603   8.427
19000WAT     H257243   3.223   1.698   8.370
19001WAT      O57244   5.122   6.928   5.737
19001WAT     H157245   5.129   6.991   5.815
19001WAT     H257246   5.036   6.877   5.743
19002WAT      O57247   2.232   3.680   2.010
19002WAT     H157248   2.309   3.743   2.009
19002WAT     H257249   2.244   3.614   2.084
19003WAT      O57250   8.167   3.202   7.105
19003WAT     H157251   8.240   3.164   7.162
19003WAT     H257252   8.196   3.205   7.009
19004WAT      O57253   3.226   5.714   0.254
19004WAT     H157254   3.291   5.638   0.251
19004WAT     H257255   3.164   5.707   0.176
19005WAT      O57256   3.062   1.622   4.977
19005WAT     H157257   3.118   1.546   5.011
19005WAT     H257258   3.121   1.697   4.948
19006WAT      O57259   0.260   7.063   2.691
19006WAT     H157260   0.330   7.111   2.639
19006WAT     H257261   0.232   6.981   2.642
19007WAT      O57262   8.126   7.733   4.837
19007WAT     H157263   8.188   7.658   4.813
19007WAT     H257264   8.113   7.793   4.758
19008WAT      O57265   5.767   9.317   5.021
19008WAT     H157266   5.683   9.267   5.041
19008WAT     H257267   5.746   9.398   4.966
19009WAT      O57268   6.293   5.080   8.825
19009WAT     H157269   6.271   5.171   8.789
19009WAT     H257270   6.262   5.073   8.920
19010WAT      O57271   8.196   6.391   6.388
19010WAT     H157272   8.198   6.486   6.355
19010WAT     H257273   8.144   6.387   6.474
19011WAT      O57274   9.701   4.685   1.901
19011WAT     H157275   9.685   4.641   1.990
19011WAT     H257276   9.780   4.746   1.908
19012WAT      O57277   2.152   3.592   9.351
19012WAT     H157278   2.142   3.669   9.288
19012WAT     H257279   2.239   3.599   9.399
19013WAT      O57280   8.666   8.699   3.452
19013WAT     H157281   8.664   8.622   3.388
19013WAT     H257282   8.680   8.784   3.401
19014WAT      O57283   4.887   8.934   6.679
19014WAT     H157284   4.841   8.922   6.767
19014WAT     H257285   4.819   8.930   6.605
19015WAT      O57286   4.068   8.969   5.417
19015WAT     H157287   4.158   8.999   5.448
19015WAT     H257288   4.006   8.962   5.495
19016WAT      O57289   0.394   6.830   8.784
19016WAT     H157290   0.328   6.814   8.711
19016WAT     H257291   0.423   6.926   8.782
19017WAT      O57292   4.966   0.476   0.610
19017WAT     H157293   5.044   0.539   0.615
19017WAT     H257294   4.967   0.430   0.521
19018WAT      O57295   1.319   3.095   5.417
19018WAT     H157296   1.381   3.157   5.369
19018WAT     H257297   1.265   3.146   5.484
19019WAT      O57298   0.616   6.981   0.576
19019WAT     H157299   0.634   6.886   0.601
19019WAT     H257300   0.585   6.985   0.481
19020WAT      O57301   3.144   0.691   5.397
19020WAT     H157302   3.219   0.631   5.368
19020WAT     H257303   3.129   0.761   5.327
19021WAT      O57304   0.439   8.456   9.739
19021WAT     H157305   0.467   8.552   9.748
19021WAT     H257306   0.388   8.444   9.654
19022WAT      O57307   8.465   4.921   8.932
19022WAT     H157308   8.399   4.865   8.882
19022WAT     H257309   8.417   4.988   8.988
19023WAT      O57310   3.927   7.729   0.519
19023WAT     H157311   3.977   7.734   0.432
19023WAT     H257312   3.992   7.716   0.594
19024WAT      O57313   7.093   6.937   5.140
19024WAT     H157314   7.099   6.906   5.045
19024WAT     H257315   7.174   6.990   5.163
19025WAT      O57316   6.927   8.406   8.470
19025WAT     H157317   6.846   8.435   8.418
19025WAT     H257318   6.898   8.353   8.549
19026WAT      O57319   3.886   4.189   4.158
19026WAT     H157320   3.908   4.280   4.192
19026WAT     H257321   3.910   4.183   4.061
19027WAT      O57322   3.388   4.682   5.539
19027WAT     H157323   3.413   4.723   5.626
19027WAT     H257324   3.435   4.595   5.528
19028WAT      O57325   8.854   8.124   6.232
19028WAT     H157326   8.784   8.094   6.296
19028WAT     H257327   8.862   8.058   6.157
19029WAT      O57328   8.247   8.329   7.048
19029WAT     H157329   8.199   8.388   6.983
19029WAT     H257330   8.333   8.298   7.007
19030WAT      O57331   3.120   7.155   6.119
19030WAT     H157332   3.174   7.113   6.191
19030WAT     H257333   3.155   7.247   6.101
19031WAT      O57334   8.863   0.487   3.645
19031WAT     H157335   8.873   0.423   3.569
19031WAT     H257336   8.777   0.469   3.693
19032WAT      O57337   4.828   9.369   7.645
19032WAT     H157338   4.734   9.335   7.650
19032WAT     H257339   4.872   9.334   7.563
19033WAT      O57340   6.656   0.155   5.830
19033WAT     H157341   6.677   0.092   5.755
19033WAT     H257342   6.730   0.153   5.898
19034WAT      O57343   4.218   6.399   0.872
19034WAT     H157344   4.242   6.327   0.807
19034WAT     H257345   4.250   6.374   0.963
19035WAT      O57346   9.820   4.492   5.762
19035WAT     H157347   9.758   4.488   5.684
19035WAT     H257348   9.889   4.563   5.746
19036WAT      O57349   3.264   5.465   6.214
19036WAT     H157350   3.196   5.399   6.246
19036WAT     H257351   3.280   5.452   6.116
19037WAT      O57352   2.656   3.992   8.086
19037WAT     H157353   2.650   3.895   8.111
19037WAT     H257354   2.714   4.039   8.152
19038WAT      O57355   0.843   9.058   1.226
19038WAT     H157356   0.753   9.072   1.186
19038WAT     H257357   0.877   9.145   1.263
19039WAT      O57358   1.178   0.702   8.625
19039WAT     H157359   1.260   0.724   8.571
19039WAT     H257360   1.191   0.614   8.670
19040WAT      O57361   5.226   9.088   3.761
19040WAT     H157362   5.145   9.110   3.814
19040WAT     H257363   5.301   9.064   3.823
19041WAT      O57364   2.051   0.413   9.510
19041WAT     H157365   2.133   0.439   9.459
19041WAT     H257366   2.074   0.345   9.579
19042WAT      O57367   1.377   3.495   4.415
19042WAT     H157368   1.405   3.419   4.473
19042WAT     H257369   1.301   3.544   4.457
19043WAT      O57370   3.648   3.558   4.151
19043WAT     H157371   3.646   3.511   4.062
19043WAT     H257372   3.733   3.610   4.159
19044WAT      O57373   7.984   9.544   9.215
19044WAT     H157374   7.920   9.621   9.215
19044WAT     H257375   8.076   9.577   9.236
19045WAT      O57376   8.552   7.794   3.884
19045WAT     H157377   8.562   7.843   3.970
19045WAT     H257378   8.560   7.859   3.808
19046WAT      O57379   2.120   9.625   1.270
19046WAT     H157380   2.169   9.570   1.338
19046WAT     H257381   2.102   9.570   1.189
19047WAT      O57382   7.232   6.128   0.391
19047WAT     H157383   7.166   6.058   0.364
19047WAT     H257384   7.185   6.202   0.439
19048WAT      O57385   1.464   0.232   1.510
19048WAT     H157386   1.433   0.283   1.430
19048WAT     H257387   1.519   0.154   1.480
19049WAT      O57388   8.234   3.334   5.742
19049WAT     H157389   8.141   3.363   5.766
19049WAT     H257390   8.297   3.411   5.753
19050WAT      O57391   1.867   7.884   4.248
19050WAT     H157392   1.871   7.847   4.341
19050WAT     H257393   1.805   7.963   4.246
19051WAT      O57394   1.817   2.185   0.015
19051WAT     H157395   1.893   2.224  -0.036
19051WAT     H257396   1.772   2.257   0.068
19052WAT      O57397   4.501   2.265   0.539
19052WAT     H157398   4.423   2.203   0.533
19052WAT     H257399   4.586   2.212   0.538
19053WAT      O57400   8.719   9.168   0.891
19053WAT     H157401   8.621   9.177   0.906
19053WAT     H257402   8.754   9.091   0.945
19054WAT      O57403   4.279   6.836   5.387
19054WAT     H157404   4.260   6.748   5.432
19054WAT     H257405   4.236   6.910   5.439
19055WAT      O57406   6.832   8.766   2.242
19055WAT     H157407   6.840   8.844   2.304
19055WAT     H257408   6.778   8.793   2.162
19056WAT      O57409   7.251   2.480   1.086
19056WAT     H157410   7.298   2.427   1.156
19056WAT     H257411   7.221   2.567   1.125
19057WAT      O57412   3.856   7.374   4.366
19057WAT     H157413   3.775   7.316   4.371
19057WAT     H257414   3.938   7.318   4.370
19058WAT      O57415   8.912   2.291   7.217
19058WAT     H157416   8.860   2.209   7.237
19058WAT     H257417   9.010   2.269   7.215
19059WAT      O57418   2.329   9.628   5.192
19059WAT     H157419   2.299   9.698   5.127
19059WAT     H257420   2.402   9.664   5.250
19060WAT      O57421   8.023   8.477   0.342
19060WAT     H157422   7.987   8.450   0.432
19060WAT     H257423   7.974   8.558   0.310
19061WAT      O57424   6.347   5.937   9.529
19061WAT     H157425   6.446   5.923   9.524
19061WAT     H257426   6.310   5.949   9.436
19062WAT      O57427   7.682   0.131   4.579
19062WAT     H157428   7.595   0.173   4.604
19062WAT     H257429   7.751   0.155   4.647
19063WAT      O57430   6.263   6.860   9.047
19063WAT     H157431   6.216   6.826   9.128
19063WAT     H257432   6.348   6.905   9.074
19064WAT      O57433   4.054   6.933   9.729
19064WAT     H157434   3.963   6.925   9.687
19064WAT     H257435   4.116   6.867   9.686
19065WAT      O57436   3.324   3.587   1.237
19065WAT     H157437   3.422   3.575   1.225
19065WAT     H257438   3.306   3.680   1.271
19066WAT      O57439   7.095   4.927   6.804
19066WAT     H157440   7.153   5.001   6.839
19066WAT     H257441   7.049   4.958   6.721
19067WAT      O57442   2.086   9.349   4.985
19067WAT     H157443   2.179   9.382   4.970
19067WAT     H257444   2.058   9.290   4.909
19068WAT      O57445   9.460   8.339   1.582
19068WAT     H157446   9.520   8.379   1.514
19068WAT     H257447   9.443   8.405   1.655
19069WAT      O57448   8.261   2.605   4.406
19069WAT     H157449   8.320   2.525   4.414
19069WAT     H257450   8.265   2.658   4.490
19070WAT      O57451   5.992   5.074   7.642
19070WAT     H157452   6.010   4.997   7.580
19070WAT     H257453   5.985   5.158   7.589
19071WAT      O57454   7.721   4.313   8.352
19071WAT     H157455   7.631   4.283   8.321
19071WAT     H257456   7.717   4.338   8.449
19072WAT      O57457   5.151   9.420   3.945
19072WAT     H157458   5.153   9.336   4.000
19072WAT     H257459   5.082   9.410   3.874
19073WAT      O57460   5.441   7.707   3.813
19073WAT     H157461   5.443   7.635   3.744
19073WAT     H257462   5.353   7.707   3.859
19074WAT      O57463   7.031   1.809   2.480
19074WAT     H157464   7.058   1.776   2.389
19074WAT     H257465   6.932   1.806   2.489
19075WAT      O57466   1.585   8.905   1.213
19075WAT     H157467   1.530   8.864   1.141
19075WAT     H257468   1.525   8.943   1.284
19076WAT      O57469   4.426   6.724   1.313
19076WAT     H157470   4.362   6.789   1.354
19076WAT     H257471   4.481   6.682   1.385
19077WAT      O57472   5.350   2.085   2.424
19077WAT     H157473   5.283   2.014   2.403
19077WAT     H257474   5.320   2.172   2.385
19078WAT      O57475   7.159   5.653   0.899
19078WAT     H157476   7.125   5.654   0.805
19078WAT     H257477   7.201   5.565   0.919
19079WAT      O57478   3.676   4.269   1.435
19079WAT     H157479   3.770   4.237   1.446
19079WAT     H257480   3.626   4.207   1.375
19080WAT      O57481   6.915   2.006   7.355
19080WAT     H157482   6.869   2.040   7.273
19080WAT     H257483   6.944   2.083   7.412
19081WAT      O57484   8.269   1.106   5.201
19081WAT     H157485   8.326   1.185   5.182
19081WAT     H257486   8.325   1.033   5.240
19082WAT      O57487   1.959   5.833   9.204
19082WAT     H157488   1.991   5.745   9.240
19082WAT     H257489   1.859   5.836   9.206
19083WAT      O57490   2.381   0.497   2.776
19083WAT     H157491   2.413   0.463   2.687
19083WAT     H257492   2.459   0.530   2.829
19084WAT      O57493   4.153   2.654   6.056
19084WAT     H157494   4.211   2.581   6.021
19084WAT     H257495   4.204   2.739   6.060
19085WAT      O57496   0.364   4.560   6.888
19085WAT     H157497   0.404   4.481   6.935
19085WAT     H257498   0.266   4.564   6.908
19086WAT      O57499   9.784   9.347   6.296
19086WAT     H157500   9.702   9.323   6.349
19086WAT     H257501   9.758   9.406   6.220
19087WAT      O57502   5.178   2.858   1.099
19087WAT     H157503   5.107   2.805   1.145
19087WAT     H257504   5.200   2.814   1.011
19088WAT      O57505   5.675   8.034   5.982
19088WAT     H157506   5.752   8.085   6.020
19088WAT     H257507   5.591   8.060   6.029
19089WAT      O57508   9.386   4.478   1.057
19089WAT     H157509   9.413   4.489   0.961
19089WAT     H257510   9.467   4.457   1.112
19090WAT      O57511   2.914   7.524   3.045
19090WAT     H157512   2.913   7.617   3.008
19090WAT     H257513   2.997   7.477   3.017
19091WAT      O57514   2.073   6.713   8.427
19091WAT     H157515   2.059   6.741   8.522
19091WAT     H257516   1.990   6.667   8.394
19092WAT      O57517   3.141   6.998   5.161
19092WAT     H157518   3.241   7.004   5.156
19092WAT     H257519   3.105   6.968   5.073
19093WAT      O57520   4.348   3.713   2.674
19093WAT     H157521   4.414   3.638   2.669
19093WAT     H257522   4.375   3.785   2.611
19094WAT      O57523   8.990   6.530   7.342
19094WAT     H157524   8.990   6.605   7.276
19094WAT     H257525   8.965   6.445   7.296
19095WAT      O57526   5.004   2.079   8.784
19095WAT     H157527   5.016   2.135   8.702
19095WAT     H257528   4.907   2.053   8.792
19096WAT      O57529   2.279   2.838   8.536
19096WAT     H157530   2.271   2.771   8.462
19096WAT     H257531   2.373   2.841   8.568
19097WAT      O57532   0.855   3.120   6.939
19097WAT     H157533   0.870   3.107   7.037
19097WAT     H257534   0.888   3.039   6.889
19098WAT      O57535   4.907   5.806   9.588
19098WAT     H157536   4.855   5.888   9.562
19098WAT     H257537   4.844   5.728   9.597
19099WAT      O57538   5.948   1.415   5.014
19099WAT     H157539   6.001   1.355   4.954
19099WAT     H257540   5.867   1.447   4.965
19100WAT      O57541   1.909   6.401   2.403
19100WAT     H157542   1.923   6.500   2.402
19100WAT     H257543   1.979   6.358   2.346
19101WAT      O57544   9.283   1.442   9.510
19101WAT     H157545   9.270   1.397   9.598
19101WAT     H257546   9.204   1.425   9.451
19102WAT      O57547   0.640   8.920   9.677
19102WAT     H157548   0.562   8.981   9.663
19102WAT     H257549   0.711   8.969   9.728
19103WAT      O57550   3.854   5.826   4.274
19103WAT     H157551   3.802   5.801   4.193
19103WAT     H257552   3.792   5.831   4.353
19104WAT      O57553   5.797   3.313   4.265
19104WAT     H157554   5.742   3.248   4.213
19104WAT     H257555   5.878   3.267   4.301
19105WAT      O57556   4.068   2.943   9.466
19105WAT     H157557   4.019   2.862   9.499
19105WAT     H257558   4.155   2.951   9.514
19106WAT      O57559   6.935   5.112   3.236
19106WAT     H157560   7.012   5.071   3.187
19106WAT     H257561   6.912   5.057   3.315
19107WAT      O57562   7.834   0.623   8.215
19107WAT     H157563   7.849   0.625   8.116
19107WAT     H257564   7.747   0.669   8.237
19108WAT      O57565   5.709   8.981   0.028
19108WAT     H157566   5.745   9.073   0.012
19108WAT     H257567   5.767   8.914  -0.020
19109WAT      O57568   8.829   2.493   5.118
19109WAT     H157569   8.777   2.416   5.155
19109WAT     H257570   8.885   2.533   5.191
19110WAT      O57571   9.883   9.044   5.949
19110WAT     H157572   9.789   9.075   5.942
19110WAT     H257573   9.891   8.977   6.023
19111WAT      O57574   8.671   8.330   7.588
19111WAT     H157575   8.677   8.255   7.654
19111WAT     H257576   8.677   8.293   7.495
19112WAT      O57577   9.067   8.725   3.204
19112WAT     H157578   9.144   8.661   3.211
19112WAT     H257579   9.094   8.803   3.146
19113WAT      O57580   6.541   8.897   9.367
19113WAT     H157581   6.498   8.822   9.317
19113WAT     H257582   6.490   8.914   9.451
19114WAT      O57583   9.839   5.399   0.917
19114WAT     H157584   9.895   5.476   0.885
19114WAT     H257585   9.895   5.339   0.974
19115WAT      O57586   3.108   5.307   9.369
19115WAT     H157587   3.095   5.365   9.449
19115WAT     H257588   3.206   5.295   9.352
19116WAT      O57589   4.538   2.867   3.798
19116WAT     H157590   4.487   2.830   3.721
19116WAT     H257591   4.636   2.850   3.785
19117WAT      O57592   4.627   3.810   5.714
19117WAT     H157593   4.624   3.826   5.615
19117WAT     H257594   4.664   3.891   5.759
19118WAT      O57595   5.694   9.135   1.959
19118WAT     H157596   5.666   9.043   1.985
19118WAT     H257597   5.689   9.195   2.039
19119WAT      O57598   7.294   2.073   0.180
19119WAT     H157599   7.296   2.096   0.278
19119WAT     H257600   7.212   2.020   0.160
19120WAT      O57601   1.474   0.075   0.130
19120WAT     H157602   1.384   0.047   0.165
19120WAT     H257603   1.461   0.134   0.050
19121WAT      O57604   6.676   6.807   6.509
19121WAT     H157605   6.632   6.779   6.594
19121WAT     H257606   6.730   6.890   6.525
19122WAT      O57607   1.188   6.678   5.546
19122WAT     H157608   1.263   6.652   5.486
19122WAT     H257609   1.208   6.765   5.590
19123WAT      O57610   0.225   8.525   1.353
19123WAT     H157611   0.191   8.463   1.425
19123WAT     H257612   0.189   8.617   1.369
19124WAT      O57613   9.012   0.577   0.249
19124WAT     H157614   9.088   0.517   0.273
19124WAT     H257615   8.940   0.523   0.206
19125WAT      O57616   8.248   6.779   9.603
19125WAT     H157617   8.322   6.845   9.584
19125WAT     H257618   8.161   6.817   9.572
19126WAT      O57619   7.591   7.593   7.465
19126WAT     H157620   7.539   7.674   7.435
19126WAT     H257621   7.659   7.620   7.532
19127WAT      O57622   9.008   8.327   7.466
19127WAT     H157623   9.106   8.316   7.478
19127WAT     H257624   8.986   8.327   7.369
19128WAT      O57625   7.665   6.099   9.574
19128WAT     H157626   7.693   6.014   9.620
19128WAT     H257627   7.568   6.094   9.552
19129WAT      O57628   8.428   4.374   9.575
19129WAT     H157629   8.446   4.472   9.562
19129WAT     H257630   8.340   4.363   9.622
19130WAT      O57631   7.311   0.653   3.524
19130WAT     H157632   7.382   0.629   3.458
19130WAT     H257633   7.231   0.595   3.510
19131WAT      O57634   7.156   9.822   6.667
19131WAT     H157635   7.109   9.769   6.738
19131WAT     H257636   7.188   9.908   6.707
19132WAT      O57637   3.475   8.021   4.214
19132WAT     H157638   3.561   8.031   4.263
19132WAT     H257639   3.413   7.963   4.268
19133WAT      O57640   6.049   4.230   1.482
19133WAT     H157641   6.025   4.325   1.499
19133WAT     H257642   5.972   4.184   1.436
19134WAT      O57643   9.715   8.509   9.735
19134WAT     H157644   9.785   8.446   9.769
19134WAT     H257645   9.649   8.529   9.807
19135WAT      O57646   8.945   2.774   2.820
19135WAT     H157647   9.026   2.735   2.778
19135WAT     H257648   8.895   2.703   2.869
19136WAT      O57649   5.902   6.145   7.167
19136WAT     H157650   5.961   6.108   7.239
19136WAT     H257651   5.953   6.210   7.111
19137WAT      O57652   5.022   8.657   8.182
19137WAT     H157653   4.991   8.566   8.209
19137WAT     H257654   4.944   8.716   8.165
19138WAT      O57655   3.373   9.321   2.578
19138WAT     H157656   3.471   9.303   2.578
19138WAT     H257657   3.324   9.239   2.609
19139WAT      O57658   3.483   8.446   7.926
19139WAT     H157659   3.446   8.381   7.992
19139WAT     H257660   3.505   8.532   7.971
19140WAT      O57661   4.646   0.277   9.650
19140WAT     H157662   4.614   0.338   9.578
19140WAT     H257663   4.694   0.329   9.720
19141WAT      O57664   4.304   2.123   6.843
19141WAT     H157665   4.305   2.184   6.765
19141WAT     H257666   4.279   2.174   6.926
19142WAT      O57667   9.132   5.764   9.139
19142WAT     H157668   9.197   5.754   9.215
19142WAT     H257669   9.097   5.674   9.113
19143WAT      O57670   4.944   6.564   5.379
19143WAT     H157671   4.849   6.539   5.396
19143WAT     H257672   5.003   6.485   5.394
19144WAT      O57673   4.500   9.149   5.825
19144WAT     H157674   4.523   9.087   5.750
19144WAT     H257675   4.444   9.101   5.893
19145WAT      O57676   9.799   5.828   4.260
19145WAT     H157677   9.854   5.842   4.343
19145WAT     H257678   9.750   5.741   4.266
19146WAT      O57679   5.811   4.009   1.741
19146WAT     H157680   5.808   3.934   1.675
19146WAT     H257681   5.905   4.019   1.775
19147WAT      O57682   4.853   2.591   3.028
19147WAT     H157683   4.827   2.680   2.991
19147WAT     H257684   4.921   2.603   3.100
19148WAT      O57685   7.454   8.719   0.989
19148WAT     H157686   7.511   8.722   0.906
19148WAT     H257687   7.513   8.717   1.070
19149WAT      O57688   4.951   4.342   0.080
19149WAT     H157689   4.931   4.245   0.067
19149WAT     H257690   5.040   4.353   0.126
19150WAT      O57691   8.477   5.491   5.024
19150WAT     H157692   8.466   5.425   4.950
19150WAT     H257693   8.436   5.455   5.108
19151WAT      O57694   4.246   4.680   3.821
19151WAT     H157695   4.270   4.753   3.885
19151WAT     H257696   4.278   4.704   3.729
19152WAT      O57697   8.728   5.029   3.215
19152WAT     H157698   8.656   4.985   3.160
19152WAT     H257699   8.720   5.128   3.206
19153WAT      O57700   8.780   6.261   3.083
19153WAT     H157701   8.878   6.278   3.091
19153WAT     H257702   8.763   6.162   3.086
19154WAT      O57703   7.735   6.707   9.076
19154WAT     H157704   7.735   6.794   9.125
19154WAT     H257705   7.747   6.632   9.140
19155WAT      O57706   9.293   4.665   3.409
19155WAT     H157707   9.280   4.683   3.506
19155WAT     H257708   9.380   4.617   3.395
19156WAT      O57709   4.784   7.189   8.022
19156WAT     H157710   4.814   7.269   8.073
19156WAT     H257711   4.687   7.200   7.996
19157WAT      O57712   6.559   0.150   0.451
19157WAT     H157713   6.597   0.191   0.534
19157WAT     H257714   6.548   0.221   0.381
19158WAT      O57715   3.486   1.550   5.459
19158WAT     H157716   3.422   1.505   5.521
19158WAT     H257717   3.435   1.589   5.382
19159WAT      O57718   5.305   2.113   1.306
19159WAT     H157719   5.381   2.161   1.261
19159WAT     H257720   5.231   2.101   1.240
19160WAT      O57721   6.892   2.114   9.116
19160WAT     H157722   6.850   2.116   9.026
19160WAT     H257723   6.821   2.102   9.186
19161WAT      O57724   3.048   2.209   7.543
19161WAT     H157725   2.981   2.186   7.613
19161WAT     H257726   3.070   2.306   7.548
19162WAT      O57727   3.484   0.881   0.502
19162WAT     H157728   3.414   0.944   0.535
19162WAT     H257729   3.534   0.923   0.427
19163WAT      O57730   1.980   6.671   9.800
19163WAT     H157731   2.033   6.592   9.770
19163WAT     H257732   2.040   6.749   9.815
19164WAT      O57733   7.059   1.016   4.508
19164WAT     H157734   7.147   1.027   4.555
19164WAT     H257735   7.035   1.102   4.463
19165WAT      O57736   0.518   7.354   6.814
19165WAT     H157737   0.596   7.364   6.751
19165WAT     H257738   0.533   7.410   6.895
19166WAT      O57739   6.142   1.651   8.754
19166WAT     H157740   6.240   1.636   8.763
19166WAT     H257741   6.105   1.590   8.683
19167WAT      O57742   5.357   2.800   4.172
19167WAT     H157743   5.376   2.885   4.220
19167WAT     H257744   5.266   2.804   4.131
19168WAT      O57745   7.307   7.690   8.085
19168WAT     H157746   7.339   7.749   8.012
19168WAT     H257747   7.281   7.745   8.164
19169WAT      O57748   0.655   8.613   6.045
19169WAT     H157749   0.725   8.655   5.987
19169WAT     H257750   0.696   8.539   6.098
19170WAT      O57751   8.438   6.053   9.596
19170WAT     H157752   8.505   6.098   9.537
19170WAT     H257753   8.359   6.024   9.542
19171WAT      O57754   9.577   4.663   8.606
19171WAT     H157755   9.650   4.708   8.555
19171WAT     H257756   9.527   4.601   8.544
19172WAT      O57757   6.670   0.403   9.866
19172WAT     H157758   6.745   0.399   9.932
19172WAT     H257759   6.671   0.321   9.809
19173WAT      O57760   3.066   9.682   8.559
19173WAT     H157761   3.023   9.767   8.590
19173WAT     H257762   3.118   9.700   8.475
19174WAT      O57763   4.223   6.444   9.398
19174WAT     H157764   4.313   6.454   9.355
19174WAT     H257765   4.223   6.363   9.456
19175WAT      O57766   5.338   0.859   2.187
19175WAT     H157767   5.367   0.888   2.096
19175WAT     H257768   5.249   0.814   2.182
19176WAT      O57769   2.644   4.018   7.802
19176WAT     H157770   2.555   4.049   7.767
19176WAT     H257771   2.636   3.994   7.898
19177WAT      O57772   5.832   1.470   8.776
19177WAT     H157773   5.908   1.467   8.712
19177WAT     H257774   5.770   1.545   8.751
19178WAT      O57775   9.348   1.096   4.691
19178WAT     H157776   9.421   1.090   4.758
19178WAT     H257777   9.259   1.088   4.737
19179WAT      O57778   5.483   2.864   9.341
19179WAT     H157779   5.448   2.772   9.355
19179WAT     H257780   5.571   2.874   9.387
19180WAT      O57781   7.745   5.147   2.481
19180WAT     H157782   7.664   5.092   2.498
19180WAT     H257783   7.794   5.111   2.402
19181WAT      O57784   8.966   0.083   6.351
19181WAT     H157785   8.868   0.085   6.372
19181WAT     H257786   8.981   0.121   6.260
19182WAT      O57787   5.116   0.903   4.942
19182WAT     H157788   5.069   0.934   4.859
19182WAT     H257789   5.101   0.971   5.015
19183WAT      O57790   4.557   4.010   1.745
19183WAT     H157791   4.600   3.977   1.828
19183WAT     H257792   4.467   3.967   1.735
19184WAT      O57793   6.156   8.873   3.057
19184WAT     H157794   6.227   8.812   3.022
19184WAT     H257795   6.197   8.960   3.083
19185WAT      O57796   6.745   0.835   2.736
19185WAT     H157797   6.691   0.881   2.805
19185WAT     H257798   6.755   0.894   2.656
19186WAT      O57799   0.444   8.110   4.191
19186WAT     H157800   0.372   8.152   4.136
19186WAT     H257801   0.428   8.011   4.197
19187WAT      O57802   0.006   6.430   4.426
19187WAT     H157803   0.064   6.380   4.491
19187WAT     H257804   0.042   6.523   4.415
19188WAT      O57805   5.037   4.805   6.446
19188WAT     H157806   5.066   4.860   6.525
19188WAT     H257807   4.947   4.837   6.415
19189WAT      O57808   5.024   6.683   7.926
19189WAT     H157809   5.046   6.774   7.963
19189WAT     H257810   4.925   6.670   7.927
19190WAT      O57811   1.493   7.216   8.730
19190WAT     H157812   1.455   7.307   8.748
19190WAT     H257813   1.520   7.174   8.817
19191WAT      O57814   4.461   0.632   7.153
19191WAT     H157815   4.484   0.727   7.174
19191WAT     H257816   4.486   0.611   7.059
19192WAT      O57817   0.949   4.419   5.095
19192WAT     H157818   0.981   4.324   5.095
19192WAT     H257819   1.010   4.475   5.038
19193WAT      O57820   7.825   5.599   1.823
19193WAT     H157821   7.878   5.559   1.897
19193WAT     H257822   7.728   5.598   1.846
19194WAT      O57823   2.530   4.653   8.977
19194WAT     H157824   2.512   4.697   9.065
19194WAT     H257825   2.577   4.566   8.993
19195WAT      O57826   5.801   4.675   8.063
19195WAT     H157827   5.842   4.625   7.986
19195WAT     H257828   5.865   4.677   8.139
19196WAT      O57829   4.113   6.757   2.376
19196WAT     H157830   4.150   6.686   2.436
19196WAT     H257831   4.180   6.778   2.304
19197WAT      O57832   0.851   8.811   0.035
19197WAT     H157833   0.923   8.800   0.104
19197WAT     H257834   0.870   8.752  -0.043
19198WAT      O57835   9.676   6.528   4.291
19198WAT     H157836   9.758   6.502   4.343
19198WAT     H257837   9.623   6.594   4.344
19199WAT      O57838   4.793   6.572   9.893
19199WAT     H157839   4.880   6.621   9.893
19199WAT     H257840   4.767   6.550   9.799
19200WAT      O57841   5.564   0.859   9.690
19200WAT     H157842   5.542   0.874   9.593
19200WAT     H257843   5.545   0.764   9.714
19201WAT      O57844   6.680   6.200   2.755
19201WAT     H157845   6.684   6.196   2.855
19201WAT     H257846   6.730   6.280   2.723
19202WAT      O57847   1.244   8.961   5.135
19202WAT     H157848   1.270   9.037   5.194
19202WAT     H257849   1.151   8.975   5.102
19203WAT      O57850   9.544   3.351   7.108
19203WAT     H157851   9.530   3.315   7.016
19203WAT     H257852   9.483   3.304   7.172
19204WAT      O57853   6.579   5.631   3.260
19204WAT     H157854   6.618   5.580   3.183
19204WAT     H257855   6.492   5.589   3.286
19205WAT      O57856   2.249   4.967   1.336
19205WAT     H157857   2.219   5.043   1.278
19205WAT     H257858   2.340   4.937   1.307
19206WAT      O57859   4.140   8.904   6.901
19206WAT     H157860   4.152   8.893   7.000
19206WAT     H257861   4.120   8.815   6.860
19207WAT      O57862   1.271   6.180   4.648
19207WAT     H157863   1.311   6.216   4.732
19207WAT     H257864   1.181   6.220   4.634
19208WAT      O57865   7.201   6.673   4.195
19208WAT     H157866   7.239   6.590   4.237
19208WAT     H257867   7.241   6.685   4.104
19209WAT      O57868   5.524   3.611   3.147
19209WAT     H157869   5.530   3.572   3.239
19209WAT     H257870   5.585   3.560   3.085
19210WAT      O57871   2.661   1.041   7.736
19210WAT     H157872   2.660   0.942   7.755
19210WAT     H257873   2.756   1.073   7.738
19211WAT      O57874   0.229   6.556   6.795
19211WAT     H157875   0.267   6.642   6.828
19211WAT     H257876   0.199   6.501   6.873
19212WAT      O57877   9.073   4.068   3.519
19212WAT     H157878   8.978   4.084   3.494
19212WAT     H257879   9.108   4.145   3.573
19213WAT      O57880   1.285   1.700   7.305
19213WAT     H157881   1.222   1.760   7.356
19213WAT     H257882   1.262   1.702   7.208
19214WAT      O57883   9.782   6.827   3.731
19214WAT     H157884   9.682   6.824   3.732
19214WAT     H257885   9.813   6.910   3.778
19215WAT      O57886   6.900   5.151   8.975
19215WAT     H157887   6.995   5.150   9.006
19215WAT     H257888   6.882   5.072   8.916
19216WAT      O57889   6.092   9.536   5.823
19216WAT     H157890   6.096   9.476   5.743
19216WAT     H257891   6.104   9.631   5.794
19217WAT      O57892   8.366   1.014   0.220
19217WAT     H157893   8.342   1.078   0.147
19217WAT     H257894   8.299   0.940   0.223
19218WAT      O57895   5.501   2.305   2.104
19218WAT     H157896   5.506   2.208   2.080
19218WAT     H257897   5.590   2.337   2.136
19219WAT      O57898   3.712   4.198   5.468
19219WAT     H157899   3.683   4.147   5.387
19219WAT     H257900   3.722   4.136   5.545
19220WAT      O57901   6.628   8.360   4.993
19220WAT     H157902   6.660   8.389   5.083
19220WAT     H257903   6.560   8.424   4.958
19221WAT      O57904   8.025   2.975   1.944
19221WAT     H157905   8.063   2.890   1.908
19221WAT     H257906   8.097   3.045   1.947
19222WAT      O57907   5.511   5.410   0.661
19222WAT     H157908   5.606   5.436   0.677
19222WAT     H257909   5.450   5.475   0.707
19223WAT      O57910   6.488   7.967   9.656
19223WAT     H157911   6.504   8.054   9.702
19223WAT     H257912   6.413   7.978   9.591
19224WAT      O57913   3.780   5.511   7.270
19224WAT     H157914   3.774   5.422   7.225
19224WAT     H257915   3.814   5.498   7.363
19225WAT      O57916   5.960   3.551   9.261
19225WAT     H157917   5.976   3.542   9.162
19225WAT     H257918   6.047   3.561   9.308
19226WAT      O57919   3.974   7.122   5.721
19226WAT     H157920   3.880   7.101   5.749
19226WAT     H257921   3.974   7.204   5.664
19227WAT      O57922   4.242   1.494   0.592
19227WAT     H157923   4.234   1.559   0.516
19227WAT     H257924   4.265   1.403   0.555
19228WAT      O57925   4.429   3.016   9.105
19228WAT     H157926   4.360   3.057   9.045
19228WAT     H257927   4.392   2.931   9.144
19229WAT      O57928   8.060   7.408   2.655
19229WAT     H157929   8.118   7.468   2.710
19229WAT     H257930   7.965   7.438   2.662
19230WAT      O57931   0.955   2.304   2.022
19230WAT     H157932   1.009   2.365   2.080
19230WAT     H257933   0.956   2.337   1.928
19231WAT      O57934   8.794   0.081   0.603
19231WAT     H157935   8.838   0.106   0.690
19231WAT     H257936   8.752   0.163   0.564
19232WAT      O57937   8.856   0.283   1.503
19232WAT     H157938   8.878   0.328   1.417
19232WAT     H257939   8.816   0.350   1.566
19233WAT      O57940   7.170   1.036   5.350
19233WAT     H157941   7.113   1.048   5.269
19233WAT     H257942   7.125   1.080   5.429
19234WAT      O57943   4.911   6.082   4.169
19234WAT     H157944   4.904   6.040   4.260
19234WAT     H257945   4.979   6.156   4.171
19235WAT      O57946   7.423   4.861   7.184
19235WAT     H157947   7.350   4.799   7.155
19235WAT     H257948   7.493   4.809   7.233
19236WAT      O57949   4.867   1.418   4.094
19236WAT     H157950   4.793   1.358   4.124
19236WAT     H257951   4.850   1.447   4.000
19237WAT      O57952   7.328   1.435   0.622
19237WAT     H157953   7.298   1.522   0.581
19237WAT     H257954   7.274   1.417   0.704
19238WAT      O57955   6.805   5.871   3.263
19238WAT     H157956   6.728   5.824   3.306
19238WAT     H257957   6.873   5.804   3.233
19239WAT      O57958   2.292   1.539   8.211
19239WAT     H157959   2.329   1.460   8.260
19239WAT     H257960   2.201   1.516   8.176
19240WAT      O57961   2.761   4.532   4.090
19240WAT     H157962   2.763   4.590   4.172
19240WAT     H257963   2.680   4.474   4.093
19241WAT      O57964   2.363   4.810   3.177
19241WAT     H157965   2.317   4.841   3.260
19241WAT     H257966   2.402   4.889   3.129
19242WAT      O57967   0.046   9.639   3.797
19242WAT     H157968   0.125   9.607   3.745
19242WAT     H257969  -0.012   9.696   3.739
19243WAT      O57970   6.489   8.287   6.824
19243WAT     H157971   6.581   8.326   6.819
19243WAT     H257972   6.423   8.360   6.841
19244WAT      O57973   7.109   9.606   2.080
19244WAT     H157974   7.018   9.646   2.067
19244WAT     H257975   7.141   9.567   1.994
19245WAT      O57976   7.984   3.423   4.129
19245WAT     H157977   8.032   3.509   4.147
19245WAT     H257978   7.888   3.442   4.108
19246WAT      O57979   0.789   5.273   2.328
19246WAT     H157980   0.804   5.258   2.231
19246WAT     H257981   0.692   5.294   2.344
19247WAT      O57982   5.174   8.087   2.689
19247WAT     H157983   5.081   8.055   2.704
19247WAT     H257984   5.187   8.176   2.732
19248WAT      O57985   2.572   1.065   0.242
19248WAT     H157986   2.671   1.077   0.244
19248WAT     H257987   2.527   1.144   0.284
19249WAT      O57988   3.763   2.226   5.849
19249WAT     H157989   3.775   2.137   5.892
19249WAT     H257990   3.693   2.219   5.778
19250WAT      O57991   7.005   6.428   3.974
19250WAT     H157992   6.924   6.372   3.988
19250WAT     H257993   7.085   6.370   3.963
19251WAT      O57994   0.486   5.559   2.669
19251WAT     H157995   0.445   5.597   2.751
19251WAT     H257996   0.561   5.498   2.694
19252WAT      O57997   9.745   0.543   0.051
19252WAT     H157998   9.716   0.600  -0.025
19252WAT     H257999   9.822   0.587   0.099
19253WAT      O58000   8.436   5.031   1.727
19253WAT     H158001   8.390   4.984   1.802
19253WAT     H258002   8.474   4.964   1.663
19254WAT      O58003   8.888   0.110   4.368
19254WAT     H158004   8.803   0.056   4.365
19254WAT     H258005   8.956   0.069   4.306
19255WAT      O58006   2.975   2.675   6.468
19255WAT     H158007   3.072   2.666   6.489
19255WAT     H258008   2.936   2.751   6.520
19256WAT      O58009   1.371   1.257   9.736
19256WAT     H158010   1.367   1.300   9.646
19256WAT     H258011   1.346   1.323   9.806
19257WAT      O58012   2.213   4.665   8.430
19257WAT     H158013   2.238   4.622   8.344
19257WAT     H258014   2.220   4.598   8.504
19258WAT      O58015   4.078   6.456   3.310
19258WAT     H158016   3.994   6.405   3.291
19258WAT     H258017   4.055   6.546   3.346
19259WAT      O58018   7.595   2.701   1.849
19259WAT     H158019   7.534   2.706   1.770
19259WAT     H258020   7.623   2.606   1.864
19260WAT      O58021   4.077   8.958   3.724
19260WAT     H158022   3.999   8.897   3.707
19260WAT     H258023   4.096   8.962   3.822
19261WAT      O58024   9.257   6.788   2.053
19261WAT     H158025   9.353   6.783   2.083
19261WAT     H258026   9.211   6.861   2.103
19262WAT      O58027   5.901   7.222   1.707
19262WAT     H158028   5.848   7.138   1.717
19262WAT     H258029   5.982   7.217   1.766
19263WAT      O58030   1.236   5.985   6.516
19263WAT     H158031   1.152   6.036   6.537
19263WAT     H258032   1.294   5.983   6.598
19264WAT      O58033   2.457   7.376   2.610
19264WAT     H158034   2.412   7.327   2.685
19264WAT     H258035   2.540   7.326   2.583
19265WAT      O58036   8.694   2.300   4.649
19265WAT     H158037   8.725   2.205   4.642
19265WAT     H258038   8.704   2.332   4.743
19266WAT      O58039   2.267   6.045   2.992
19266WAT     H158040   2.309   6.024   2.905
19266WAT     H258041   2.299   5.981   3.062
19267WAT      O58042   3.476   8.031   8.075
19267WAT     H158043   3.569   8.040   8.040
19267WAT     H258044   3.469   7.945   8.127
19268WAT      O58045   8.892   1.756   1.326
19268WAT     H158046   8.800   1.764   1.365
19268WAT     H258047   8.951   1.828   1.364
19269WAT      O58048   0.418   4.316   4.472
19269WAT     H158049   0.512   4.317   4.438
19269WAT     H258050   0.413   4.261   4.555
19270WAT      O58051   4.628   1.328   6.765
19270WAT     H158052   4.594   1.299   6.854
19270WAT     H258053   4.582   1.413   6.738
19271WAT      O58054   1.442   2.811   7.317
19271WAT     H158055   1.517   2.815   7.252
19271WAT     H258056   1.413   2.717   7.329
19272WAT      O58057   7.919   2.558   3.612
19272WAT     H158058   7.954   2.607   3.532
19272WAT     H258059   7.847   2.612   3.655
19273WAT      O58060   0.659   7.514   4.953
19273WAT     H158061   0.618   7.548   4.869
19273WAT     H258062   0.587   7.494   5.020
19274WAT      O58063   5.753   7.135   2.160
19274WAT     H158064   5.700   7.055   2.186
19274WAT     H258065   5.841   7.106   2.122
19275WAT      O58066   5.108   7.020   4.174
19275WAT     H158067   5.096   7.116   4.151
19275WAT     H258068   5.020   6.973   4.170
19276WAT      O58069   0.290   2.136   2.336
19276WAT     H158070   0.317   2.084   2.255
19276WAT     H258071   0.365   2.198   2.361
19277WAT      O58072   3.192   9.304   6.611
19277WAT     H158073   3.099   9.280   6.636
19277WAT     H258074   3.236   9.352   6.687
19278WAT      O58075   0.100   0.603   2.578
19278WAT     H158076   0.103   0.533   2.649
19278WAT     H258077   0.015   0.595   2.527
19279WAT      O58078   7.646   4.085   0.330
19279WAT     H158079   7.547   4.077   0.318
19279WAT     H258080   7.689   3.997   0.310
19280WAT      O58081   6.857   1.670   8.366
19280WAT     H158082   6.864   1.758   8.413
19280WAT     H258083   6.869   1.683   8.268
19281WAT      O58084   3.282   2.339   2.800
19281WAT     H158085   3.248   2.406   2.735
19281WAT     H258086   3.210   2.272   2.820
19282WAT      O58087   7.031   0.265   2.391
19282WAT     H158088   7.099   0.337   2.406
19282WAT     H258089   7.055   0.184   2.445
19283WAT      O58090   5.929   8.911   4.048
19283WAT     H158091   5.936   8.991   4.107
19283WAT     H258092   5.977   8.834   4.090
19284WAT      O58093   8.177   6.659   3.756
19284WAT     H158094   8.169   6.662   3.657
19284WAT     H258095   8.248   6.593   3.782
19285WAT      O58096   5.135   2.150   7.016
19285WAT     H158097   5.074   2.074   7.041
19285WAT     H258098   5.194   2.122   6.940
19286WAT      O58099   2.413   4.201   5.935
19286WAT     H158100   2.511   4.181   5.939
19286WAT     H258101   2.376   4.168   5.847
19287WAT      O58102   3.941   5.510   5.185
19287WAT     H158103   3.842   5.510   5.201
19287WAT     H258104   3.959   5.552   5.096
19288WAT      O58105   3.082   4.383   4.105
19288WAT     H158106   3.020   4.372   4.027
19288WAT     H258107   3.142   4.303   4.111
19289WAT      O58108   3.384   1.284   1.147
19289WAT     H158109   3.448   1.317   1.216
19289WAT     H258110   3.325   1.214   1.186
19290WAT      O58111   5.946   9.371   5.257
19290WAT     H158112   5.863   9.355   5.203
19290WAT     H258113   5.928   9.352   5.353
19291WAT      O58114   1.451   1.025   7.603
19291WAT     H158115   1.518   0.999   7.673
19291WAT     H258116   1.359   1.019   7.641
19292WAT      O58117   1.758   4.308   4.134
19292WAT     H158118   1.797   4.400   4.124
19292WAT     H258119   1.832   4.242   4.141
19293WAT      O58120   9.457   0.403   4.126
19293WAT     H158121   9.374   0.348   4.136
19293WAT     H258122   9.537   0.344   4.134
19294WAT      O58123   8.946   4.949   9.741
19294WAT     H158124   8.853   4.918   9.720
19294WAT     H258125   8.994   4.879   9.793
19295WAT      O58126   7.041   1.969   0.122
19295WAT     H158127   7.034   1.881   0.075
19295WAT     H258128   6.973   2.032   0.086
19296WAT      O58129   0.902   4.297   0.287
19296WAT     H158130   0.902   4.382   0.341
19296WAT     H258131   0.857   4.225   0.339
19297WAT      O58132   1.559   3.036   2.627
19297WAT     H158133   1.614   3.117   2.608
19297WAT     H258134   1.615   2.967   2.673
19298WAT      O58135   3.588   8.375   3.496
19298WAT     H158136   3.605   8.281   3.523
19298WAT     H258137   3.668   8.412   3.449
19299WAT      O58138   3.737   0.388   1.845
19299WAT     H158139   3.664   0.367   1.779
19299WAT     H258140   3.771   0.481   1.828
19300WAT      O58141   4.149   0.562   2.120
19300WAT     H158142   4.105   0.500   2.055
19300WAT     H258143   4.079   0.613   2.170
19301WAT      O58144   5.242   7.041   2.525
19301WAT     H158145   5.276   7.093   2.446
19301WAT     H258146   5.252   7.097   2.607
19302WAT      O58147   1.103   5.702   6.251
19302WAT     H158148   1.120   5.798   6.230
19302WAT     H258149   1.112   5.647   6.168
19303WAT      O58150   2.769   6.673   1.296
19303WAT     H158151   2.759   6.586   1.248
19303WAT     H258152   2.847   6.722   1.259
19304WAT      O58153   6.109   8.178   1.604
19304WAT     H158154   6.151   8.259   1.647
19304WAT     H258155   6.176   8.133   1.546
19305WAT      O58156   9.003   6.443   2.094
19305WAT     H158157   9.041   6.497   2.169
19305WAT     H258158   8.991   6.348   2.123
19306WAT      O58159   1.226   7.892   8.393
19306WAT     H158160   1.133   7.928   8.397
19306WAT     H258161   1.243   7.855   8.302
19307WAT      O58162   1.364   5.955   2.690
19307WAT     H158163   1.273   5.963   2.651
19307WAT     H258164   1.418   6.036   2.667
19308WAT      O58165   6.161   9.293   3.650
19308WAT     H158166   6.219   9.295   3.732
19308WAT     H258167   6.110   9.207   3.648
19309WAT      O58168   0.233   5.269   3.364
19309WAT     H158169   0.249   5.208   3.442
19309WAT     H258170   0.147   5.243   3.319
19310WAT      O58171   8.037   1.732   7.337
19310WAT     H158172   7.963   1.705   7.275
19310WAT     H258173   8.124   1.730   7.288
19311WAT      O58174   9.332   3.735   8.197
19311WAT     H158175   9.346   3.819   8.250
19311WAT     H258176   9.283   3.758   8.113
19312WAT      O58177   9.778   0.503   5.172
19312WAT     H158178   9.761   0.601   5.157
19312WAT     H258179   9.848   0.472   5.109
19313WAT      O58180   7.969   0.282   4.502
19313WAT     H158181   8.018   0.247   4.582
19313WAT     H258182   7.913   0.360   4.529
19314WAT      O58183   4.816   8.200   4.162
19314WAT     H158184   4.805   8.131   4.090
19314WAT     H258185   4.732   8.254   4.169
19315WAT      O58186   7.287   4.635   6.105
19315WAT     H158187   7.368   4.637   6.047
19315WAT     H258188   7.300   4.569   6.178
19316WAT      O58189   8.794   5.478   5.563
19316WAT     H158190   8.752   5.402   5.612
19316WAT     H258191   8.750   5.564   5.591
19317WAT      O58192   6.381   0.491   4.687
19317WAT     H158193   6.397   0.452   4.597
19317WAT     H258194   6.385   0.591   4.682
19318WAT      O58195   6.657   7.622   2.036
19318WAT     H158196   6.725   7.570   1.983
19318WAT     H258197   6.675   7.720   2.025
19319WAT      O58198   0.495   8.293   1.704
19319WAT     H158199   0.508   8.349   1.786
19319WAT     H258200   0.547   8.332   1.628
19320WAT      O58201   8.147   5.232   9.705
19320WAT     H158202   8.123   5.300   9.775
19320WAT     H258203   8.222   5.175   9.740
19321WAT      O58204   8.398   4.643   3.821
19321WAT     H158205   8.415   4.547   3.843
19321WAT     H258206   8.374   4.692   3.905
19322WAT      O58207   6.085   0.496   4.154
19322WAT     H158208   6.151   0.420   4.149
19322WAT     H258209   6.007   0.468   4.209
19323WAT      O58210   3.342   9.830   4.573
19323WAT     H158211   3.274   9.854   4.643
19323WAT     H258212   3.434   9.842   4.610
19324WAT      O58213   7.801   0.915   1.566
19324WAT     H158214   7.899   0.917   1.548
19324WAT     H258215   7.772   1.001   1.606
19325WAT      O58216   8.825   1.008   8.052
19325WAT     H158217   8.814   1.095   8.004
19325WAT     H258218   8.914   1.006   8.097
19326WAT      O58219   4.436   8.625   0.309
19326WAT     H158220   4.534   8.612   0.290
19326WAT     H258221   4.384   8.610   0.225
19327WAT      O58222   4.934   0.323   6.684
19327WAT     H158223   4.906   0.368   6.769
19327WAT     H258224   4.941   0.225   6.699
19328WAT      O58225   5.809   1.796   1.980
19328WAT     H158226   5.783   1.833   2.069
19328WAT     H258227   5.739   1.819   1.913
19329WAT      O58228   6.592   9.235   7.646
19329WAT     H158229   6.603   9.178   7.728
19329WAT     H258230   6.578   9.330   7.672
19330WAT      O58231   5.194   7.217   6.200
19330WAT     H158232   5.215   7.172   6.287
19330WAT     H258233   5.107   7.264   6.207
19331WAT      O58234   8.033   9.767   5.584
19331WAT     H158235   8.117   9.782   5.636
19331WAT     H258236   7.976   9.849   5.588
19332WAT      O58237   9.563   8.901   5.628
19332WAT     H158238   9.661   8.908   5.644
19332WAT     H258239   9.520   8.989   5.646
19333WAT      O58240   6.668   1.812   8.752
19333WAT     H158241   6.761   1.848   8.762
19333WAT     H258242   6.612   1.879   8.703
19334WAT      O58243   3.832   3.994   7.212
19334WAT     H158244   3.775   4.031   7.285
19334WAT     H258245   3.782   3.922   7.164
19335WAT      O58246   0.095   9.719   4.202
19335WAT     H158247   0.017   9.725   4.139
19335WAT     H258248   0.124   9.811   4.229
19336WAT      O58249   5.877   7.989   4.816
19336WAT     H158250   5.825   7.990   4.901
19336WAT     H258251   5.877   8.081   4.776
19337WAT      O58252   5.679   6.868   8.229
19337WAT     H158253   5.770   6.843   8.197
19337WAT     H258254   5.619   6.882   8.151
19338WAT      O58255   5.268   7.629   4.036
19338WAT     H158256   5.190   7.634   3.974
19338WAT     H258257   5.238   7.654   4.128
19339WAT      O58258   8.159   8.049   9.826
19339WAT     H158259   8.178   7.964   9.777
19339WAT     H258260   8.145   8.123   9.760
19340WAT      O58261   3.137   5.101   3.732
19340WAT     H158262   3.165   5.187   3.689
19340WAT     H258263   3.218   5.057   3.773
19341WAT      O58264   2.213   8.977   0.045
19341WAT     H158265   2.189   9.065   0.004
19341WAT     H258266   2.137   8.913   0.033
19342WAT      O58267   2.041   2.339   6.486
19342WAT     H158268   1.996   2.273   6.547
19342WAT     H258269   1.977   2.366   6.415
19343WAT      O58270   0.475   1.647   6.912
19343WAT     H158271   0.570   1.676   6.921
19343WAT     H258272   0.442   1.669   6.820
19344WAT      O58273   8.259   8.310   7.929
19344WAT     H158274   8.279   8.214   7.951
19344WAT     H258275   8.166   8.331   7.958
19345WAT      O58276   8.628   6.050   1.500
19345WAT     H158277   8.577   6.102   1.432
19345WAT     H258278   8.666   6.112   1.568
19346WAT      O58279   7.723   8.533   5.016
19346WAT     H158280   7.822   8.534   5.001
19346WAT     H258281   7.694   8.623   5.047
19347WAT      O58282   8.244   9.640   8.853
19347WAT     H158283   8.264   9.702   8.929
19347WAT     H258284   8.327   9.622   8.802
19348WAT      O58285   5.214   2.765   3.059
19348WAT     H158286   5.160   2.721   3.130
19348WAT     H258287   5.174   2.854   3.037
19349WAT      O58288   8.454   0.592   7.953
19349WAT     H158289   8.529   0.657   7.944
19349WAT     H258290   8.398   0.617   8.032
19350WAT      O58291   0.772   3.583   7.432
19350WAT     H158292   0.683   3.540   7.442
19350WAT     H258293   0.838   3.516   7.398
19351WAT      O58294   3.864   3.967   8.976
19351WAT     H158295   3.927   3.926   8.911
19351WAT     H258296   3.907   3.972   9.066
19352WAT      O58297   1.550   6.441   1.500
19352WAT     H158298   1.586   6.410   1.588
19352WAT     H258299   1.453   6.416   1.494
19353WAT      O58300   2.579   8.400   1.303
19353WAT     H158301   2.655   8.415   1.239
19353WAT     H258302   2.558   8.485   1.351
19354WAT      O58303   0.884   6.277   9.049
19354WAT     H158304   0.873   6.181   9.022
19354WAT     H258305   0.837   6.335   8.983
19355WAT      O58306   6.554   2.194   5.906
19355WAT     H158307   6.475   2.138   5.880
19355WAT     H258308   6.610   2.213   5.826
19356WAT      O58309   4.878   2.263   6.378
19356WAT     H158310   4.973   2.244   6.356
19356WAT     H258311   4.827   2.178   6.384
19357WAT      O58312   1.817   5.846   0.904
19357WAT     H158313   1.816   5.748   0.886
19357WAT     H258314   1.794   5.896   0.821
19358WAT      O58315   7.132   0.854   6.936
19358WAT     H158316   7.196   0.781   6.957
19358WAT     H258317   7.097   0.844   6.843
19359WAT      O58318   0.277   5.034   7.859
19359WAT     H158319   0.282   5.102   7.932
19359WAT     H258320   0.307   5.075   7.773
19360WAT      O58321   8.241   6.955   1.425
19360WAT     H158322   8.154   6.933   1.470
19360WAT     H258323   8.244   6.911   1.335
19361WAT      O58324   7.069   0.126   1.842
19361WAT     H158325   7.028   0.196   1.784
19361WAT     H258326   7.004   0.101   1.915
19362WAT      O58327   5.110   3.805   5.022
19362WAT     H158328   5.064   3.717   5.012
19362WAT     H258329   5.047   3.878   4.996
19363WAT      O58330   7.477   7.573   1.608
19363WAT     H158331   7.524   7.637   1.669
19363WAT     H258332   7.535   7.552   1.530
19364WAT      O58333   2.748   8.998   8.325
19364WAT     H158334   2.795   8.919   8.286
19364WAT     H258335   2.670   9.023   8.267
19365WAT      O58336   4.065   3.443   4.880
19365WAT     H158337   4.072   3.421   4.978
19365WAT     H258338   3.977   3.486   4.862
19366WAT      O58339   8.471   0.640   0.027
19366WAT     H158340   8.511   0.702  -0.040
19366WAT     H258341   8.423   0.567  -0.021
19367WAT      O58342   0.798   3.253   9.465
19367WAT     H158343   0.813   3.339   9.415
19367WAT     H258344   0.707   3.256   9.507
19368WAT      O58345   7.092   7.251   4.861
19368WAT     H158346   7.148   7.283   4.937
19368WAT     H258347   7.130   7.286   4.775
19369WAT      O58348   6.203   9.632   4.795
19369WAT     H158349   6.120   9.626   4.740
19369WAT     H258350   6.222   9.544   4.837
19370WAT      O58351   6.590   0.331   1.882
19370WAT     H158352   6.624   0.261   1.819
19370WAT     H258353   6.652   0.337   1.960
19371WAT      O58354   4.479   7.942   0.346
19371WAT     H158355   4.424   7.962   0.427
19371WAT     H258356   4.575   7.936   0.371
19372WAT      O58357   3.200   2.220   2.298
19372WAT     H158358   3.156   2.142   2.253
19372WAT     H258359   3.270   2.259   2.237
19373WAT      O58360   6.874   3.724   4.981
19373WAT     H158361   6.803   3.757   5.044
19373WAT     H258362   6.922   3.802   4.941
19374WAT      O58363   0.021   3.432   5.818
19374WAT     H158364   0.099   3.494   5.810
19374WAT     H258365  -0.002   3.396   5.728
19375WAT      O58366   2.999   9.330   2.757
19375WAT     H158367   2.958   9.303   2.844
19375WAT     H258368   2.933   9.382   2.704
19376WAT      O58369   5.207   9.189   4.439
19376WAT     H158370   5.194   9.160   4.534
19376WAT     H258371   5.295   9.156   4.405
19377WAT      O58372   6.489   7.094   8.857
19377WAT     H158373   6.492   7.001   8.894
19377WAT     H258374   6.451   7.092   8.765
19378WAT      O58375   7.874   3.647   0.830
19378WAT     H158376   7.882   3.593   0.747
19378WAT     H258377   7.965   3.676   0.861
19379WAT      O58378   7.106   4.556   5.886
19379WAT     H158379   7.197   4.565   5.927
19379WAT     H258380   7.037   4.571   5.957
19380WAT      O58381   0.643   4.925   9.771
19380WAT     H158382   0.702   4.846   9.753
19380WAT     H258383   0.655   4.993   9.698
19381WAT      O58384   4.002   0.779   1.342
19381WAT     H158385   4.026   0.682   1.339
19381WAT     H258386   3.952   0.803   1.259
19382WAT      O58387   3.852   0.191   0.295
19382WAT     H158388   3.944   0.208   0.261
19382WAT     H258389   3.854   0.184   0.395
19383WAT      O58390   5.748   2.862   2.978
19383WAT     H158391   5.747   2.765   2.956
19383WAT     H258392   5.676   2.909   2.926
19384WAT      O58393   1.805   1.259   9.381
19384WAT     H158394   1.756   1.172   9.385
19384WAT     H258395   1.903   1.241   9.373
19385WAT      O58396   3.272   6.154   0.562
19385WAT     H158397   3.287   6.064   0.602
19385WAT     H258398   3.226   6.144   0.474
19386WAT      O58399   9.510   3.269   1.941
19386WAT     H158400   9.443   3.343   1.952
19386WAT     H258401   9.470   3.183   1.972
19387WAT      O58402   4.410   7.048   4.212
19387WAT     H158403   4.320   7.007   4.229
19387WAT     H258404   4.450   7.078   4.298
19388WAT      O58405   5.163   8.803   9.435
19388WAT     H158406   5.122   8.830   9.348
19388WAT     H258407   5.259   8.832   9.436
19389WAT      O58408   1.374   0.629   6.612
19389WAT     H158409   1.466   0.594   6.596
19389WAT     H258410   1.324   0.632   6.525
19390WAT      O58411   6.484   4.594   1.607
19390WAT     H158412   6.568   4.541   1.618
19390WAT     H258413   6.427   4.552   1.536
19391WAT      O58414   3.976   2.129   7.154
19391WAT     H158415   3.944   2.056   7.093
19391WAT     H258416   3.912   2.140   7.230
19392WAT      O58417   3.760   8.645   6.245
19392WAT     H158418   3.661   8.659   6.241
19392WAT     H258419   3.806   8.734   6.247
19393WAT      O58420   8.941   9.147   7.774
19393WAT     H158421   9.037   9.123   7.784
19393WAT     H258422   8.888   9.064   7.756
19394WAT      O58423   0.660   1.121   2.375
19394WAT     H158424   0.693   1.215   2.387
19394WAT     H258425   0.713   1.077   2.302
19395WAT      O58426   9.131   7.378   6.284
19395WAT     H158427   9.045   7.419   6.254
19395WAT     H258428   9.137   7.381   6.383
19396WAT      O58429   7.508   6.306   5.808
19396WAT     H158430   7.552   6.357   5.734
19396WAT     H258431   7.414   6.285   5.781
19397WAT      O58432   0.046   0.426   6.917
19397WAT     H158433   0.113   0.358   6.887
19397WAT     H258434  -0.024   0.437   6.847
19398WAT      O58435   6.530   4.970   8.186
19398WAT     H158436   6.605   4.944   8.247
19398WAT     H258437   6.560   5.044   8.127
19399WAT      O58438   3.636   1.132   7.684
19399WAT     H158439   3.630   1.033   7.675
19399WAT     H258440   3.640   1.174   7.594
19400WAT      O58441   6.307   1.378   8.592
19400WAT     H158442   6.219   1.384   8.544
19400WAT     H258443   6.307   1.298   8.652
19401WAT      O58444   3.527   9.209   5.867
19401WAT     H158445   3.572   9.268   5.933
19401WAT     H258446   3.463   9.262   5.811
19402WAT      O58447   5.543   8.828   1.901
19402WAT     H158448   5.614   8.850   1.834
19402WAT     H258449   5.547   8.730   1.923
19403WAT      O58450   0.722   4.019   1.183
19403WAT     H158451   0.790   4.058   1.121
19403WAT     H258452   0.757   3.934   1.222
19404WAT      O58453   5.348   6.054   6.170
19404WAT     H158454   5.365   5.957   6.155
19404WAT     H258455   5.317   6.069   6.264
19405WAT      O58456   7.943   1.926   2.692
19405WAT     H158457   7.849   1.892   2.692
19405WAT     H258458   7.971   1.948   2.599
19406WAT      O58459   2.073   2.476   1.067
19406WAT     H158460   2.060   2.434   0.978
19406WAT     H258461   2.153   2.535   1.065
19407WAT      O58462   5.503   2.450   1.353
19407WAT     H158463   5.441   2.435   1.275
19407WAT     H258464   5.590   2.487   1.320
19408WAT      O58465   7.590   5.906   0.325
19408WAT     H158466   7.571   5.989   0.378
19408WAT     H258467   7.503   5.860   0.304
19409WAT      O58468   6.943   4.763   9.568
19409WAT     H158469   7.024   4.721   9.528
19409WAT     H258470   6.862   4.711   9.542
19410WAT      O58471   7.520   1.960   1.559
19410WAT     H158472   7.565   1.870   1.561
19410WAT     H258473   7.463   1.970   1.640
19411WAT      O58474   0.495   0.465   1.670
19411WAT     H158475   0.488   0.366   1.683
19411WAT     H258476   0.525   0.508   1.755
19412WAT      O58477   6.671   7.316   3.414
19412WAT     H158478   6.606   7.314   3.338
19412WAT     H258479   6.642   7.384   3.482
19413WAT      O58480   7.822   1.379   3.420
19413WAT     H158481   7.807   1.474   3.446
19413WAT     H258482   7.917   1.367   3.391
19414WAT      O58483   7.805   7.860   7.023
19414WAT     H158484   7.790   7.763   7.042
19414WAT     H258485   7.720   7.900   6.989
19415WAT      O58486   5.830   8.878   2.121
19415WAT     H158487   5.791   8.802   2.173
19415WAT     H258488   5.852   8.848   2.028
19416WAT      O58489   3.891   3.072   7.657
19416WAT     H158490   3.798   3.107   7.647
19416WAT     H258491   3.895   2.978   7.624
19417WAT      O58492   9.720   2.641   0.917
19417WAT     H158493   9.761   2.654   0.826
19417WAT     H258494   9.764   2.563   0.962
19418WAT      O58495   4.250   5.625   1.278
19418WAT     H158496   4.346   5.630   1.252
19418WAT     H258497   4.242   5.582   1.368
19419WAT      O58498   4.112   0.971   7.240
19419WAT     H158499   4.122   0.874   7.262
19419WAT     H258500   4.065   1.018   7.315
19420WAT      O58501   6.397   8.902   7.863
19420WAT     H158502   6.447   8.816   7.853
19420WAT     H258503   6.448   8.963   7.923
19421WAT      O58504   0.648   3.771   0.557
19421WAT     H158505   0.741   3.761   0.522
19421WAT     H258506   0.623   3.689   0.608
19422WAT      O58507   5.360   5.092   0.068
19422WAT     H158508   5.298   5.105   0.145
19422WAT     H258509   5.309   5.058  -0.011
19423WAT      O58510   0.075   6.623   9.543
19423WAT     H158511   0.039   6.611   9.450
19423WAT     H258512   0.117   6.714   9.550
19424WAT      O58513   5.140   1.940   2.974
19424WAT     H158514   5.113   2.023   3.022
19424WAT     H258515   5.059   1.893   2.939
19425WAT      O58516   9.193   4.508   5.520
19425WAT     H158517   9.225   4.535   5.429
19425WAT     H258518   9.269   4.513   5.584
19426WAT      O58519   7.235   6.775   2.394
19426WAT     H158520   7.236   6.808   2.299
19426WAT     H258521   7.258   6.678   2.396
19427WAT      O58522   4.062   5.946   4.110
19427WAT     H158523   4.142   5.937   4.168
19427WAT     H258524   3.982   5.907   4.156
19428WAT      O58525   4.801   2.874   6.039
19428WAT     H158526   4.872   2.905   6.102
19428WAT     H258527   4.777   2.948   5.976
19429WAT      O58528   6.613   7.037   8.186
19429WAT     H158529   6.557   7.109   8.148
19429WAT     H258530   6.627   7.053   8.284
19430WAT      O58531   5.298   5.473   4.491
19430WAT     H158532   5.252   5.456   4.579
19430WAT     H258533   5.387   5.516   4.508
19431WAT      O58534   0.531   1.952   9.550
19431WAT     H158535   0.488   2.042   9.562
19431WAT     H258536   0.477   1.883   9.598
19432WAT      O58537   3.323   7.914   7.867
19432WAT     H158538   3.362   7.824   7.885
19432WAT     H258539   3.314   7.965   7.952
19433WAT      O58540   2.262   1.305   9.243
19433WAT     H158541   2.309   1.350   9.167
19433WAT     H258542   2.330   1.260   9.302
19434WAT      O58543   0.255   7.802   1.731
19434WAT     H158544   0.216   7.832   1.818
19434WAT     H258545   0.350   7.775   1.745
19435WAT      O58546   3.307   2.029   3.727
19435WAT     H158547   3.288   2.023   3.629
19435WAT     H258548   3.228   2.067   3.774
19436WAT      O58549   9.159   7.002   4.017
19436WAT     H158550   9.249   6.968   4.043
19436WAT     H258551   9.168   7.093   3.976
19437WAT      O58552   2.175   8.576   2.469
19437WAT     H158553   2.079   8.581   2.439
19437WAT     H258554   2.217   8.666   2.462
19438WAT      O58555   4.983   1.349   0.413
19438WAT     H158556   4.998   1.284   0.487
19438WAT     H258557   4.886   1.374   0.409
19439WAT      O58558   5.416   7.781   5.487
19439WAT     H158559   5.413   7.756   5.584
19439WAT     H258560   5.512   7.783   5.457
19440WAT      O58561   8.920   0.664   8.678
19440WAT     H158562   8.866   0.584   8.652
19440WAT     H258563   8.940   0.660   8.776
19441WAT      O58564   5.368   4.098   8.928
19441WAT     H158565   5.368   4.120   9.025
19441WAT     H258566   5.371   4.183   8.874
19442WAT      O58567   4.739   6.186   3.368
19442WAT     H158568   4.667   6.255   3.377
19442WAT     H258569   4.805   6.199   3.442
19443WAT      O58570   1.154   0.517   9.787
19443WAT     H158571   1.063   0.498   9.751
19443WAT     H258572   1.147   0.562   9.876
19444WAT      O58573   8.791   0.372   3.131
19444WAT     H158574   8.783   0.419   3.043
19444WAT     H258575   8.887   0.360   3.153
19445WAT      O58576   8.286   4.057   5.510
19445WAT     H158577   8.204   4.008   5.479
19445WAT     H258578   8.303   4.136   5.450
19446WAT      O58579   6.153   7.153   6.720
19446WAT     H158580   6.246   7.169   6.688
19446WAT     H258581   6.141   7.056   6.742
19447WAT      O58582   4.510   9.795   7.253
19447WAT     H158583   4.518   9.876   7.195
19447WAT     H258584   4.438   9.736   7.218
19448WAT      O58585   0.896   7.183   8.184
19448WAT     H158586   0.826   7.120   8.151
19448WAT     H258587   0.852   7.266   8.220
19449WAT      O58588   0.786   4.566   8.150
19449WAT     H158589   0.764   4.551   8.246
19449WAT     H258590   0.709   4.613   8.106
19450WAT      O58591   4.294   8.991   1.409
19450WAT     H158592   4.379   8.939   1.410
19450WAT     H258593   4.295   9.055   1.332
19451WAT      O58594   7.965   7.681   2.240
19451WAT     H158595   8.006   7.615   2.177
19451WAT     H258596   7.896   7.734   2.192
19452WAT      O58597   8.615   8.846   9.840
19452WAT     H158598   8.668   8.805   9.915
19452WAT     H258599   8.655   8.933   9.814
19453WAT      O58600   7.002   8.710   1.329
19453WAT     H158601   6.988   8.726   1.231
19453WAT     H258602   7.093   8.671   1.344
19454WAT      O58603   3.522   7.769   9.556
19454WAT     H158604   3.556   7.863   9.565
19454WAT     H258605   3.544   7.717   9.638
19455WAT      O58606   3.033   4.467   6.737
19455WAT     H158607   3.025   4.498   6.642
19455WAT     H258608   3.094   4.388   6.740
19456WAT      O58609   8.146   2.575   9.119
19456WAT     H158610   8.242   2.569   9.145
19456WAT     H258611   8.130   2.660   9.068
19457WAT      O58612   6.889   5.193   8.110
19457WAT     H158613   6.825   5.225   8.179
19457WAT     H258614   6.928   5.272   8.062
19458WAT      O58615   7.650   8.321   2.351
19458WAT     H158616   7.705   8.309   2.434
19458WAT     H258617   7.700   8.284   2.272
19459WAT      O58618   2.961   8.869   2.498
19459WAT     H158619   2.928   8.813   2.574
19459WAT     H258620   2.996   8.956   2.533
19460WAT      O58621   8.090   2.161   1.776
19460WAT     H158622   8.151   2.207   1.712
19460WAT     H258623   8.144   2.127   1.854
19461WAT      O58624   3.703   1.194   8.140
19461WAT     H158625   3.664   1.232   8.056
19461WAT     H258626   3.801   1.183   8.129
19462WAT      O58627   5.454   2.625   6.652
19462WAT     H158628   5.452   2.713   6.605
19462WAT     H258629   5.400   2.631   6.736
19463WAT      O58630   9.143   3.088   4.912
19463WAT     H158631   9.151   3.188   4.909
19463WAT     H258632   9.061   3.059   4.863
19464WAT      O58633   0.770   6.026   5.397
19464WAT     H158634   0.845   5.986   5.450
19464WAT     H258635   0.684   6.017   5.448
19465WAT      O58636   7.542   2.850   2.100
19465WAT     H158637   7.549   2.822   2.005
19465WAT     H258638   7.522   2.771   2.157
19466WAT      O58639   7.558   8.488   1.451
19466WAT     H158640   7.594   8.461   1.362
19466WAT     H258641   7.612   8.446   1.523
19467WAT      O58642   4.419   7.706   8.180
19467WAT     H158643   4.359   7.646   8.126
19467WAT     H258644   4.513   7.673   8.173
19468WAT      O58645   0.013   8.991   6.819
19468WAT     H158646   0.099   8.944   6.841
19468WAT     H258647  -0.061   8.924   6.815
19469WAT      O58648   6.978   8.898   3.197
19469WAT     H158649   6.982   8.834   3.120
19469WAT     H258650   7.059   8.957   3.195
19470WAT      O58651   4.409   0.106   9.817
19470WAT     H158652   4.400   0.007   9.829
19470WAT     H258653   4.496   0.126   9.773
19471WAT      O58654   7.892   3.077   2.243
19471WAT     H158655   7.953   3.025   2.304
19471WAT     H258656   7.944   3.149   2.198
19472WAT      O58657   6.861   7.214   8.660
19472WAT     H158658   6.818   7.278   8.596
19472WAT     H258659   6.955   7.242   8.677
19473WAT      O58660   8.096   3.446   9.670
19473WAT     H158661   8.135   3.386   9.740
19473WAT     H258662   8.108   3.541   9.697
19474WAT      O58663   3.354   3.732   0.860
19474WAT     H158664   3.357   3.825   0.824
19474WAT     H258665   3.430   3.718   0.924
19475WAT      O58666   6.348   7.747   0.998
19475WAT     H158667   6.408   7.792   0.932
19475WAT     H258668   6.341   7.650   0.975
19476WAT      O58669   6.215   6.281   1.995
19476WAT     H158670   6.298   6.295   2.049
19476WAT     H258671   6.144   6.242   2.052
19477WAT      O58672   5.810   5.816   2.419
19477WAT     H158673   5.717   5.793   2.389
19477WAT     H258674   5.809   5.906   2.462
19478WAT      O58675   2.115   7.471   5.503
19478WAT     H158676   2.117   7.421   5.590
19478WAT     H258677   2.043   7.434   5.445
19479WAT      O58678   8.723   5.549   6.500
19479WAT     H158679   8.753   5.464   6.544
19479WAT     H258680   8.623   5.550   6.495
19480WAT      O58681   7.723   2.087   7.365
19480WAT     H158682   7.679   1.998   7.379
19480WAT     H258683   7.748   2.097   7.268
19481WAT      O58684   8.990   4.007   5.990
19481WAT     H158685   8.899   4.018   6.029
19481WAT     H258686   9.057   4.057   6.046
19482WAT      O58687   2.519   3.521   9.777
19482WAT     H158688   2.466   3.585   9.833
19482WAT     H258689   2.540   3.439   9.830
19483WAT      O58690   6.060   3.252   9.084
19483WAT     H158691   5.997   3.188   9.128
19483WAT     H258692   6.013   3.339   9.068
19484WAT      O58693   9.343   6.576   5.023
19484WAT     H158694   9.322   6.551   5.117
19484WAT     H258695   9.304   6.508   4.961
19485WAT      O58696   1.009   6.416   7.623
19485WAT     H158697   0.950   6.476   7.569
19485WAT     H258698   1.082   6.380   7.565
19486WAT      O58699   2.069   6.622   7.047
19486WAT     H158700   2.111   6.602   6.959
19486WAT     H258701   1.969   6.625   7.037
19487WAT      O58702   0.271   6.266   3.671
19487WAT     H158703   0.206   6.192   3.690
19487WAT     H258704   0.321   6.289   3.755
19488WAT      O58705   3.165   4.374   3.417
19488WAT     H158706   3.216   4.301   3.373
19488WAT     H258707   3.198   4.387   3.511
19489WAT      O58708   4.001   8.189   2.774
19489WAT     H158709   4.049   8.257   2.719
19489WAT     H258710   3.936   8.139   2.717
19490WAT      O58711   2.850   6.541   3.863
19490WAT     H158712   2.851   6.610   3.935
19490WAT     H258713   2.879   6.453   3.900
19491WAT      O58714   6.830   2.698   5.493
19491WAT     H158715   6.781   2.784   5.487
19491WAT     H258716   6.886   2.685   5.411
19492WAT      O58717   9.118   3.292   2.079
19492WAT     H158718   9.065   3.240   2.013
19492WAT     H258719   9.100   3.258   2.171
19493WAT      O58720   5.575   3.818   9.152
19493WAT     H158721   5.564   3.745   9.219
19493WAT     H258722   5.656   3.872   9.173
19494WAT      O58723   7.356   8.801   7.426
19494WAT     H158724   7.387   8.706   7.424
19494WAT     H258725   7.264   8.808   7.388
19495WAT      O58726   2.783   7.443   3.277
19495WAT     H158727   2.686   7.435   3.254
19495WAT     H258728   2.833   7.479   3.198
19496WAT      O58729   9.779   7.244   1.898
19496WAT     H158730   9.697   7.203   1.937
19496WAT     H258731   9.819   7.182   1.831
19497WAT      O58732   1.416   2.527   7.849
19497WAT     H158733   1.323   2.505   7.877
19497WAT     H258734   1.457   2.448   7.805
19498WAT      O58735   2.284   2.637   0.965
19498WAT     H158736   2.327   2.581   1.036
19498WAT     H258737   2.300   2.595   0.875
19499WAT      O58738   0.795   2.475   4.730
19499WAT     H158739   0.827   2.491   4.637
19499WAT     H258740   0.750   2.558   4.764
19500WAT      O58741   0.008   2.453   2.342
19500WAT     H158742   0.105   2.438   2.320
19500WAT     H258743  -0.049   2.416   2.269
19501WAT      O58744   5.729   1.265   8.635
19501WAT     H158745   5.775   1.320   8.705
19501WAT     H258746   5.760   1.170   8.642
19502WAT      O58747   6.938   0.150   2.089
19502WAT     H158748   6.971   0.178   2.179
19502WAT     H258749   6.884   0.067   2.098
19503WAT      O58750   0.472   7.305   4.808
19503WAT     H158751   0.500   7.251   4.888
19503WAT     H258752   0.443   7.243   4.735
19504WAT      O58753   3.206   1.038   0.604
19504WAT     H158754   3.208   1.129   0.646
19504WAT     H258755   3.141   0.981   0.654
19505WAT      O58756   4.405   6.849   9.178
19505WAT     H158757   4.343   6.774   9.201
19505WAT     H258758   4.400   6.866   9.079
19506WAT      O58759   7.534   9.392   9.522
19506WAT     H158760   7.510   9.410   9.618
19506WAT     H258761   7.606   9.323   9.518
19507WAT      O58762   4.764   0.210   7.554
19507WAT     H158763   4.729   0.304   7.557
19507WAT     H258764   4.743   0.163   7.639
19508WAT      O58765   5.776   6.016   8.392
19508WAT     H158766   5.837   6.095   8.393
19508WAT     H258767   5.826   5.935   8.361
19509WAT      O58768   7.805   8.808   7.095
19509WAT     H158769   7.886   8.860   7.120
19509WAT     H258770   7.733   8.870   7.064
19510WAT      O58771   1.699   8.206   2.439
19510WAT     H158772   1.751   8.256   2.508
19510WAT     H258773   1.751   8.125   2.411
19511WAT      O58774   8.031   4.795   1.684
19511WAT     H158775   8.009   4.876   1.738
19511WAT     H258776   7.991   4.804   1.593
19512WAT      O58777   7.679   7.632   1.789
19512WAT     H158778   7.726   7.560   1.840
19512WAT     H258779   7.719   7.639   1.698
19513WAT      O58780   2.521   3.205   0.273
19513WAT     H158781   2.477   3.121   0.302
19513WAT     H258782   2.475   3.283   0.314
19514WAT      O58783   8.287   1.248   6.610
19514WAT     H158784   8.223   1.263   6.535
19514WAT     H258785   8.354   1.179   6.583
19515WAT      O58786   4.962   3.603   3.582
19515WAT     H158787   4.869   3.601   3.546
19515WAT     H258788   4.968   3.669   3.657
19516WAT      O58789   6.444   4.995   1.857
19516WAT     H158790   6.449   4.919   1.922
19516WAT     H258791   6.486   4.967   1.770
19517WAT      O58792   5.598   4.865   2.569
19517WAT     H158793   5.631   4.951   2.532
19517WAT     H258794   5.602   4.867   2.669
19518WAT      O58795   2.343   9.797   8.836
19518WAT     H158796   2.400   9.857   8.892
19518WAT     H258797   2.316   9.717   8.890
19519WAT      O58798   7.395   5.143   3.586
19519WAT     H158799   7.373   5.162   3.682
19519WAT     H258800   7.434   5.225   3.545
19520WAT      O58801   2.119   3.961   1.663
19520WAT     H158802   2.150   4.056   1.659
19520WAT     H258803   2.019   3.958   1.670
19521WAT      O58804   4.989   4.818   6.889
19521WAT     H158805   4.940   4.892   6.935
19521WAT     H258806   4.925   4.745   6.867
19522WAT      O58807   8.030   5.615   9.669
19522WAT     H158808   7.952   5.661   9.625
19522WAT     H258809   8.096   5.683   9.699
19523WAT      O58810   6.656   9.507   7.722
19523WAT     H158811   6.675   9.489   7.626
19523WAT     H258812   6.692   9.597   7.747
19524WAT      O58813   5.339   9.101   7.229
19524WAT     H158814   5.294   9.081   7.316
19524WAT     H258815   5.370   9.015   7.187
19525WAT      O58816   3.960   1.931   0.099
19525WAT     H158817   4.025   1.884   0.158
19525WAT     H258818   3.996   2.021   0.074
19526WAT      O58819   4.620   6.027   7.671
19526WAT     H158820   4.588   5.958   7.606
19526WAT     H258821   4.668   6.099   7.622
19527WAT      O58822   1.088   7.760   2.985
19527WAT     H158823   1.074   7.673   3.033
19527WAT     H258824   1.166   7.808   3.024
19528WAT      O58825   3.136   3.798   7.815
19528WAT     H158826   3.181   3.730   7.756
19528WAT     H258827   3.117   3.881   7.762
19529WAT      O58828   0.447   7.318   0.136
19529WAT     H158829   0.468   7.235   0.085
19529WAT     H258830   0.361   7.306   0.186
19530WAT      O58831   1.885   9.702   0.207
19530WAT     H158832   1.843   9.749   0.129
19530WAT     H258833   1.858   9.746   0.292
19531WAT      O58834   9.292   6.225   7.440
19531WAT     H158835   9.242   6.236   7.526
19531WAT     H258836   9.336   6.312   7.416
19532WAT      O58837   3.822   8.181   9.235
19532WAT     H158838   3.783   8.274   9.235
19532WAT     H258839   3.911   8.182   9.280
19533WAT      O58840   6.365   7.786   6.464
19533WAT     H158841   6.397   7.821   6.376
19533WAT     H258842   6.367   7.686   6.463
19534WAT      O58843   5.787   5.406   7.499
19534WAT     H158844   5.707   5.466   7.500
19534WAT     H258845   5.859   5.446   7.555
19535WAT      O58846   3.735   6.962   6.008
19535WAT     H158847   3.832   6.940   6.024
19535WAT     H258848   3.709   7.039   6.066
19536WAT      O58849   3.778   3.765   7.105
19536WAT     H158850   3.868   3.721   7.106
19536WAT     H258851   3.707   3.697   7.127
19537WAT      O58852   1.826   6.467   5.576
19537WAT     H158853   1.907   6.502   5.622
19537WAT     H258854   1.833   6.485   5.477
19538WAT      O58855   4.430   4.283   1.881
19538WAT     H158856   4.363   4.357   1.877
19538WAT     H258857   4.513   4.312   1.834
19539WAT      O58858   7.989   0.274   6.498
19539WAT     H158859   7.928   0.353   6.495
19539WAT     H258860   7.986   0.227   6.409
19540WAT      O58861   4.514   3.144   5.254
19540WAT     H158862   4.502   3.053   5.293
19540WAT     H258863   4.439   3.163   5.191
19541WAT      O58864   0.424   2.865   0.127
19541WAT     H158865   0.388   2.898   0.214
19541WAT     H258866   0.392   2.772   0.110
19542WAT      O58867   1.949   2.595   8.536
19542WAT     H158868   2.013   2.567   8.608
19542WAT     H258869   1.987   2.570   8.447
19543WAT      O58870   3.166   2.830   1.722
19543WAT     H158871   3.094   2.822   1.654
19543WAT     H258872   3.210   2.919   1.714
19544WAT      O58873   9.039   9.027   1.473
19544WAT     H158874   9.061   9.040   1.569
19544WAT     H258875   9.039   8.930   1.451
19545WAT      O58876   6.268   8.919   6.457
19545WAT     H158877   6.339   8.974   6.502
19545WAT     H258878   6.265   8.943   6.360
19546WAT      O58879   5.460   8.240   0.041
19546WAT     H158880   5.478   8.260  -0.056
19546WAT     H258881   5.427   8.146   0.050
19547WAT      O58882   4.736   6.247   2.777
19547WAT     H158883   4.767   6.336   2.810
19547WAT     H258884   4.800   6.177   2.806
19548WAT      O58885   1.766   9.204   1.843
19548WAT     H158886   1.801   9.128   1.789
19548WAT     H258887   1.842   9.261   1.875
19549WAT      O58888   1.723   0.463   4.455
19549WAT     H158889   1.799   0.411   4.416
19549WAT     H258890   1.673   0.510   4.383
19550WAT      O58891   9.307   8.534   7.571
19550WAT     H158892   9.390   8.539   7.625
19550WAT     H258893   9.235   8.588   7.615
19551WAT      O58894   3.773   0.233   5.970
19551WAT     H158895   3.677   0.260   5.973
19551WAT     H258896   3.792   0.168   6.043
19552WAT      O58897   6.827   1.134   1.679
19552WAT     H158898   6.796   1.170   1.767
19552WAT     H258899   6.800   1.038   1.671
19553WAT      O58900   1.710   9.713   1.300
19553WAT     H158901   1.707   9.811   1.323
19553WAT     H258902   1.805   9.683   1.297
19554WAT      O58903   5.886   1.546   1.918
19554WAT     H158904   5.924   1.524   1.828
19554WAT     H258905   5.879   1.645   1.928
19555WAT      O58906   5.033   6.237   8.130
19555WAT     H158907   5.007   6.297   8.205
19555WAT     H258908   4.954   6.221   8.071
19556WAT      O58909   2.965   9.410   8.914
19556WAT     H158910   2.890   9.399   8.849
19556WAT     H258911   3.045   9.361   8.881
19557WAT      O58912   0.818   0.926   2.594
19557WAT     H158913   0.859   0.841   2.625
19557WAT     H258914   0.889   0.995   2.580
19558WAT      O58915   4.493   8.659   5.320
19558WAT     H158916   4.452   8.625   5.235
19558WAT     H258917   4.549   8.739   5.300
19559WAT      O58918   2.276   1.683   8.786
19559WAT     H158919   2.254   1.692   8.689
19559WAT     H258920   2.239   1.597   8.821
19560WAT      O58921   7.947   3.524   1.543
19560WAT     H158922   7.904   3.498   1.457
19560WAT     H258923   7.969   3.622   1.541
19561WAT      O58924   9.286   7.604   8.790
19561WAT     H158925   9.336   7.521   8.813
19561WAT     H258926   9.223   7.627   8.864
19562WAT      O58927   4.707   6.584   4.521
19562WAT     H158928   4.711   6.672   4.474
19562WAT     H258929   4.615   6.571   4.559
19563WAT      O58930   3.419   2.099   6.124
19563WAT     H158931   3.411   2.180   6.182
19563WAT     H258932   3.503   2.106   6.069
19564WAT      O58933   7.205   8.567   1.032
19564WAT     H158934   7.181   8.511   0.952
19564WAT     H258935   7.259   8.646   1.003
19565WAT      O58936   0.003   8.133   5.670
19565WAT     H158937   0.090   8.094   5.640
19565WAT     H258938  -0.071   8.068   5.653
19566WAT      O58939   5.171   9.127   6.993
19566WAT     H158940   5.230   9.144   7.072
19566WAT     H258941   5.153   9.213   6.946
19567WAT      O58942   3.384   6.171   8.515
19567WAT     H158943   3.330   6.118   8.581
19567WAT     H258944   3.448   6.230   8.565
19568WAT      O58945   1.566   2.751   9.659
19568WAT     H158946   1.475   2.788   9.641
19568WAT     H258947   1.591   2.769   9.755
19569WAT      O58948   9.642   4.507   6.646
19569WAT     H158949   9.627   4.416   6.609
19569WAT     H258950   9.575   4.570   6.607
19570WAT      O58951   4.585   3.805   0.671
19570WAT     H158952   4.585   3.905   0.681
19570WAT     H258953   4.551   3.781   0.580
19571WAT      O58954   4.219   0.683   1.572
19571WAT     H158955   4.147   0.640   1.517
19571WAT     H258956   4.176   0.736   1.646
19572WAT      O58957   0.189   4.153   9.009
19572WAT     H158958   0.158   4.088   8.940
19572WAT     H258959   0.114   4.214   9.034
19573WAT      O58960   5.621   8.863   1.474
19573WAT     H158961   5.602   8.778   1.426
19573WAT     H258962   5.536   8.899   1.512
19574WAT      O58963   4.124   7.197   1.581
19574WAT     H158964   4.194   7.129   1.557
19574WAT     H258965   4.074   7.222   1.498
19575WAT      O58966   4.168   6.791   1.411
19575WAT     H158967   4.156   6.789   1.312
19575WAT     H258968   4.103   6.727   1.454
19576WAT      O58969   6.926   5.774   7.136
19576WAT     H158970   6.869   5.792   7.055
19576WAT     H258971   6.876   5.714   7.198
19577WAT      O58972   9.126   9.121   4.119
19577WAT     H158973   9.122   9.217   4.089
19577WAT     H258974   9.099   9.061   4.044
19578WAT      O58975   4.976   9.165   2.037
19578WAT     H158976   5.057   9.218   2.059
19578WAT     H258977   4.998   9.096   1.968
19579WAT      O58978   9.560   4.069   4.677
19579WAT     H158979   9.484   4.114   4.723
19579WAT     H258980   9.634   4.053   4.742
19580WAT      O58981   0.169   9.057   4.946
19580WAT     H158982   0.154   9.025   5.039
19580WAT     H258983   0.085   9.099   4.911
19581WAT      O58984   0.382   5.483   8.576
19581WAT     H158985   0.408   5.456   8.483
19581WAT     H258986   0.344   5.575   8.575
19582WAT      O58987   3.645   2.771   5.341
19582WAT     H158988   3.678   2.865   5.337
19582WAT     H258989   3.670   2.723   5.257
19583WAT      O58990   4.767   8.662   3.646
19583WAT     H158991   4.686   8.722   3.648
19583WAT     H258992   4.837   8.703   3.587
19584WAT      O58993   9.718   5.364   7.165
19584WAT     H158994   9.790   5.428   7.138
19584WAT     H258995   9.751   5.270   7.155
19585WAT      O58996   4.234   8.514   5.463
19585WAT     H158997   4.171   8.471   5.527
19585WAT     H258998   4.314   8.456   5.451
19586WAT      O58999   0.238   5.127   8.672
19586WAT     H159000   0.297   5.197   8.714
19586WAT     H259001   0.285   5.087   8.594
19587WAT      O59002   6.054   8.025   0.895
19587WAT     H159003   6.004   8.106   0.926
19587WAT     H259004   5.993   7.946   0.894
19588WAT      O59005   9.065   1.495   6.453
19588WAT     H159006   9.022   1.572   6.407
19588WAT     H259007   9.044   1.498   6.551
19589WAT      O59008   1.347   4.746   9.087
19589WAT     H159009   1.429   4.694   9.061
19589WAT     H259010   1.347   4.834   9.040
19590WAT      O59011   9.540   3.313   9.766
19590WAT     H159012   9.443   3.322   9.790
19590WAT     H259013   9.591   3.391   9.803
19591WAT      O59014   9.447   3.957   1.290
19591WAT     H159015   9.517   3.944   1.220
19591WAT     H259016   9.453   4.049   1.328
19592WAT      O59017   0.130   2.886   7.906
19592WAT     H159018   0.166   2.838   7.826
19592WAT     H259019   0.162   2.842   7.990
19593WAT      O59020   9.872   5.657   3.562
19593WAT     H159021   9.831   5.707   3.486
19593WAT     H259022   9.971   5.670   3.561
19594WAT      O59023   6.487   6.614   8.756
19594WAT     H159024   6.521   6.675   8.828
19594WAT     H259025   6.564   6.567   8.714
19595WAT      O59026   2.464   7.625   2.007
19595WAT     H159027   2.511   7.622   1.918
19595WAT     H259028   2.532   7.627   2.080
19596WAT      O59029   0.177   8.377   8.207
19596WAT     H159030   0.089   8.374   8.254
19596WAT     H259031   0.232   8.298   8.235
19597WAT      O59032   4.379   1.420   1.239
19597WAT     H159033   4.429   1.337   1.214
19597WAT     H259034   4.424   1.499   1.198
19598WAT      O59035   4.538   1.937   2.809
19598WAT     H159036   4.455   1.966   2.763
19598WAT     H259037   4.561   2.002   2.881
19599WAT      O59038   9.593   9.637   1.616
19599WAT     H159039   9.585   9.732   1.583
19599WAT     H259040   9.630   9.638   1.709
19600WAT      O59041   9.512   3.292   0.845
19600WAT     H159042   9.505   3.320   0.941
19600WAT     H259043   9.423   3.262   0.812
19601WAT      O59044   4.375   0.146   4.833
19601WAT     H159045   4.361   0.144   4.932
19601WAT     H259046   4.413   0.235   4.807
19602WAT      O59047   9.387   8.712   5.122
19602WAT     H159048   9.344   8.682   5.037
19602WAT     H259049   9.328   8.689   5.199
19603WAT      O59050   5.358   7.890   2.655
19603WAT     H159051   5.308   7.970   2.688
19603WAT     H259052   5.432   7.919   2.595
19604WAT      O59053   4.154   6.045   7.443
19604WAT     H159054   4.169   5.954   7.480
19604WAT     H259055   4.137   6.109   7.519
19605WAT      O59056   9.269   0.590   6.559
19605WAT     H159057   9.305   0.681   6.581
19605WAT     H259058   9.183   0.576   6.608
19606WAT      O59059   3.071   6.487   9.451
19606WAT     H159060   3.044   6.451   9.362
19606WAT     H259061   3.000   6.465   9.518
19607WAT      O59062   7.688   3.112   5.462
19607WAT     H159063   7.707   3.102   5.560
19607WAT     H259064   7.707   3.206   5.434
19608WAT      O59065   5.439   0.944   1.959
19608WAT     H159066   5.538   0.944   1.964
19608WAT     H259067   5.409   0.911   1.869
19609WAT      O59068   3.645   3.176   7.635
19609WAT     H159069   3.562   3.122   7.625
19609WAT     H259070   3.646   3.249   7.566
19610WAT      O59071   3.508   6.625   6.269
19610WAT     H159072   3.469   6.696   6.327
19610WAT     H259073   3.516   6.659   6.175
19611WAT      O59074   6.268   1.095   4.679
19611WAT     H159075   6.210   1.057   4.607
19611WAT     H259076   6.303   1.021   4.736
19612WAT      O59077   1.364   7.660   7.811
19612WAT     H159078   1.387   7.565   7.786
19612WAT     H259079   1.301   7.697   7.744
19613WAT      O59080   3.796   4.633   7.680
19613WAT     H159081   3.840   4.636   7.770
19613WAT     H259082   3.714   4.690   7.681
19614WAT      O59083  -0.003   3.385   9.756
19614WAT     H159084   0.031   3.445   9.683
19614WAT     H259085   0.042   3.296   9.750
19615WAT      O59086   6.403   8.293   5.576
19615WAT     H159087   6.426   8.249   5.489
19615WAT     H259088   6.479   8.280   5.640
19616WAT      O59089   0.375   5.708   8.277
19616WAT     H159090   0.330   5.619   8.266
19616WAT     H259091   0.470   5.701   8.247
19617WAT      O59092   9.587   3.904   5.490
19617WAT     H159093   9.666   3.965   5.493
19617WAT     H259094   9.574   3.870   5.397
19618WAT      O59095   8.614   4.028   2.542
19618WAT     H159096   8.566   4.065   2.463
19618WAT     H259097   8.562   3.951   2.579
19619WAT      O59098   3.656   9.588   0.365
19619WAT     H159099   3.684   9.604   0.460
19619WAT     H259100   3.682   9.495   0.338
19620WAT      O59101   0.798   3.823   8.181
19620WAT     H159102   0.812   3.740   8.127
19620WAT     H259103   0.719   3.811   8.241
19621WAT      O59104   7.627   9.185   6.409
19621WAT     H159105   7.647   9.277   6.441
19621WAT     H259106   7.713   9.137   6.388
19622WAT      O59107   6.228   7.680   4.359
19622WAT     H159108   6.131   7.704   4.364
19622WAT     H259109   6.268   7.683   4.451
19623WAT      O59110   2.311   9.770   2.811
19623WAT     H159111   2.265   9.858   2.819
19623WAT     H259112   2.366   9.754   2.893
19624WAT      O59113   8.739   5.313   3.201
19624WAT     H159114   8.808   5.359   3.256
19624WAT     H259115   8.650   5.355   3.217
19625WAT      O59116   3.166   3.301   0.117
19625WAT     H159117   3.232   3.250   0.062
19625WAT     H259118   3.076   3.258   0.108
19626WAT      O59119   6.380   2.160   0.011
19626WAT     H159120   6.408   2.256   0.005
19626WAT     H259121   6.461   2.104   0.033
19627WAT      O59122   3.543   2.811   3.079
19627WAT     H159123   3.558   2.819   3.177
19627WAT     H259124   3.486   2.731   3.060
19628WAT      O59125   8.221   8.943   4.519
19628WAT     H159126   8.288   8.913   4.586
19628WAT     H259127   8.251   8.918   4.427
19629WAT      O59128   6.226   4.019   5.413
19629WAT     H159129   6.137   3.989   5.381
19629WAT     H259130   6.242   3.984   5.506
19630WAT      O59131   0.292   0.366   9.546
19630WAT     H159132   0.324   0.357   9.640
19630WAT     H259133   0.359   0.325   9.484
19631WAT      O59134   6.098   8.288   9.019
19631WAT     H159135   6.183   8.300   9.069
19631WAT     H259136   6.119   8.261   8.925
19632WAT      O59137   3.447   2.554   5.973
19632WAT     H159138   3.371   2.518   6.027
19632WAT     H259139   3.484   2.636   6.017
19633WAT      O59140   6.924   3.024   9.523
19633WAT     H159141   7.011   2.976   9.531
19633WAT     H259142   6.938   3.121   9.544
19634WAT      O59143   1.973   4.614   9.407
19634WAT     H159144   1.890   4.654   9.446
19634WAT     H259145   2.026   4.571   9.480
19635WAT      O59146   2.566   5.989   5.648
19635WAT     H159147   2.593   5.909   5.596
19635WAT     H259148   2.647   6.041   5.674
19636WAT      O59149   9.355   7.105   1.288
19636WAT     H159150   9.282   7.100   1.356
19636WAT     H259151   9.351   7.192   1.240
19637WAT      O59152   8.867   7.642   0.367
19637WAT     H159153   8.804   7.566   0.382
19637WAT     H259154   8.910   7.632   0.277
19638WAT      O59155   0.741   2.838   7.113
19638WAT     H159156   0.824   2.817   7.061
19638WAT     H259157   0.747   2.930   7.152
19639WAT      O59158   1.917   7.812   9.317
19639WAT     H159159   1.994   7.758   9.351
19639WAT     H259160   1.878   7.768   9.236
19640WAT      O59161   4.519   8.818   1.366
19640WAT     H159162   4.529   8.719   1.380
19640WAT     H259163   4.610   8.860   1.360
19641WAT      O59164   7.055   7.685   5.533
19641WAT     H159165   6.973   7.629   5.527
19641WAT     H259166   7.132   7.629   5.564
19642WAT      O59167   2.877   3.181   6.408
19642WAT     H159168   2.964   3.229   6.405
19642WAT     H259169   2.890   3.086   6.380
19643WAT      O59170   6.673   7.176   0.517
19643WAT     H159171   6.615   7.223   0.450
19643WAT     H259172   6.697   7.085   0.483
19644WAT      O59173   5.628   4.312   9.696
19644WAT     H159174   5.590   4.278   9.610
19644WAT     H259175   5.574   4.389   9.729
19645WAT      O59176   9.085   1.527   6.725
19645WAT     H159177   9.108   1.617   6.761
19645WAT     H259178   9.031   1.477   6.792
19646WAT      O59179   0.557   8.472   8.421
19646WAT     H159180   0.623   8.531   8.375
19646WAT     H259181   0.605   8.395   8.463
19647WAT      O59182   5.948   2.083   3.455
19647WAT     H159183   5.979   2.170   3.416
19647WAT     H259184   5.969   2.081   3.552
19648WAT      O59185   2.596   4.909   6.784
19648WAT     H159186   2.517   4.853   6.758
19648WAT     H259187   2.599   4.991   6.727
19649WAT      O59188   5.405   2.698   7.569
19649WAT     H159189   5.415   2.751   7.653
19649WAT     H259190   5.470   2.732   7.500
19650WAT      O59191   0.888   4.969   3.205
19650WAT     H159192   0.809   4.908   3.205
19650WAT     H259193   0.912   4.991   3.300
19651WAT      O59194   1.548   0.736   4.557
19651WAT     H159195   1.462   0.711   4.603
19651WAT     H259196   1.532   0.747   4.459
19652WAT      O59197   6.099   4.473   1.019
19652WAT     H159198   6.181   4.517   1.055
19652WAT     H259199   6.033   4.460   1.093
19653WAT      O59200   2.135   6.602   3.823
19653WAT     H159201   2.230   6.631   3.840
19653WAT     H259202   2.077   6.683   3.818
19654WAT      O59203   7.851   4.774   8.797
19654WAT     H159204   7.806   4.731   8.718
19654WAT     H259205   7.858   4.707   8.870
19655WAT      O59206   5.464   0.045   2.266
19655WAT     H159207   5.513   0.079   2.186
19655WAT     H259208   5.415   0.121   2.310
19656WAT      O59209   0.923   6.841   3.839
19656WAT     H159210   0.885   6.748   3.834
19656WAT     H259211   0.916   6.884   3.749
19657WAT      O59212   2.186   6.649   2.426
19657WAT     H159213   2.227   6.615   2.511
19657WAT     H259214   2.259   6.668   2.360
19658WAT      O59215   5.281   3.041   9.404
19658WAT     H159216   5.351   2.971   9.387
19658WAT     H259217   5.265   3.049   9.502
19659WAT      O59218   7.351   3.556   6.878
19659WAT     H159219   7.324   3.629   6.815
19659WAT     H259220   7.449   3.539   6.870
19660WAT      O59221   2.042   4.079   0.744
19660WAT     H159222   2.034   4.013   0.819
19660WAT     H259223   2.031   4.172   0.780
19661WAT      O59224   9.392   0.948   1.413
19661WAT     H159225   9.333   0.879   1.455
19661WAT     H259226   9.484   0.941   1.451
19662WAT      O59227   6.414   1.914   5.130
19662WAT     H159228   6.380   1.842   5.069
19662WAT     H259229   6.507   1.939   5.103
19663WAT      O59230   3.157   1.901   2.603
19663WAT     H159231   3.060   1.878   2.595
19663WAT     H259232   3.167   1.991   2.646
19664WAT      O59233   3.959   8.249   8.119
19664WAT     H159234   3.916   8.297   8.042
19664WAT     H259235   3.889   8.221   8.184
19665WAT      O59236   9.804   3.223   8.736
19665WAT     H159237   9.894   3.253   8.768
19665WAT     H259238   9.741   3.219   8.814
19666WAT      O59239   7.690   0.078   0.846
19666WAT     H159240   7.757   0.074   0.772
19666WAT     H259241   7.620   0.008   0.831
19667WAT      O59242   6.719   4.812   7.364
19667WAT     H159243   6.619   4.805   7.365
19667WAT     H259244   6.745   4.898   7.320
19668WAT      O59245   6.461   7.408   5.909
19668WAT     H159246   6.455   7.316   5.948
19668WAT     H259247   6.531   7.461   5.957
19669WAT      O59248   0.196   2.625   6.341
19669WAT     H159249   0.250   2.672   6.270
19669WAT     H259250   0.256   2.563   6.391
19670WAT      O59251   1.177   5.221   9.321
19670WAT     H159252   1.129   5.255   9.240
19670WAT     H259253   1.192   5.123   9.312
19671WAT      O59254   4.645   2.944   1.291
19671WAT     H159255   4.546   2.960   1.291
19671WAT     H259256   4.664   2.855   1.332
19672WAT      O59257   3.342   6.961   7.205
19672WAT     H159258   3.339   6.923   7.297
19672WAT     H259259   3.336   6.887   7.138
19673WAT      O59260   5.854   5.544   6.512
19673WAT     H159261   5.890   5.469   6.568
19673WAT     H259262   5.761   5.521   6.482
19674WAT      O59263   4.975   2.403   7.997
19674WAT     H159264   5.039   2.332   7.968
19674WAT     H259265   5.021   2.467   8.059
19675WAT      O59266   5.890   1.266   6.747
19675WAT     H159267   5.935   1.258   6.657
19675WAT     H259268   5.939   1.209   6.813
19676WAT      O59269   4.036   1.545   9.627
19676WAT     H159270   3.962   1.523   9.691
19676WAT     H259271   4.029   1.641   9.600
19677WAT      O59272   9.576   4.526   3.398
19677WAT     H159273   9.657   4.502   3.345
19677WAT     H259274   9.568   4.626   3.403
19678WAT      O59275   9.502   5.573   5.937
19678WAT     H159276   9.416   5.620   5.923
19678WAT     H259277   9.487   5.490   5.992
19679WAT      O59278   0.770   3.201   2.208
19679WAT     H159279   0.778   3.219   2.306
19679WAT     H259280   0.812   3.112   2.187
19680WAT      O59281   6.993   0.370   5.010
19680WAT     H159282   7.066   0.301   5.008
19680WAT     H259283   7.032   0.460   4.989
19681WAT      O59284   6.131   3.773   6.901
19681WAT     H159285   6.110   3.869   6.887
19681WAT     H259286   6.075   3.736   6.975
19682WAT      O59287   4.221   2.341   0.987
19682WAT     H159288   4.302   2.390   1.018
19682WAT     H259289   4.185   2.384   0.905
19683WAT      O59290   8.219   4.601   1.596
19683WAT     H159291   8.157   4.672   1.630
19683WAT     H259292   8.311   4.618   1.632
19684WAT      O59293   2.759   6.787   5.323
19684WAT     H159294   2.681   6.840   5.288
19684WAT     H259295   2.807   6.840   5.392
19685WAT      O59296   0.205   6.757   5.194
19685WAT     H159297   0.148   6.818   5.248
19685WAT     H259298   0.151   6.720   5.118
19686WAT      O59299   5.358   9.561   6.349
19686WAT     H159300   5.443   9.613   6.360
19686WAT     H259301   5.288   9.618   6.307
19687WAT      O59302   4.221   1.543   6.202
19687WAT     H159303   4.274   1.538   6.286
19687WAT     H259304   4.283   1.547   6.124
19688WAT      O59305   4.685   4.380   7.439
19688WAT     H159306   4.654   4.312   7.506
19688WAT     H259307   4.685   4.339   7.348
19689WAT      O59308   7.544   1.144   2.633
19689WAT     H159309   7.585   1.185   2.551
19689WAT     H259310   7.575   1.193   2.714
19690WAT      O59311   6.825   8.116   5.513
19690WAT     H159312   6.771   8.039   5.477
19690WAT     H259313   6.876   8.086   5.593
19691WAT      O59314   3.502   9.068   0.822
19691WAT     H159315   3.453   9.094   0.738
19691WAT     H259316   3.447   9.004   0.875
19692WAT      O59317   0.576   3.114   4.802
19692WAT     H159318   0.611   3.096   4.710
19692WAT     H259319   0.653   3.116   4.866
19693WAT      O59320   6.188   9.242   4.142
19693WAT     H159321   6.212   9.172   4.075
19693WAT     H259322   6.202   9.332   4.102
19694WAT      O59323   6.501   9.358   9.652
19694WAT     H159324   6.485   9.455   9.634
19694WAT     H259325   6.491   9.307   9.567
19695WAT      O59326   8.236   3.550   9.136
19695WAT     H159327   8.321   3.504   9.110
19695WAT     H259328   8.241   3.647   9.109
19696WAT      O59329   2.156   5.772   5.769
19696WAT     H159330   2.246   5.729   5.774
19696WAT     H259331   2.085   5.701   5.774
19697WAT      O59332   1.157   3.767   6.431
19697WAT     H159333   1.162   3.667   6.431
19697WAT     H259334   1.227   3.804   6.369
19698WAT      O59335   2.613   8.912   3.644
19698WAT     H159336   2.616   8.818   3.679
19698WAT     H259337   2.642   8.975   3.717
19699WAT      O59338   5.467   1.882   1.312
19699WAT     H159339   5.434   1.973   1.288
19699WAT     H259340   5.563   1.888   1.341
19700WAT      O59341   0.665   6.201   5.151
19700WAT     H159342   0.742   6.182   5.213
19700WAT     H259343   0.678   6.291   5.108
19701WAT      O59344   0.499   0.275   9.432
19701WAT     H159345   0.557   0.326   9.368
19701WAT     H259346   0.552   0.202   9.475
19702WAT      O59347   6.362   1.129   3.289
19702WAT     H159348   6.433   1.059   3.286
19702WAT     H259349   6.322   1.142   3.198
19703WAT      O59350   8.146   2.943   2.976
19703WAT     H159351   8.101   2.951   3.065
19703WAT     H259352   8.084   2.899   2.911
19704WAT      O59353   5.872   1.012   3.453
19704WAT     H159354   5.862   1.101   3.410
19704WAT     H259355   5.969   0.993   3.469
19705WAT      O59356   5.709   4.289   0.387
19705WAT     H159357   5.752   4.373   0.356
19705WAT     H259358   5.779   4.226   0.421
19706WAT      O59359   9.671   1.177   7.297
19706WAT     H159360   9.593   1.210   7.350
19706WAT     H259361   9.748   1.161   7.358
19707WAT      O59362   6.618   2.293   8.556
19707WAT     H159363   6.518   2.288   8.561
19707WAT     H259364   6.652   2.351   8.631
19708WAT      O59365   1.088   1.321   2.605
19708WAT     H159366   1.186   1.320   2.627
19708WAT     H259367   1.041   1.387   2.663
19709WAT      O59368   4.178   0.803   6.109
19709WAT     H159369   4.166   0.725   6.047
19709WAT     H259370   4.266   0.846   6.091
19710WAT      O59371   7.346   4.864   4.068
19710WAT     H159372   7.404   4.797   4.023
19710WAT     H259373   7.256   4.824   4.084
19711WAT      O59374   9.103   8.611   1.139
19711WAT     H159375   9.192   8.653   1.121
19711WAT     H259376   9.045   8.616   1.057
19712WAT      O59377   3.985   6.823   7.099
19712WAT     H159378   3.976   6.917   7.131
19712WAT     H259379   3.915   6.804   7.031
19713WAT      O59380   1.524   9.257   0.303
19713WAT     H159381   1.505   9.160   0.317
19713WAT     H259382   1.442   9.302   0.267
19714WAT      O59383   7.588   2.769   7.295
19714WAT     H159384   7.542   2.760   7.383
19714WAT     H259385   7.650   2.692   7.282
19715WAT      O59386   6.869   6.915   4.684
19715WAT     H159387   6.829   7.001   4.715
19715WAT     H259388   6.810   6.874   4.615
19716WAT      O59389   2.742   9.516   7.344
19716WAT     H159390   2.745   9.419   7.320
19716WAT     H259391   2.647   9.544   7.357
19717WAT      O59392   7.069   6.306   0.537
19717WAT     H159393   7.016   6.385   0.507
19717WAT     H259394   7.007   6.231   0.560
19718WAT      O59395   3.207   9.494   8.699
19718WAT     H159396   3.299   9.532   8.695
19718WAT     H259397   3.144   9.555   8.651
19719WAT      O59398   4.186   5.265   9.450
19719WAT     H159399   4.249   5.248   9.374
19719WAT     H259400   4.234   5.316   9.522
19720WAT      O59401   2.102   8.936   5.955
19720WAT     H159402   2.109   9.012   6.020
19720WAT     H259403   2.181   8.937   5.894
19721WAT      O59404   8.376   4.642   4.551
19721WAT     H159405   8.419   4.554   4.532
19721WAT     H259406   8.378   4.699   4.470
19722WAT      O59407   4.253   9.204   0.733
19722WAT     H159408   4.239   9.236   0.639
19722WAT     H259409   4.306   9.272   0.784
19723WAT      O59410   7.028   5.762   1.429
19723WAT     H159411   6.981   5.685   1.471
19723WAT     H259412   6.966   5.809   1.366
19724WAT      O59413   5.757   3.121   1.780
19724WAT     H159414   5.746   3.022   1.784
19724WAT     H259415   5.803   3.147   1.695
19725WAT      O59416   0.441   8.678   1.805
19725WAT     H159417   0.455   8.640   1.897
19725WAT     H259418   0.507   8.637   1.742
19726WAT      O59419   8.364   3.780   9.728
19726WAT     H159420   8.427   3.727   9.784
19726WAT     H259421   8.410   3.864   9.697
19727WAT      O59422   3.023   0.835   0.704
19727WAT     H159423   3.086   0.789   0.766
19727WAT     H259424   2.930   0.829   0.740
19728WAT      O59425   4.925   0.419   1.410
19728WAT     H159426   4.916   0.320   1.410
19728WAT     H259427   4.956   0.449   1.500
19729WAT      O59428   2.838   6.039   6.104
19729WAT     H159429   2.741   6.046   6.124
19729WAT     H259430   2.889   6.020   6.188
19730WAT      O59431   7.035   5.633   5.903
19730WAT     H159432   6.997   5.725   5.892
19730WAT     H259433   7.001   5.593   5.988
19731WAT      O59434   0.932   4.738   4.152
19731WAT     H159435   0.990   4.700   4.080
19731WAT     H259436   0.949   4.690   4.238
19732WAT      O59437   0.766   5.257   9.078
19732WAT     H159438   0.747   5.186   9.145
19732WAT     H259439   0.727   5.230   8.990
19733WAT      O59440   3.926   2.383   4.263
19733WAT     H159441   4.013   2.346   4.297
19733WAT     H259442   3.864   2.307   4.243
19734WAT      O59443   7.989   0.155   7.198
19734WAT     H159444   8.014   0.251   7.179
19734WAT     H259445   7.897   0.137   7.164
19735WAT      O59446   0.820   7.711   0.400
19735WAT     H159447   0.753   7.761   0.345
19735WAT     H259448   0.775   7.635   0.447
19736WAT      O59449   6.626   8.642   1.824
19736WAT     H159450   6.578   8.603   1.903
19736WAT     H259451   6.642   8.570   1.757
19737WAT      O59452   1.361   2.503   1.357
19737WAT     H159453   1.370   2.433   1.286
19737WAT     H259454   1.336   2.459   1.443
19738WAT      O59455   9.552   5.775   9.158
19738WAT     H159456   9.618   5.847   9.136
19738WAT     H259457   9.537   5.772   9.256
19739WAT      O59458   6.588   3.128   1.370
19739WAT     H159459   6.637   3.169   1.447
19739WAT     H259460   6.616   3.033   1.359
19740WAT      O59461   9.085   2.855   5.831
19740WAT     H159462   9.087   2.800   5.914
19740WAT     H259463   8.991   2.868   5.801
19741WAT      O59464   6.741   7.616   0.083
19741WAT     H159465   6.649   7.602   0.119
19741WAT     H259466   6.735   7.661  -0.007
19742WAT      O59467   0.544   3.221   3.012
19742WAT     H159468   0.475   3.162   2.970
19742WAT     H259469   0.627   3.221   2.955
19743WAT      O59470   3.499   1.208   3.978
19743WAT     H159471   3.518   1.218   4.076
19743WAT     H259472   3.585   1.212   3.927
19744WAT      O59473   6.288   6.469   5.158
19744WAT     H159474   6.315   6.438   5.249
19744WAT     H259475   6.271   6.568   5.160
19745WAT      O59476   9.375   4.580   9.610
19745WAT     H159477   9.326   4.543   9.532
19745WAT     H259478   9.345   4.534   9.694
19746WAT      O59479   6.374   6.223   4.426
19746WAT     H159480   6.348   6.195   4.334
19746WAT     H259481   6.291   6.237   4.481
19747WAT      O59482   6.886   3.522   3.727
19747WAT     H159483   6.951   3.598   3.715
19747WAT     H259484   6.896   3.458   3.651
19748WAT      O59485   4.977   5.989   2.957
19748WAT     H159486   4.907   5.947   2.899
19748WAT     H259487   5.062   5.999   2.905
19749WAT      O59488   9.357   4.467   6.328
19749WAT     H159489   9.388   4.440   6.237
19749WAT     H259490   9.259   4.484   6.326
19750WAT      O59491   6.955   6.359   1.324
19750WAT     H159492   7.023   6.368   1.397
19750WAT     H259493   6.957   6.266   1.288
19751WAT      O59494   9.349   6.267   6.559
19751WAT     H159495   9.283   6.221   6.618
19751WAT     H259496   9.439   6.267   6.602
19752WAT      O59497   6.658   3.947   0.523
19752WAT     H159498   6.706   3.878   0.578
19752WAT     H259499   6.654   3.917   0.428
19753WAT      O59500   0.857   9.562   2.435
19753WAT     H159501   0.925   9.633   2.419
19753WAT     H259502   0.860   9.532   2.530
19754WAT      O59503   2.502   1.679   8.950
19754WAT     H159504   2.550   1.591   8.946
19754WAT     H259505   2.405   1.665   8.931
19755WAT      O59506   0.545   7.462   3.951
19755WAT     H159507   0.574   7.512   3.869
19755WAT     H259508   0.534   7.365   3.929
19756WAT      O59509   5.331   2.432   5.648
19756WAT     H159510   5.419   2.426   5.601
19756WAT     H259511   5.258   2.405   5.585
19757WAT      O59512   4.481   9.622   5.381
19757WAT     H159513   4.567   9.578   5.408
19757WAT     H259514   4.404   9.562   5.403
19758WAT      O59515   4.627   8.894   5.306
19758WAT     H159516   4.627   8.950   5.224
19758WAT     H259517   4.721   8.870   5.330
19759WAT      O59518   6.569   2.493   6.666
19759WAT     H159519   6.525   2.571   6.711
19759WAT     H259520   6.632   2.449   6.730
19760WAT      O59521   4.259   8.697   1.493
19760WAT     H159522   4.206   8.753   1.555
19760WAT     H259523   4.279   8.749   1.410
19761WAT      O59524   9.283   2.944   6.190
19761WAT     H159525   9.374   2.910   6.213
19761WAT     H259526   9.224   2.867   6.165
19762WAT      O59527   5.825   4.276   6.105
19762WAT     H159528   5.738   4.252   6.063
19762WAT     H259529   5.836   4.223   6.190
19763WAT      O59530   4.507   7.273   7.976
19763WAT     H159531   4.431   7.281   7.912
19763WAT     H259532   4.478   7.221   8.056
19764WAT      O59533   6.743   1.073   2.154
19764WAT     H159534   6.667   1.013   2.128
19764WAT     H259535   6.799   1.028   2.223
19765WAT      O59536   8.738   4.544   2.565
19765WAT     H159537   8.661   4.505   2.616
19765WAT     H259538   8.765   4.630   2.607
19766WAT      O59539   5.718   1.466   9.838
19766WAT     H159540   5.811   1.457   9.800
19766WAT     H259541   5.671   1.378   9.830
19767WAT      O59542   3.604   0.528   9.182
19767WAT     H159543   3.683   0.586   9.160
19767WAT     H259544   3.619   0.484   9.271
19768WAT      O59545   7.509   4.813   6.378
19768WAT     H159546   7.534   4.750   6.305
19768WAT     H259547   7.589   4.867   6.405
19769WAT      O59548   4.601   7.913   7.383
19769WAT     H159549   4.547   7.965   7.450
19769WAT     H259550   4.539   7.871   7.316
19770WAT      O59551   4.594   6.656   0.846
19770WAT     H159552   4.583   6.613   0.757
19770WAT     H259553   4.561   6.593   0.917
19771WAT      O59554   8.753   5.017   4.563
19771WAT     H159555   8.724   4.923   4.577
19771WAT     H259556   8.819   5.021   4.488
19772WAT      O59557   2.372   5.854   3.474
19772WAT     H159558   2.359   5.930   3.537
19772WAT     H259559   2.428   5.783   3.518
19773WAT      O59560   1.708   8.834   0.262
19773WAT     H159561   1.759   8.895   0.323
19773WAT     H259562   1.745   8.742   0.267
19774WAT      O59563   7.075   1.341   0.085
19774WAT     H159564   7.018   1.404   0.032
19774WAT     H259565   7.062   1.359   0.182
19775WAT      O59566   1.432   1.279   7.497
19775WAT     H159567   1.459   1.277   7.400
19775WAT     H259568   1.430   1.185   7.532
19776WAT      O59569   7.677   7.716   5.461
19776WAT     H159570   7.581   7.707   5.485
19776WAT     H259571   7.728   7.754   5.539
19777WAT      O59572   7.528   2.659   1.402
19777WAT     H159573   7.601   2.695   1.459
19777WAT     H259574   7.456   2.727   1.392
19778WAT      O59575   5.156   3.044   2.707
19778WAT     H159576   5.251   3.034   2.676
19778WAT     H259577   5.135   3.141   2.719
19779WAT      O59578   2.099   3.261   2.617
19779WAT     H159579   2.175   3.225   2.564
19779WAT     H259580   2.058   3.339   2.568
19780WAT      O59581   9.572   7.367   2.671
19780WAT     H159582   9.514   7.435   2.715
19780WAT     H259583   9.611   7.406   2.588
19781WAT      O59584   5.793   0.459   4.216
19781WAT     H159585   5.712   0.459   4.157
19781WAT     H259586   5.814   0.553   4.244
19782WAT      O59587   8.471   4.144   1.515
19782WAT     H159588   8.420   4.179   1.436
19782WAT     H259589   8.531   4.215   1.550
19783WAT      O59590   8.555   9.635   4.996
19783WAT     H159591   8.456   9.653   4.988
19783WAT     H259592   8.572   9.537   4.986
19784WAT      O59593   1.482   4.145   8.160
19784WAT     H159594   1.547   4.070   8.146
19784WAT     H259595   1.397   4.108   8.199
19785WAT      O59596   7.855   1.111   8.208
19785WAT     H159597   7.937   1.068   8.172
19785WAT     H259598   7.879   1.197   8.253
19786WAT      O59599   3.684   7.232   7.930
19786WAT     H159600   3.584   7.229   7.938
19786WAT     H259601   3.715   7.326   7.943
19787WAT      O59602   4.850   4.668   2.683
19787WAT     H159603   4.875   4.736   2.614
19787WAT     H259604   4.859   4.709   2.774
19788WAT      O59605   1.113   8.316   9.534
19788WAT     H159606   1.184   8.247   9.525
19788WAT     H259607   1.090   8.328   9.631
19789WAT      O59608   3.148   9.674   6.723
19789WAT     H159609   3.055   9.677   6.685
19789WAT     H259610   3.214   9.700   6.653
19790WAT      O59611   2.016   1.274   2.070
19790WAT     H159612   2.023   1.372   2.093
19790WAT     H259613   2.020   1.263   1.971
19791WAT      O59614   9.265   9.334   0.044
19791WAT     H159615   9.340   9.396   0.020
19791WAT     H259616   9.236   9.283  -0.037
19792WAT      O59617   7.045   1.101   9.001
19792WAT     H159618   7.139   1.084   9.030
19792WAT     H259619   7.026   1.199   9.005
19793WAT      O59620   5.394   4.633   7.873
19793WAT     H159621   5.319   4.634   7.940
19793WAT     H259622   5.464   4.569   7.904
19794WAT      O59623   9.876   7.836   3.772
19794WAT     H159624   9.789   7.804   3.734
19794WAT     H259625   9.871   7.935   3.788
19795WAT      O59626   6.551   0.811   2.429
19795WAT     H159627   6.625   0.839   2.367
19795WAT     H259628   6.463   0.822   2.383
19796WAT      O59629   6.189   2.013   2.903
19796WAT     H159630   6.198   1.942   2.973
19796WAT     H259631   6.274   2.066   2.899
19797WAT      O59632   1.453   2.259   9.360
19797WAT     H159633   1.459   2.175   9.306
19797WAT     H259634   1.357   2.283   9.373
19798WAT      O59635   6.384   3.953   9.616
19798WAT     H159636   6.343   3.869   9.581
19798WAT     H259637   6.482   3.939   9.630
19799WAT      O59638   1.140   1.044   7.859
19799WAT     H159639   1.065   1.109   7.874
19799WAT     H259640   1.226   1.088   7.883
19800WAT      O59641   3.378   6.962   3.871
19800WAT     H159642   3.399   7.060   3.871
19800WAT     H259643   3.417   6.920   3.789
19801WAT      O59644   5.353   0.518   2.373
19801WAT     H159645   5.436   0.536   2.426
19801WAT     H259646   5.274   0.558   2.420
19802WAT      O59647   3.795   8.619   8.729
19802WAT     H159648   3.808   8.662   8.639
19802WAT     H259649   3.697   8.612   8.748
19803WAT      O59650   7.709   7.922   3.136
19803WAT     H159651   7.675   7.960   3.222
19803WAT     H259652   7.719   7.823   3.145
19804WAT      O59653   1.821   7.250   7.613
19804WAT     H159654   1.761   7.218   7.539
19804WAT     H259655   1.807   7.193   7.694
19805WAT      O59656   8.565   0.799   0.530
19805WAT     H159657   8.602   0.855   0.455
19805WAT     H259658   8.536   0.859   0.605
19806WAT      O59659   0.379   6.760   0.185
19806WAT     H159660   0.293   6.757   0.135
19806WAT     H259661   0.450   6.712   0.133
19807WAT      O59662   2.669   8.359   7.032
19807WAT     H159663   2.584   8.364   7.085
19807WAT     H259664   2.672   8.437   6.968
19808WAT      O59665   7.894   3.274   9.558
19808WAT     H159666   7.960   3.345   9.585
19808WAT     H259667   7.943   3.190   9.537
19809WAT      O59668   8.440   8.701   4.203
19809WAT     H159669   8.362   8.647   4.234
19809WAT     H259670   8.449   8.693   4.103
19810WAT      O59671   4.732   2.095   1.907
19810WAT     H159672   4.650   2.127   1.955
19810WAT     H259673   4.813   2.138   1.946
19811WAT      O59674   8.706   3.629   9.085
19811WAT     H159675   8.798   3.641   9.121
19811WAT     H259676   8.693   3.533   9.059
19812WAT      O59677   3.099   5.116   3.288
19812WAT     H159678   3.092   5.206   3.331
19812WAT     H259679   3.009   5.087   3.256
19813WAT      O59680   9.647   2.244   4.713
19813WAT     H159681   9.664   2.316   4.646
19813WAT     H259682   9.708   2.166   4.695
19814WAT      O59683   4.148   9.149   4.621
19814WAT     H159684   4.135   9.180   4.715
19814WAT     H259685   4.243   9.162   4.593
19815WAT      O59686   0.807   7.702   8.006
19815WAT     H159687   0.752   7.620   8.024
19815WAT     H259688   0.808   7.720   7.907
19816WAT      O59689   0.821   5.113   2.986
19816WAT     H159690   0.852   5.051   3.057
19816WAT     H259691   0.843   5.207   3.012
19817WAT      O59692   2.469   6.808   9.641
19817WAT     H159693   2.428   6.816   9.732
19817WAT     H259694   2.407   6.848   9.573
19818WAT      O59695   3.890   0.620   9.710
19818WAT     H159696   3.866   0.523   9.712
19818WAT     H259697   3.919   0.645   9.617
19819WAT      O59698   7.140   7.248   6.948
19819WAT     H159699   7.091   7.211   7.027
19819WAT     H259700   7.134   7.347   6.948
19820WAT      O59701   5.844   2.824   8.765
19820WAT     H159702   5.886   2.838   8.855
19820WAT     H259703   5.802   2.909   8.734
19821WAT      O59704   9.016   5.382   5.852
19821WAT     H159705   8.935   5.325   5.835
19821WAT     H259706   8.990   5.478   5.845
19822WAT      O59707   5.855   5.047   2.983
19822WAT     H159708   5.884   4.987   3.057
19822WAT     H259709   5.934   5.073   2.927
19823WAT      O59710   8.404   1.346   4.300
19823WAT     H159711   8.389   1.264   4.356
19823WAT     H259712   8.436   1.319   4.209
19824WAT      O59713   5.547   5.726   9.622
19824WAT     H159714   5.628   5.672   9.645
19824WAT     H259715   5.465   5.674   9.648
19825WAT      O59716   2.785   5.532   7.694
19825WAT     H159717   2.842   5.559   7.616
19825WAT     H259718   2.702   5.488   7.661
19826WAT      O59719   3.376   3.753   3.632
19826WAT     H159720   3.468   3.737   3.598
19826WAT     H259721   3.327   3.813   3.569
19827WAT      O59722   2.709   1.981   4.066
19827WAT     H159723   2.808   1.974   4.051
19827WAT     H259724   2.669   2.041   3.997
19828WAT      O59725   5.574   7.738   6.936
19828WAT     H159726   5.605   7.687   7.016
19828WAT     H259727   5.541   7.673   6.866
19829WAT      O59728   6.058   1.728   6.202
19829WAT     H159729   6.059   1.639   6.249
19829WAT     H259730   6.147   1.743   6.159
19830WAT      O59731   1.167   4.077   4.680
19830WAT     H159732   1.206   4.042   4.594
19830WAT     H259733   1.106   4.154   4.659
19831WAT      O59734   2.865   7.106   8.365
19831WAT     H159735   2.864   7.178   8.434
19831WAT     H259736   2.958   7.072   8.353
19832WAT      O59737   6.723   6.181   8.847
19832WAT     H159738   6.770   6.220   8.768
19832WAT     H259739   6.670   6.252   8.892
19833WAT      O59740   9.163   5.705   7.662
19833WAT     H159741   9.236   5.677   7.600
19833WAT     H259742   9.183   5.796   7.698
19834WAT      O59743   1.237   7.387   8.341
19834WAT     H159744   1.205   7.439   8.262
19834WAT     H259745   1.195   7.296   8.341
19835WAT      O59746   3.238   1.460   2.588
19835WAT     H159747   3.163   1.508   2.634
19835WAT     H259748   3.303   1.425   2.656
19836WAT      O59749   6.802   4.310   2.940
19836WAT     H159750   6.716   4.261   2.950
19836WAT     H259751   6.819   4.330   2.844
19837WAT      O59752   3.023   7.057   2.904
19837WAT     H159753   2.974   6.998   2.840
19837WAT     H259754   2.960   7.088   2.975
19838WAT      O59755   3.483   5.000   2.183
19838WAT     H159756   3.462   5.009   2.281
19838WAT     H259757   3.465   5.086   2.137
19839WAT      O59758   8.484   6.903   5.108
19839WAT     H159759   8.417   6.974   5.126
19839WAT     H259760   8.442   6.813   5.122
19840WAT      O59761   7.452   7.777   3.722
19840WAT     H159762   7.459   7.830   3.806
19840WAT     H259763   7.416   7.686   3.742
19841WAT      O59764   4.940   9.422   3.770
19841WAT     H159765   4.855   9.422   3.822
19841WAT     H259766   4.941   9.500   3.707
19842WAT      O59767   1.646   5.548   1.174
19842WAT     H159768   1.581   5.481   1.211
19842WAT     H259769   1.641   5.547   1.075
19843WAT      O59770   1.476   5.375   2.646
19843WAT     H159771   1.468   5.442   2.721
19843WAT     H259772   1.486   5.283   2.684
19844WAT      O59773   0.264   4.215   5.812
19844WAT     H159774   0.276   4.121   5.843
19844WAT     H259775   0.353   4.262   5.814
19845WAT      O59776   5.389   0.995   3.360
19845WAT     H159777   5.408   1.067   3.426
19845WAT     H259778   5.323   1.027   3.292
19846WAT      O59779   8.213   1.260   5.720
19846WAT     H159780   8.306   1.252   5.684
19846WAT     H259781   8.155   1.305   5.653
19847WAT      O59782   7.055   1.369   2.927
19847WAT     H159783   7.132   1.312   2.954
19847WAT     H259784   7.068   1.461   2.963
19848WAT      O59785   5.769   6.329   2.566
19848WAT     H159786   5.734   6.301   2.656
19848WAT     H259787   5.718   6.408   2.533
19849WAT      O59788   1.060   3.430   0.526
19849WAT     H159789   0.976   3.387   0.560
19849WAT     H259790   1.109   3.365   0.468
19850WAT      O59791   8.076   2.647   5.895
19850WAT     H159792   8.087   2.721   5.961
19850WAT     H259793   8.132   2.665   5.814
19851WAT      O59794   1.151   5.826   3.282
19851WAT     H159795   1.194   5.914   3.263
19851WAT     H259796   1.173   5.796   3.375
19852WAT      O59797   6.047   1.149   4.387
19852WAT     H159798   6.075   1.062   4.427
19852WAT     H259799   6.128   1.202   4.361
19853WAT      O59800   1.052   7.481   3.372
19853WAT     H159801   1.068   7.538   3.453
19853WAT     H259802   1.136   7.434   3.348
19854WAT      O59803   0.846   4.348   4.843
19854WAT     H159804   0.747   4.332   4.850
19854WAT     H259805   0.882   4.367   4.934
19855WAT      O59806   0.551   5.156   3.012
19855WAT     H159807   0.643   5.161   2.975
19855WAT     H259808   0.517   5.062   3.008
19856WAT      O59809   4.941   0.870   9.016
19856WAT     H159810   4.950   0.853   9.114
19856WAT     H259811   4.866   0.934   9.000
19857WAT      O59812   9.350   3.120   7.271
19857WAT     H159813   9.359   3.214   7.304
19857WAT     H259814   9.345   3.058   7.350
19858WAT      O59815   4.854   1.262   5.314
19858WAT     H159816   4.774   1.315   5.341
19858WAT     H259817   4.920   1.322   5.268
19859WAT      O59818   0.154   7.705   2.954
19859WAT     H159819   0.193   7.624   2.909
19859WAT     H259820   0.105   7.760   2.887
19860WAT      O59821   1.380   9.326   8.929
19860WAT     H159822   1.430   9.256   8.981
19860WAT     H259823   1.390   9.414   8.974
19861WAT      O59824   0.812   4.843   3.515
19861WAT     H159825   0.713   4.849   3.502
19861WAT     H259826   0.832   4.816   3.609
19862WAT      O59827   0.038   0.484   4.823
19862WAT     H159828   0.109   0.554   4.818
19862WAT     H259829   0.077   0.396   4.799
19863WAT      O59830   0.110   6.116   1.345
19863WAT     H159831   0.197   6.085   1.307
19863WAT     H259832   0.045   6.131   1.272
19864WAT      O59833   5.397   3.296   0.896
19864WAT     H159834   5.420   3.362   0.967
19864WAT     H259835   5.461   3.219   0.899
19865WAT      O59836   3.942   2.812   0.023
19865WAT     H159837   3.904   2.787  -0.066
19865WAT     H259838   3.873   2.860   0.077
19866WAT      O59839   5.340   8.727   3.445
19866WAT     H159840   5.363   8.789   3.521
19866WAT     H259841   5.245   8.744   3.416
19867WAT      O59842   2.525   0.483   8.039
19867WAT     H159843   2.529   0.519   8.132
19867WAT     H259844   2.616   0.453   8.010
19868WAT      O59845   1.024   2.788   8.578
19868WAT     H159846   0.976   2.744   8.654
19868WAT     H259847   1.087   2.857   8.614
19869WAT      O59848   0.926   7.594   7.028
19869WAT     H159849   0.998   7.663   7.013
19869WAT     H259850   0.958   7.506   6.993
19870WAT      O59851   8.407   9.331   2.751
19870WAT     H159852   8.396   9.356   2.847
19870WAT     H259853   8.373   9.405   2.693
19871WAT      O59854   2.446   9.409   9.345
19871WAT     H159855   2.463   9.385   9.441
19871WAT     H259856   2.532   9.434   9.301
19872WAT      O59857   4.679   7.806   3.462
19872WAT     H159858   4.582   7.781   3.467
19872WAT     H259859   4.721   7.758   3.384
19873WAT      O59860   8.891   1.036   6.491
19873WAT     H159861   8.881   1.090   6.574
19873WAT     H259862   8.968   1.070   6.438
19874WAT      O59863   8.488   0.603   1.208
19874WAT     H159864   8.542   0.518   1.204
19874WAT     H259865   8.539   0.676   1.162
19875WAT      O59866   1.050   5.333   5.676
19875WAT     H159867   1.125   5.305   5.616
19875WAT     H259868   0.987   5.257   5.690
19876WAT      O59869   1.634   9.570   8.650
19876WAT     H159870   1.648   9.587   8.748
19876WAT     H259871   1.623   9.657   8.602
19877WAT      O59872   3.776   9.811   3.887
19877WAT     H159873   3.701   9.764   3.934
19877WAT     H259874   3.761   9.909   3.892
19878WAT      O59875   7.479   3.073   7.499
19878WAT     H159876   7.511   3.155   7.545
19878WAT     H259877   7.508   3.075   7.403
19879WAT      O59878   9.098   3.157   3.925
19879WAT     H159879   9.197   3.139   3.931
19879WAT     H259880   9.078   3.202   3.839
19880WAT      O59881   9.193   2.993   0.230
19880WAT     H159882   9.201   3.085   0.268
19880WAT     H259883   9.265   2.934   0.267
19881WAT      O59884   6.829   0.759   5.629
19881WAT     H159885   6.858   0.700   5.554
19881WAT     H259886   6.731   0.776   5.622
19882WAT      O59887   3.273   9.569   3.386
19882WAT     H159888   3.223   9.617   3.458
19882WAT     H259889   3.285   9.629   3.307
19883WAT      O59890   8.318   0.237   5.844
19883WAT     H159891   8.321   0.324   5.794
19883WAT     H259892   8.280   0.253   5.935
19884WAT      O59893   3.224   8.210   3.065
19884WAT     H159894   3.127   8.221   3.084
19884WAT     H259895   3.241   8.227   2.968
19885WAT      O59896   0.447   4.366   3.855
19885WAT     H159897   0.364   4.313   3.875
19885WAT     H259898   0.477   4.345   3.762
19886WAT      O59899   7.634   7.147   8.227
19886WAT     H159900   7.570   7.200   8.282
19886WAT     H259901   7.707   7.207   8.194
19887WAT      O59902   2.879   8.707   4.481
19887WAT     H159903   2.829   8.714   4.394
19887WAT     H259904   2.859   8.786   4.538
19888WAT      O59905   8.906   8.818   5.674
19888WAT     H159906   8.817   8.789   5.708
19888WAT     H259907   8.924   8.775   5.585
19889WAT      O59908   3.185   7.748   7.439
19889WAT     H159909   3.227   7.752   7.348
19889WAT     H259910   3.124   7.826   7.451
19890WAT      O59911   1.014   9.583   1.459
19890WAT     H159912   0.975   9.520   1.527
19890WAT     H259913   1.104   9.614   1.490
19891WAT      O59914   4.147   4.426   7.691
19891WAT     H159915   4.085   4.353   7.719
19891WAT     H259916   4.167   4.484   7.770
19892WAT      O59917   6.507   5.368   9.170
19892WAT     H159918   6.486   5.463   9.191
19892WAT     H259919   6.576   5.364   9.098
19893WAT      O59920   5.084   7.966   1.179
19893WAT     H159921   5.044   7.918   1.257
19893WAT     H259922   5.160   7.912   1.142
19894WAT      O59923   4.928   1.762   8.028
19894WAT     H159924   5.014   1.785   8.075
19894WAT     H259925   4.935   1.790   7.932
19895WAT      O59926   9.451   4.668   9.212
19895WAT     H159927   9.407   4.588   9.253
19895WAT     H259928   9.386   4.716   9.153
19896WAT      O59929   6.760   1.945   2.307
19896WAT     H159930   6.676   1.944   2.361
19896WAT     H259931   6.768   1.860   2.256
19897WAT      O59932   8.238   9.312   5.594
19897WAT     H159933   8.294   9.242   5.638
19897WAT     H259934   8.168   9.343   5.659
19898WAT      O59935   2.342   5.802   5.303
19898WAT     H159936   2.280   5.878   5.325
19898WAT     H259937   2.351   5.794   5.204
19899WAT      O59938   7.822   9.038   2.420
19899WAT     H159939   7.865   9.116   2.466
19899WAT     H259940   7.883   9.004   2.348
19900WAT      O59941   3.658   8.344   2.816
19900WAT     H159942   3.655   8.332   2.717
19900WAT     H259943   3.727   8.413   2.840
19901WAT      O59944   3.200   5.357   0.529
19901WAT     H159945   3.199   5.451   0.565
19901WAT     H259946   3.116   5.310   0.557
19902WAT      O59947   5.241   4.964   1.538
19902WAT     H159948   5.195   4.899   1.479
19902WAT     H259949   5.204   5.056   1.522
19903WAT      O59950   4.480   8.393   6.588
19903WAT     H159951   4.471   8.392   6.489
19903WAT     H259952   4.547   8.463   6.615
19904WAT      O59953   7.361   4.540   1.418
19904WAT     H159954   7.380   4.516   1.322
19904WAT     H259955   7.360   4.640   1.427
19905WAT      O59956   1.067   6.700   8.791
19905WAT     H159957   1.084   6.603   8.808
19905WAT     H259958   1.038   6.713   8.696
19906WAT      O59959   8.032   6.965   2.159
19906WAT     H159960   7.953   6.993   2.105
19906WAT     H259961   8.114   7.010   2.123
19907WAT      O59962   7.450   5.587   6.175
19907WAT     H159963   7.406   5.613   6.260
19907WAT     H259964   7.402   5.631   6.098
19908WAT      O59965   1.560   6.668   9.669
19908WAT     H159966   1.604   6.738   9.613
19908WAT     H259967   1.472   6.643   9.628
19909WAT      O59968   3.145   8.417   8.881
19909WAT     H159969   3.101   8.506   8.890
19909WAT     H259970   3.139   8.386   8.787
19910WAT      O59971   1.533   2.303   5.249
19910WAT     H159972   1.475   2.384   5.261
19910WAT     H259973   1.488   2.223   5.288
19911WAT      O59974   4.388   4.505   7.623
19911WAT     H159975   4.294   4.482   7.647
19911WAT     H259976   4.448   4.430   7.652
19912WAT      O59977   6.164   2.680   4.577
19912WAT     H159978   6.087   2.694   4.640
19912WAT     H259979   6.229   2.755   4.587
19913WAT      O59980   5.630   0.362   7.143
19913WAT     H159981   5.622   0.432   7.214
19913WAT     H259982   5.543   0.354   7.094
19914WAT      O59983   3.291   1.017   9.378
19914WAT     H159984   3.235   1.033   9.296
19914WAT     H259985   3.317   1.104   9.418
19915WAT      O59986   6.907   4.674   4.443
19915WAT     H159987   7.004   4.683   4.465
19915WAT     H259988   6.898   4.628   4.355
19916WAT      O59989   1.063   8.828   5.579
19916WAT     H159990   0.969   8.798   5.567
19916WAT     H259991   1.105   8.775   5.653
19917WAT      O59992   9.669   5.038   5.062
19917WAT     H159993   9.622   4.952   5.084
19917WAT     H259994   9.664   5.100   5.140
19918WAT      O59995   2.086   2.698   9.570
19918WAT     H159996   2.091   2.612   9.622
19918WAT     H259997   1.990   2.724   9.558
19919WAT      O59998   7.024   5.902   0.725
19919WAT     H159999   7.087   5.900   0.802
19919WAT     H260000   7.031   5.817   0.674
19920WAT      O60001   8.747   8.470   4.501
19920WAT     H160002   8.713   8.502   4.413
19920WAT     H260003   8.719   8.374   4.515
19921WAT      O60004   9.617   2.656   3.881
19921WAT     H160005   9.586   2.574   3.929
19921WAT     H260006   9.659   2.719   3.946
19922WAT      O60007   4.885   5.184   7.510
19922WAT     H160008   4.976   5.220   7.491
19922WAT     H260009   4.821   5.217   7.441
19923WAT      O60010   5.327   3.514   9.578
19923WAT     H160011   5.293   3.437   9.631
19923WAT     H260012   5.255   3.583   9.571
19924WAT      O60013   8.927   5.258   0.444
19924WAT     H160014   8.873   5.251   0.528
19924WAT     H260015   8.869   5.289   0.369
19925WAT      O60016   6.966   9.387   9.171
19925WAT     H160017   6.913   9.443   9.235
19925WAT     H260018   6.920   9.386   9.082
19926WAT      O60019   4.103   7.266   7.865
19926WAT     H160020   4.090   7.236   7.959
19926WAT     H260021   4.153   7.195   7.814
19927WAT      O60022   6.017   2.672   7.648
19927WAT     H160023   6.095   2.611   7.632
19927WAT     H260024   5.986   2.711   7.562
19928WAT      O60025   6.919   6.598   4.161
19928WAT     H160026   6.943   6.530   4.091
19928WAT     H260027   7.003   6.641   4.196
19929WAT      O60028   7.588   0.839   0.627
19929WAT     H160029   7.595   0.937   0.611
19929WAT     H260030   7.625   0.816   0.716
19930WAT      O60031   6.700   8.201   4.185
19930WAT     H160032   6.684   8.150   4.270
19930WAT     H260033   6.618   8.195   4.127
19931WAT      O60034   9.085   6.257   9.851
19931WAT     H160035   9.006   6.263   9.791
19931WAT     H260036   9.167   6.287   9.802
19932WAT      O60037   2.954   7.031   3.496
19932WAT     H160038   3.014   7.088   3.439
19932WAT     H260039   2.863   7.072   3.499
19933WAT      O60040   0.260   1.357   4.985
19933WAT     H160041   0.197   1.422   5.028
19933WAT     H260042   0.268   1.276   5.042
19934WAT      O60043   7.876   5.873   9.027
19934WAT     H160044   7.885   5.915   9.117
19934WAT     H260045   7.837   5.938   8.963
19935WAT      O60046   1.554   6.685   0.775
19935WAT     H160047   1.576   6.681   0.678
19935WAT     H260048   1.462   6.724   0.787
19936WAT      O60049   9.462   8.124   9.782
19936WAT     H160050   9.427   8.214   9.755
19936WAT     H260051   9.396   8.054   9.756
19937WAT      O60052   6.978   7.946   5.666
19937WAT     H160053   6.960   7.851   5.690
19937WAT     H260054   7.070   7.971   5.698
19938WAT      O60055   8.879   2.213   8.394
19938WAT     H160056   8.867   2.298   8.444
19938WAT     H260057   8.864   2.136   8.455
19939WAT      O60058   3.777   0.601   5.786
19939WAT     H160059   3.714   0.542   5.735
19939WAT     H260060   3.855   0.548   5.818
19940WAT      O60061   5.919   1.595   0.875
19940WAT     H160062   5.878   1.630   0.960
19940WAT     H260063   5.880   1.643   0.797
19941WAT      O60064   0.083   0.689   9.212
19941WAT     H160065   0.015   0.637   9.162
19941WAT     H260066   0.044   0.776   9.241
19942WAT      O60067   6.934   7.439   0.014
19942WAT     H160068   6.885   7.515   0.058
19942WAT     H260069   6.868   7.369  -0.013
19943WAT      O60070   4.436   2.289   9.545
19943WAT     H160071   4.449   2.333   9.456
19943WAT     H260072   4.461   2.192   9.538
19944WAT      O60073   3.131   8.412   5.536
19944WAT     H160074   3.135   8.396   5.438
19944WAT     H260075   3.088   8.500   5.554
19945WAT      O60076   6.864   1.912   5.782
19945WAT     H160077   6.791   1.872   5.726
19945WAT     H260078   6.933   1.953   5.722
19946WAT      O60079   8.287   7.688   3.350
19946WAT     H160080   8.325   7.777   3.378
19946WAT     H260081   8.188   7.688   3.366
19947WAT      O60082   1.315   2.353   4.639
19947WAT     H160083   1.251   2.288   4.598
19947WAT     H260084   1.335   2.326   4.733
19948WAT      O60085   1.513   2.061   1.312
19948WAT     H160086   1.583   2.034   1.378
19948WAT     H260087   1.422   2.045   1.351
19949WAT      O60088   5.851   1.089   6.463
19949WAT     H160089   5.922   1.151   6.497
19949WAT     H260090   5.829   1.112   6.369
19950WAT      O60091   7.981   3.942   3.223
19950WAT     H160092   8.059   3.899   3.178
19950WAT     H260093   7.955   3.888   3.303
19951WAT      O60094   0.504   9.760   7.178
19951WAT     H160095   0.551   9.789   7.094
19951WAT     H260096   0.431   9.825   7.199
19952WAT      O60097   9.613   1.972   2.373
19952WAT     H160098   9.572   2.063   2.362
19952WAT     H260099   9.542   1.902   2.363
19953WAT      O60100   3.985   4.083   4.452
19953WAT     H160101   4.071   4.032   4.452
19953WAT     H260102   3.919   4.037   4.394
19954WAT      O60103   4.238   4.351   0.302
19954WAT     H160104   4.205   4.444   0.287
19954WAT     H260105   4.338   4.350   0.304
19955WAT      O60106   5.277   4.918   8.224
19955WAT     H160107   5.323   4.833   8.197
19955WAT     H260108   5.242   4.909   8.317
19956WAT      O60109   2.403   3.547   8.264
19956WAT     H160110   2.334   3.553   8.336
19956WAT     H260111   2.378   3.475   8.199
19957WAT      O60112   7.521   9.541   4.349
19957WAT     H160113   7.502   9.488   4.431
19957WAT     H260114   7.452   9.520   4.279
19958WAT      O60115   1.120   0.022   7.460
19958WAT     H160116   1.065   0.102   7.484
19958WAT     H260117   1.166   0.039   7.373
19959WAT      O60118   2.603   2.808   0.961
19959WAT     H160119   2.605   2.866   1.043
19959WAT     H260120   2.514   2.817   0.916
19960WAT      O60121   6.790   2.529   2.883
19960WAT     H160122   6.835   2.545   2.971
19960WAT     H260123   6.747   2.613   2.852
19961WAT      O60124   7.685   8.418   7.625
19961WAT     H160125   7.748   8.371   7.564
19961WAT     H260126   7.600   8.437   7.577
19962WAT      O60127   3.247   1.770   9.685
19962WAT     H160128   3.305   1.832   9.737
19962WAT     H260129   3.199   1.821   9.614
19963WAT      O60130   1.817   9.212   9.437
19963WAT     H160131   1.744   9.206   9.505
19963WAT     H260132   1.865   9.124   9.432
19964WAT      O60133   6.250   2.392   6.232
19964WAT     H160134   6.300   2.471   6.197
19964WAT     H260135   6.153   2.402   6.210
19965WAT      O60136   6.717   3.768   9.182
19965WAT     H160137   6.802   3.716   9.168
19965WAT     H260138   6.661   3.723   9.252
19966WAT      O60139   2.808   9.671   6.761
19966WAT     H160140   2.831   9.748   6.821
19966WAT     H260141   2.813   9.586   6.813
19967WAT      O60142   0.648   5.555   5.065
19967WAT     H160143   0.665   5.463   5.028
19967WAT     H260144   0.676   5.558   5.161
19968WAT      O60145   1.375   5.349   1.900
19968WAT     H160146   1.278   5.331   1.880
19968WAT     H260147   1.430   5.329   1.819
19969WAT      O60148   9.605   7.161   6.137
19969WAT     H160149   9.564   7.252   6.140
19969WAT     H260150   9.545   7.096   6.184
19970WAT      O60151   6.653   1.691   5.188
19970WAT     H160152   6.573   1.641   5.223
19970WAT     H260153   6.630   1.731   5.099
19971WAT      O60154   5.003   4.393   0.514
19971WAT     H160155   4.974   4.446   0.434
19971WAT     H260156   5.102   4.403   0.527
19972WAT      O60157   7.071   6.373   9.616
19972WAT     H160158   6.972   6.387   9.624
19972WAT     H260159   7.118   6.443   9.669
19973WAT      O60160   2.820   4.499   1.631
19973WAT     H160161   2.846   4.591   1.657
19973WAT     H260162   2.885   4.464   1.562
19974WAT      O60163   7.203   1.396   2.691
19974WAT     H160164   7.168   1.381   2.783
19974WAT     H260165   7.170   1.483   2.656
19975WAT      O60166   6.248   4.914   6.933
19975WAT     H160167   6.269   5.010   6.915
19975WAT     H260168   6.277   4.858   6.855
19976WAT      O60169   8.220   2.811   9.011
19976WAT     H160170   8.176   2.874   9.075
19976WAT     H260171   8.273   2.863   8.944
19977WAT      O60172   6.648   6.626   8.376
19977WAT     H160173   6.588   6.655   8.301
19977WAT     H260174   6.710   6.700   8.400
19978WAT      O60175   9.171   0.313   6.177
19978WAT     H160176   9.076   0.327   6.203
19978WAT     H260177   9.219   0.401   6.176
19979WAT      O60178   8.291   0.954   2.223
19979WAT     H160179   8.290   1.054   2.219
19979WAT     H260180   8.328   0.917   2.138
19980WAT      O60181   4.562   2.519   0.692
19980WAT     H160182   4.627   2.558   0.626
19980WAT     H260183   4.496   2.462   0.643
19981WAT      O60184   8.868   9.342   9.619
19981WAT     H160185   8.915   9.260   9.586
19981WAT     H260186   8.935   9.414   9.639
19982WAT      O60187   4.740   4.906   9.170
19982WAT     H160188   4.706   4.864   9.253
19982WAT     H260189   4.786   4.837   9.114
19983WAT      O60190   9.850   3.286   1.609
19983WAT     H160191   9.876   3.229   1.531
19983WAT     H260192   9.868   3.236   1.694
19984WAT      O60193   9.131   7.868   8.934
19984WAT     H160194   9.111   7.967   8.932
19984WAT     H260195   9.222   7.852   8.897
19985WAT      O60196   0.937   0.234   7.721
19985WAT     H160197   0.849   0.271   7.748
19985WAT     H260198   0.954   0.255   7.625
19986WAT      O60199   9.607   0.231   3.079
19986WAT     H160200   9.510   0.243   3.060
19986WAT     H260201   9.649   0.179   3.004
19987WAT      O60202   4.762   4.824   8.270
19987WAT     H160203   4.771   4.898   8.336
19987WAT     H260204   4.827   4.838   8.196
19988WAT      O60205   3.539   9.367   8.081
19988WAT     H160206   3.585   9.297   8.136
19988WAT     H260207   3.601   9.398   8.008
19989WAT      O60208   1.066   6.921   2.905
19989WAT     H160209   1.110   6.852   2.847
19989WAT     H260210   1.118   7.006   2.899
19990WAT      O60211   9.851   2.709   2.104
19990WAT     H160212   9.885   2.784   2.047
19990WAT     H260213   9.906   2.627   2.087
19991WAT      O60214   5.607   4.189   9.455
19991WAT     H160215   5.643   4.097   9.468
19991WAT     H260216   5.679   4.248   9.417
19992WAT      O60217   6.973   5.611   7.805
19992WAT     H160218   6.887   5.633   7.759
19992WAT     H260219   6.955   5.592   7.902
19993WAT      O60220   5.277   2.068   2.780
19993WAT     H160221   5.250   2.026   2.866
19993WAT     H260222   5.282   1.998   2.708
19994WAT      O60223   9.091   4.879   0.490
19994WAT     H160224   9.033   4.868   0.409
19994WAT     H260225   9.132   4.970   0.490
19995WAT      O60226   4.561   2.449   9.762
19995WAT     H160227   4.633   2.406   9.816
19995WAT     H260228   4.539   2.392   9.683
19996WAT      O60229   4.938   8.382   3.360
19996WAT     H160230   4.852   8.354   3.401
19996WAT     H260231   4.966   8.313   3.293
19997WAT      O60232   6.262   5.199   3.023
19997WAT     H160233   6.335   5.196   3.091
19997WAT     H260234   6.250   5.292   2.990
19998WAT      O60235   2.408   7.640   8.098
19998WAT     H160236   2.311   7.634   8.120
19998WAT     H260237   2.420   7.627   7.999
19999WAT      O60238   8.021   2.513   7.619
19999WAT     H160239   7.941   2.484   7.671
19999WAT     H260240   7.993   2.573   7.544
20000WAT      O60241   9.053   0.149   2.106
20000WAT     H160242   9.027   0.164   2.201
20000WAT     H260243   9.012   0.064   2.073
20001WAT      O60244   6.165   8.250   7.323
20001WAT     H160245   6.076   8.206   7.311
20001WAT     H260246   6.217   8.202   7.392
20002WAT      O60247   0.325   7.703   7.121
20002WAT     H160248   0.258   7.644   7.077
20002WAT     H260249   0.400   7.722   7.058
20003WAT      O60250   1.272   8.930   3.437
20003WAT     H160251   1.368   8.955   3.420
20003WAT     H260252   1.237   8.984   3.514
20004WAT      O60253   9.734   9.034   9.191
20004WAT     H160254   9.641   9.031   9.228
20004WAT     H260255   9.796   9.067   9.261
20005WAT      O60256   1.769   5.305   1.554
20005WAT     H160257   1.717   5.374   1.604
20005WAT     H260258   1.825   5.252   1.619
20006WAT      O60259   8.005   4.742   7.896
20006WAT     H160260   7.916   4.709   7.925
20006WAT     H260261   8.004   4.842   7.891
20007WAT      O60262   5.900   4.489   9.355
20007WAT     H160263   5.910   4.568   9.415
20007WAT     H260264   5.988   4.465   9.315
20008WAT      O60265   7.040   0.633   3.024
20008WAT     H160266   6.954   0.618   2.976
20008WAT     H260267   7.040   0.583   3.110
20009WAT      O60268   8.669   6.692   3.796
20009WAT     H160269   8.600   6.675   3.866
20009WAT     H260270   8.624   6.700   3.707
20010WAT      O60271   5.314   4.504   0.963
20010WAT     H160272   5.351   4.546   1.046
20010WAT     H260273   5.239   4.442   0.988
20011WAT      O60274   6.781   9.084   3.727
20011WAT     H160275   6.855   9.020   3.704
20011WAT     H260276   6.819   9.176   3.736
20012WAT      O60277   4.065   7.471   5.745
20012WAT     H160278   3.992   7.435   5.687
20012WAT     H260279   4.129   7.398   5.767
20013WAT      O60280   9.230   5.218   1.568
20013WAT     H160281   9.195   5.307   1.598
20013WAT     H260282   9.186   5.145   1.620
20014WAT      O60283   6.417   2.853   3.901
20014WAT     H160284   6.385   2.942   3.934
20014WAT     H260285   6.473   2.865   3.820
20015WAT      O60286   3.421   7.703   7.538
20015WAT     H160287   3.326   7.733   7.527
20015WAT     H260288   3.474   7.775   7.583
20016WAT      O60289   7.576   3.776   4.806
20016WAT     H160290   7.632   3.698   4.777
20016WAT     H260291   7.498   3.743   4.859
20017WAT      O60292   5.564   4.259   4.756
20017WAT     H160293   5.576   4.272   4.855
20017WAT     H260294   5.649   4.283   4.709
20018WAT      O60295   2.204   9.598   9.715
20018WAT     H160296   2.221   9.630   9.622
20018WAT     H260297   2.129   9.532   9.714
20019WAT      O60298   4.862   9.083   2.319
20019WAT     H160299   4.862   9.146   2.241
20019WAT     H260300   4.806   9.003   2.297
20020WAT      O60301   9.793   2.276   2.513
20020WAT     H160302   9.833   2.336   2.443
20020WAT     H260303   9.694   2.269   2.499
20021WAT      O60304   7.441   2.816   9.799
20021WAT     H160305   7.348   2.780   9.810
20021WAT     H260306   7.442   2.884   9.726
20022WAT      O60307   3.413   7.885   5.607
20022WAT     H160308   3.481   7.938   5.557
20022WAT     H260309   3.336   7.863   5.546
20023WAT      O60310   1.736   3.038   0.098
20023WAT     H160311   1.676   2.961   0.076
20023WAT     H260312   1.707   3.079   0.184
20024WAT      O60313   3.759   3.387   5.111
20024WAT     H160314   3.800   3.477   5.128
20024WAT     H260315   3.827   3.315   5.125
20025WAT      O60316   2.016   4.681   9.748
20025WAT     H160317   1.935   4.623   9.760
20025WAT     H260318   2.081   4.635   9.687
20026WAT      O60319   4.112   3.348   9.332
20026WAT     H160320   4.057   3.431   9.337
20026WAT     H260321   4.157   3.343   9.243
20027WAT      O60322   4.543   8.485   9.881
20027WAT     H160323   4.595   8.570   9.892
20027WAT     H260324   4.502   8.482   9.790
20028WAT      O60325   5.530   8.766   2.909
20028WAT     H160326   5.609   8.717   2.872
20028WAT     H260327   5.505   8.729   2.998
20029WAT      O60328   2.533   0.992   0.594
20029WAT     H160329   2.537   0.929   0.516
20029WAT     H260330   2.439   1.023   0.607
20030WAT      O60331   4.278   5.082   5.373
20030WAT     H160332   4.260   5.012   5.304
20030WAT     H260333   4.193   5.132   5.392
20031WAT      O60334   9.026   3.559   0.688
20031WAT     H160335   9.078   3.476   0.707
20031WAT     H260336   8.928   3.537   0.686
20032WAT      O60337   0.483   3.718   5.459
20032WAT     H160338   0.507   3.763   5.372
20032WAT     H260339   0.556   3.732   5.525
20033WAT      O60340   1.487   5.617   7.852
20033WAT     H160341   1.546   5.585   7.778
20033WAT     H260342   1.438   5.539   7.891
20034WAT      O60343   6.109   5.509   0.056
20034WAT     H160344   6.206   5.491   0.037
20034WAT     H260345   6.101   5.591   0.112
20035WAT      O60346   2.686   8.362   5.601
20035WAT     H160347   2.758   8.292   5.607
20035WAT     H260348   2.645   8.375   5.691
20036WAT      O60349   4.542   2.043   9.715
20036WAT     H160350   4.454   2.001   9.693
20036WAT     H260351   4.547   2.059   9.814
20037WAT      O60352   0.572   3.641   6.397
20037WAT     H160353   0.545   3.647   6.493
20037WAT     H260354   0.670   3.661   6.389
20038WAT      O60355   8.503   2.824   5.450
20038WAT     H160356   8.495   2.813   5.549
20038WAT     H260357   8.555   2.748   5.412
20039WAT      O60358   6.392   4.021   7.077
20039WAT     H160359   6.416   3.925   7.061
20039WAT     H260360   6.466   4.065   7.129
20040WAT      O60361   1.713   6.994   3.249
20040WAT     H160362   1.699   6.896   3.260
20040WAT     H260363   1.696   7.019   3.154
20041WAT      O60364   8.519   9.701   7.231
20041WAT     H160365   8.613   9.726   7.211
20041WAT     H260366   8.514   9.605   7.259
20042WAT      O60367   3.931   4.056   9.511
20042WAT     H160368   4.028   4.051   9.534
20042WAT     H260369   3.878   4.082   9.592
20043WAT      O60370   7.360   7.427   7.483
20043WAT     H160371   7.449   7.470   7.468
20043WAT     H260372   7.323   7.397   7.395
20044WAT      O60373   6.366   2.342   7.281
20044WAT     H160374   6.365   2.441   7.295
20044WAT     H260375   6.458   2.313   7.256
20045WAT      O60376   0.880   8.212   5.756
20045WAT     H160377   0.813   8.246   5.822
20045WAT     H260378   0.891   8.114   5.767
20046WAT      O60379   2.225   8.329   0.547
20046WAT     H160380   2.245   8.293   0.638
20046WAT     H260381   2.201   8.254   0.485
20047WAT      O60382   4.281   1.521   9.809
20047WAT     H160383   4.199   1.518   9.752
20047WAT     H260384   4.338   1.598   9.781
20048WAT      O60385   7.932   1.084   2.079
20048WAT     H160386   7.849   1.082   2.024
20048WAT     H260387   8.012   1.079   2.019
20049WAT      O60388   5.822   4.193   6.368
20049WAT     H160389   5.728   4.175   6.341
20049WAT     H260390   5.823   4.238   6.457
20050WAT      O60391   2.911   9.066   6.330
20050WAT     H160392   2.836   9.131   6.320
20050WAT     H260393   2.998   9.116   6.328
20051WAT      O60394   5.698   8.706   1.134
20051WAT     H160395   5.697   8.689   1.232
20051WAT     H260396   5.606   8.731   1.103
20052WAT      O60397   8.779   7.925   2.575
20052WAT     H160398   8.824   7.892   2.493
20052WAT     H260399   8.811   7.874   2.655
20053WAT      O60400   6.952   0.192   7.442
20053WAT     H160401   7.018   0.244   7.388
20053WAT     H260402   6.866   0.184   7.392
20054WAT      O60403   7.626   4.262   6.780
20054WAT     H160404   7.540   4.274   6.830
20054WAT     H260405   7.646   4.345   6.728
20055WAT      O60406   2.537   0.185   8.509
20055WAT     H160407   2.533   0.265   8.567
20055WAT     H260408   2.480   0.200   8.428
20056WAT      O60409   1.491   7.244   4.687
20056WAT     H160410   1.397   7.275   4.706
20056WAT     H260411   1.496   7.213   4.592
20057WAT      O60412   2.788   2.908   5.475
20057WAT     H160413   2.879   2.891   5.511
20057WAT     H260414   2.740   2.821   5.464
20058WAT      O60415   0.884   3.252   6.411
20058WAT     H160416   0.977   3.220   6.397
20058WAT     H260417   0.859   3.316   6.338
20059WAT      O60418   4.475   8.355   3.171
20059WAT     H160419   4.541   8.317   3.105
20059WAT     H260420   4.407   8.411   3.123
20060WAT      O60421   3.425   4.908   7.911
20060WAT     H160422   3.456   4.924   8.005
20060WAT     H260423   3.325   4.911   7.908
20061WAT      O60424   8.585   8.409   4.028
20061WAT     H160425   8.500   8.367   4.057
20061WAT     H260426   8.569   8.505   4.005
20062WAT      O60427   8.699   4.412   7.669
20062WAT     H160428   8.605   4.377   7.664
20062WAT     H260429   8.758   4.342   7.707
20063WAT      O60430   8.348   5.724   1.888
20063WAT     H160431   8.353   5.645   1.828
20063WAT     H260432   8.432   5.731   1.941
20064WAT      O60433   7.426   3.427   7.479
20064WAT     H160434   7.492   3.433   7.404
20064WAT     H260435   7.465   3.374   7.554
20065WAT      O60436   3.029   5.353   3.426
20065WAT     H160437   3.055   5.418   3.355
20065WAT     H260438   3.097   5.353   3.499
20066WAT      O60439   7.128   3.428   6.554
20066WAT     H160440   7.106   3.525   6.562
20066WAT     H260441   7.224   3.413   6.577
20067WAT      O60442   9.423   4.821   2.701
20067WAT     H160443   9.434   4.918   2.679
20067WAT     H260444   9.388   4.812   2.795
20068WAT      O60445   8.113   3.434   3.323
20068WAT     H160446   8.125   3.381   3.239
20068WAT     H260447   8.196   3.428   3.379
20069WAT      O60448   5.844   8.463   4.991
20069WAT     H160449   5.774   8.528   5.019
20069WAT     H260450   5.839   8.382   5.049
20070WAT      O60451   8.717   7.487   1.373
20070WAT     H160452   8.771   7.465   1.292
20070WAT     H260453   8.710   7.406   1.431
20071WAT      O60454   6.870   1.918   3.916
20071WAT     H160455   6.791   1.857   3.920
20071WAT     H260456   6.840   2.013   3.928
20072WAT      O60457   6.001   3.979   8.065
20072WAT     H160458   6.079   4.009   8.120
20072WAT     H260459   6.035   3.933   7.982
20073WAT      O60460   6.073   0.008   2.962
20073WAT     H160461   6.143   0.077   2.979
20073WAT     H260462   5.986   0.038   3.000
20074WAT      O60463   2.971   8.615   6.895
20074WAT     H160464   3.035   8.547   6.858
20074WAT     H260465   2.926   8.577   6.976
20075WAT      O60466   9.889   8.042   8.394
20075WAT     H160467   9.790   8.048   8.377
20075WAT     H260468   9.914   7.947   8.409
20076WAT      O60469   7.697   4.880   2.322
20076WAT     H160470   7.644   4.934   2.388
20076WAT     H260471   7.653   4.887   2.232
20077WAT      O60472   9.648   7.957   0.279
20077WAT     H160473   9.697   7.913   0.203
20077WAT     H260474   9.603   8.040   0.245
20078WAT      O60475   9.385   8.581   4.509
20078WAT     H160476   9.415   8.512   4.443
20078WAT     H260477   9.286   8.590   4.506
20079WAT      O60478   1.431   9.218   1.578
20079WAT     H160479   1.371   9.296   1.594
20079WAT     H260480   1.456   9.215   1.481
20080WAT      O60481   3.089   2.924   8.788
20080WAT     H160482   2.991   2.905   8.784
20080WAT     H260483   3.107   3.012   8.744
20081WAT      O60484   1.059   5.606   3.166
20081WAT     H160485   1.080   5.697   3.201
20081WAT     H260486   1.138   5.545   3.182
20082WAT      O60487   3.394   4.882   0.788
20082WAT     H160488   3.492   4.885   0.808
20082WAT     H260489   3.359   4.791   0.807
20083WAT      O60490   0.898   7.705   3.297
20083WAT     H160491   0.851   7.744   3.376
20083WAT     H260492   0.958   7.631   3.327
20084WAT      O60493   7.980   2.445   8.944
20084WAT     H160494   8.049   2.485   9.004
20084WAT     H260495   8.025   2.384   8.878
20085WAT      O60496   2.529   6.521   3.766
20085WAT     H160497   2.458   6.458   3.734
20085WAT     H260498   2.590   6.544   3.690
20086WAT      O60499   5.263   8.437   3.093
20086WAT     H160500   5.332   8.401   3.155
20086WAT     H260501   5.262   8.537   3.099
20087WAT      O60502   2.693   3.203   3.963
20087WAT     H160503   2.618   3.138   3.976
20087WAT     H260504   2.761   3.189   4.035
20088WAT      O60505   8.989   0.118   7.052
20088WAT     H160506   9.077   0.102   7.096
20088WAT     H260507   8.995   0.200   6.995
20089WAT      O60508   4.280   5.305   7.862
20089WAT     H160509   4.223   5.379   7.826
20089WAT     H260510   4.303   5.241   7.788
20090WAT      O60511   5.620   2.223   1.524
20090WAT     H160512   5.593   2.241   1.429
20090WAT     H260513   5.619   2.309   1.576
20091WAT      O60514   4.576   2.233   2.625
20091WAT     H160515   4.488   2.186   2.632
20091WAT     H260516   4.578   2.311   2.688
20092WAT      O60517   9.113   8.497   5.760
20092WAT     H160518   9.174   8.523   5.835
20092WAT     H260519   9.150   8.417   5.712
20093WAT      O60520   7.537   2.222   6.964
20093WAT     H160521   7.531   2.321   6.959
20093WAT     H260522   7.485   2.181   6.889
20094WAT      O60523   8.423   5.356   6.765
20094WAT     H160524   8.392   5.451   6.768
20094WAT     H260525   8.428   5.319   6.858
20095WAT      O60526   9.740   1.294   8.052
20095WAT     H160527   9.777   1.381   8.019
20095WAT     H260528   9.733   1.230   7.976
20096WAT      O60529   0.095   6.260   5.659
20096WAT     H160530   0.155   6.278   5.582
20096WAT     H260531   0.029   6.189   5.635
20097WAT      O60532   3.959   1.225   8.572
20097WAT     H160533   3.872   1.186   8.542
20097WAT     H260534   3.942   1.301   8.635
20098WAT      O60535   0.276   7.571   8.742
20098WAT     H160536   0.267   7.501   8.672
20098WAT     H260537   0.339   7.539   8.813
20099WAT      O60538   4.905   8.100   2.174
20099WAT     H160539   4.968   8.086   2.097
20099WAT     H260540   4.928   8.185   2.222
20100WAT      O60541   6.680   7.123   1.530
20100WAT     H160542   6.746   7.060   1.572
20100WAT     H260543   6.722   7.213   1.518
20101WAT      O60544   2.600   1.186   9.098
20101WAT     H160545   2.558   1.226   9.017
20101WAT     H260546   2.582   1.245   9.177
20102WAT      O60547   4.609   8.661   6.574
20102WAT     H160548   4.603   8.760   6.564
20102WAT     H260549   4.625   8.638   6.670
20103WAT      O60550   6.416   1.147   2.114
20103WAT     H160551   6.401   1.055   2.149
20103WAT     H260552   6.448   1.206   2.188
20104WAT      O60553   9.101   7.825   1.834
20104WAT     H160554   9.026   7.790   1.890
20104WAT     H260555   9.141   7.906   1.878
20105WAT      O60556   2.859   5.085   5.362
20105WAT     H160557   2.799   5.032   5.302
20105WAT     H260558   2.860   5.180   5.332
20106WAT      O60559   9.741   4.554   1.514
20106WAT     H160560   9.835   4.556   1.549
20106WAT     H260561   9.679   4.590   1.583
20107WAT      O60562   4.988   0.797   6.158
20107WAT     H160563   5.043   0.854   6.097
20107WAT     H260564   4.980   0.705   6.119
20108WAT      O60565   7.292   2.789   9.310
20108WAT     H160566   7.213   2.809   9.251
20108WAT     H260567   7.266   2.722   9.379
20109WAT      O60568   0.369   8.008   9.590
20109WAT     H160569   0.274   8.040   9.588
20109WAT     H260570   0.414   8.044   9.671
20110WAT      O60571   4.991   8.126   7.865
20110WAT     H160572   5.064   8.060   7.885
20110WAT     H260573   5.032   8.215   7.843
20111WAT      O60574   1.807   2.225   0.582
20111WAT     H160575   1.793   2.160   0.507
20111WAT     H260576   1.860   2.304   0.549
20112WAT      O60577   2.798   0.698   0.401
20112WAT     H160578   2.836   0.724   0.489
20112WAT     H260579   2.854   0.626   0.360
20113WAT      O60580   8.432   4.050   2.315
20113WAT     H160581   8.462   3.996   2.236
20113WAT     H260582   8.336   4.077   2.302
20114WAT      O60583   7.242   1.879   2.241
20114WAT     H160584   7.177   1.803   2.230
20114WAT     H260585   7.193   1.965   2.229
20115WAT      O60586   4.043   5.083   4.579
20115WAT     H160587   4.005   5.157   4.635
20115WAT     H260588   3.981   5.064   4.503
20116WAT      O60589   7.438   9.707   8.538
20116WAT     H160590   7.516   9.733   8.481
20116WAT     H260591   7.469   9.695   8.632
20117WAT      O60592   9.309   9.240   0.828
20117WAT     H160593   9.265   9.292   0.901
20117WAT     H260594   9.246   9.170   0.794
20118WAT      O60595   2.531   5.784   4.480
20118WAT     H160596   2.613   5.804   4.427
20118WAT     H260597   2.454   5.767   4.419
20119WAT      O60598   0.753   2.882   1.201
20119WAT     H160599   0.826   2.859   1.266
20119WAT     H260600   0.791   2.882   1.108
20120WAT      O60601   7.130   8.741   8.951
20120WAT     H160602   7.124   8.731   8.852
20120WAT     H260603   7.183   8.665   8.988
20121WAT      O60604   3.942   2.882   6.161
20121WAT     H160605   3.950   2.962   6.101
20121WAT     H260606   3.925   2.801   6.105
20122WAT      O60607   4.634   6.680   7.396
20122WAT     H160608   4.692   6.660   7.475
20122WAT     H260609   4.653   6.773   7.365
20123WAT      O60610   5.916   7.043   3.052
20123WAT     H160611   5.952   7.013   2.964
20123WAT     H260612   5.820   7.019   3.060
20124WAT      O60613   8.614   1.276   6.570
20124WAT     H160614   8.704   1.257   6.610
20124WAT     H260615   8.564   1.190   6.560
20125WAT      O60616   7.994   1.472   3.119
20125WAT     H160617   8.037   1.557   3.088
20125WAT     H260618   7.988   1.408   3.042
20126WAT      O60619   9.426   7.227   5.887
20126WAT     H160620   9.433   7.272   5.976
20126WAT     H260621   9.379   7.140   5.897
20127WAT      O60622   7.138   0.515   2.736
20127WAT     H160623   7.053   0.465   2.749
20127WAT     H260624   7.122   0.613   2.750
20128WAT      O60625   5.208   5.802   1.563
20128WAT     H160626   5.138   5.873   1.566
20128WAT     H260627   5.268   5.810   1.643
20129WAT      O60628   2.689   3.767   0.320
20129WAT     H160629   2.725   3.848   0.367
20129WAT     H260630   2.589   3.769   0.322
20130WAT      O60631   4.658   8.426   2.355
20130WAT     H160632   4.622   8.335   2.375
20130WAT     H260633   4.660   8.479   2.439
20131WAT      O60634   1.561   2.265   3.377
20131WAT     H160635   1.508   2.237   3.457
20131WAT     H260636   1.649   2.303   3.407
20132WAT      O60637   3.532   5.436   6.578
20132WAT     H160638   3.567   5.422   6.485
20132WAT     H260639   3.504   5.531   6.589
20133WAT      O60640   0.585   2.680   6.581
20133WAT     H160641   0.566   2.737   6.501
20133WAT     H260642   0.649   2.728   6.641
20134WAT      O60643   6.891   4.983   4.739
20134WAT     H160644   6.850   5.020   4.822
20134WAT     H260645   6.824   4.927   4.691
20135WAT      O60646   7.098   0.612   4.760
20135WAT     H160647   7.053   0.681   4.704
20135WAT     H260648   7.160   0.657   4.825
20136WAT      O60649   9.634   9.754   7.348
20136WAT     H160650   9.647   9.848   7.315
20136WAT     H260651   9.567   9.708   7.290
20137WAT      O60652   8.601   7.158   6.898
20137WAT     H160653   8.648   7.207   6.825
20137WAT     H260654   8.618   7.204   6.986
20138WAT      O60655   3.595   0.495   7.563
20138WAT     H160656   3.580   0.401   7.593
20138WAT     H260657   3.554   0.558   7.629
20139WAT      O60658   8.100   7.671   8.514
20139WAT     H160659   8.008   7.666   8.476
20139WAT     H260660   8.107   7.610   8.594
20140WAT      O60661   3.583   2.085   5.693
20140WAT     H160662   3.488   2.116   5.690
20140WAT     H260663   3.594   2.016   5.765
20141WAT      O60664   8.170   0.494   2.158
20141WAT     H160665   8.184   0.477   2.256
20141WAT     H260666   8.104   0.568   2.146
20142WAT      O60667   0.497   3.173   4.419
20142WAT     H160668   0.562   3.098   4.429
20142WAT     H260669   0.405   3.141   4.443
20143WAT      O60670   1.437   7.465   1.500
20143WAT     H160671   1.521   7.510   1.531
20143WAT     H260672   1.420   7.488   1.404
20144WAT      O60673   9.089   0.456   7.959
20144WAT     H160674   9.070   0.530   7.895
20144WAT     H260675   9.042   0.373   7.930
20145WAT      O60676   0.982   7.208   9.875
20145WAT     H160677   0.932   7.229   9.791
20145WAT     H260678   0.950   7.267   9.949
20146WAT      O60679   9.515   8.353   0.797
20146WAT     H160680   9.465   8.433   0.763
20146WAT     H260681   9.575   8.319   0.725
20147WAT      O60682   6.722   5.308   5.155
20147WAT     H160683   6.714   5.400   5.116
20147WAT     H260684   6.632   5.263   5.153
20148WAT      O60685   5.149   1.599   8.372
20148WAT     H160686   5.236   1.597   8.422
20148WAT     H260687   5.137   1.690   8.332
20149WAT      O60688   5.426   1.681   1.506
20149WAT     H160689   5.327   1.676   1.508
20149WAT     H260690   5.455   1.776   1.500
20150WAT      O60691   4.561   9.149   2.189
20150WAT     H160692   4.572   9.191   2.099
20150WAT     H260693   4.603   9.058   2.188
20151WAT      O60694   1.031   7.501   2.510
20151WAT     H160695   1.115   7.553   2.496
20151WAT     H260696   1.004   7.459   2.423
20152WAT      O60697   9.766   9.800   6.306
20152WAT     H160698   9.822   9.720   6.333
20152WAT     H260699   9.670   9.774   6.305
20153WAT      O60700   8.613   4.844   3.831
20153WAT     H160701   8.600   4.853   3.930
20153WAT     H260702   8.569   4.760   3.799
20154WAT      O60703   5.349   0.160   1.364
20154WAT     H160704   5.371   0.063   1.371
20154WAT     H260705   5.265   0.179   1.414
20155WAT      O60706   8.017   3.363   7.600
20155WAT     H160707   8.116   3.361   7.613
20155WAT     H260708   7.992   3.443   7.544
20156WAT      O60709   5.202   1.185   1.671
20156WAT     H160710   5.284   1.240   1.682
20156WAT     H260711   5.154   1.179   1.759
20157WAT      O60712   4.902   0.635   4.669
20157WAT     H160713   4.856   0.553   4.638
20157WAT     H260714   4.851   0.716   4.639
20158WAT      O60715   9.003   7.133   5.509
20158WAT     H160716   9.098   7.111   5.531
20158WAT     H260717   9.000   7.206   5.441
20159WAT      O60718   6.702   5.993   4.651
20159WAT     H160719   6.613   6.035   4.637
20159WAT     H260720   6.774   6.056   4.622
20160WAT      O60721   1.167   8.396   5.352
20160WAT     H160722   1.266   8.395   5.367
20160WAT     H260723   1.139   8.486   5.319
20161WAT      O60724   0.853   8.883   6.970
20161WAT     H160725   0.942   8.917   7.001
20161WAT     H260726   0.847   8.893   6.871
20162WAT      O60727   6.402   4.248   2.068
20162WAT     H160728   6.319   4.196   2.091
20162WAT     H260729   6.410   4.326   2.130
20163WAT      O60730   0.561   2.899   1.969
20163WAT     H160731   0.564   2.894   2.069
20163WAT     H260732   0.505   2.976   1.940
20164WAT      O60733   9.341   7.316   2.094
20164WAT     H160734   9.248   7.353   2.093
20164WAT     H260735   9.368   7.297   2.189
20165WAT      O60736   1.637   6.759   5.559
20165WAT     H160737   1.737   6.763   5.565
20165WAT     H260738   1.606   6.665   5.573
20166WAT      O60739   3.925   8.702   3.704
20166WAT     H160740   3.982   8.633   3.660
20166WAT     H260741   3.832   8.697   3.667
20167WAT      O60742   4.780   0.805   3.429
20167WAT     H160743   4.815   0.774   3.517
20167WAT     H260744   4.839   0.771   3.355
20168WAT      O60745   6.826   7.558   5.505
20168WAT     H160746   6.779   7.627   5.560
20168WAT     H260747   6.838   7.592   5.411
20169WAT      O60748   1.028   4.626   9.309
20169WAT     H160749   1.046   4.646   9.213
20169WAT     H260750   0.948   4.566   9.317
20170WAT      O60751   7.041   2.106   4.971
20170WAT     H160752   6.981   2.129   4.895
20170WAT     H260753   7.119   2.169   4.972
20171WAT      O60754   3.456   2.756   6.181
20171WAT     H160755   3.484   2.731   6.274
20171WAT     H260756   3.504   2.840   6.153
20172WAT      O60757   7.769   8.348   6.165
20172WAT     H160758   7.780   8.426   6.227
20172WAT     H260759   7.845   8.347   6.100
20173WAT      O60760   7.250   9.126   8.852
20173WAT     H160761   7.252   9.182   8.769
20173WAT     H260762   7.158   9.127   8.891
20174WAT      O60763   8.002   0.675   3.962
20174WAT     H160764   8.091   0.703   3.996
20174WAT     H260765   7.976   0.589   4.005
20175WAT      O60766   8.895   7.044   3.105
20175WAT     H160767   8.912   7.142   3.114
20175WAT     H260768   8.921   6.997   3.189
20176WAT      O60769   0.640   6.078   6.176
20176WAT     H160770   0.718   6.049   6.231
20176WAT     H260771   0.618   6.008   6.109
20177WAT      O60772   4.480   8.405   5.437
20177WAT     H160773   4.501   8.494   5.395
20177WAT     H260774   4.537   8.391   5.518
20178WAT      O60775   9.111   9.839   7.831
20178WAT     H160776   9.078   9.883   7.915
20178WAT     H260777   9.153   9.751   7.854
20179WAT      O60778   2.925   3.020   7.494
20179WAT     H160779   2.889   2.928   7.474
20179WAT     H260780   2.973   3.018   7.582
20180WAT      O60781   7.523   3.207   3.457
20180WAT     H160782   7.544   3.194   3.361
20180WAT     H260783   7.424   3.202   3.470
20181WAT      O60784   4.633   2.947   8.177
20181WAT     H160785   4.687   2.864   8.161
20181WAT     H260786   4.694   3.022   8.204
20182WAT      O60787   9.587   8.046   7.369
20182WAT     H160788   9.545   8.136   7.373
20182WAT     H260789   9.679   8.054   7.329
20183WAT      O60790   3.488   0.863   5.690
20183WAT     H160791   3.576   0.873   5.642
20183WAT     H260792   3.436   0.788   5.649
20184WAT      O60793   7.224   4.631   0.445
20184WAT     H160794   7.271   4.543   0.444
20184WAT     H260795   7.270   4.692   0.510
20185WAT      O60796   3.405   4.760   6.663
20185WAT     H160797   3.447   4.674   6.636
20185WAT     H260798   3.330   4.741   6.727
20186WAT      O60799   1.619   2.351   7.335
20186WAT     H160800   1.550   2.300   7.386
20186WAT     H260801   1.606   2.337   7.237
20187WAT      O60802   8.070   5.246   9.247
20187WAT     H160803   8.069   5.179   9.173
20187WAT     H260804   8.149   5.229   9.307
20188WAT      O60805   0.913   8.471   4.041
20188WAT     H160806   1.000   8.520   4.048
20188WAT     H260807   0.917   8.388   4.098
20189WAT      O60808   2.512   9.315   4.419
20189WAT     H160809   2.426   9.276   4.452
20189WAT     H260810   2.572   9.241   4.389
20190WAT      O60811   5.914   2.315   6.751
20190WAT     H160812   5.970   2.341   6.672
20190WAT     H260813   5.839   2.380   6.762
20191WAT      O60814   2.782   8.546   9.195
20191WAT     H160815   2.778   8.447   9.210
20191WAT     H260816   2.710   8.591   9.247
20192WAT      O60817   7.901   1.296   5.109
20192WAT     H160818   7.941   1.315   5.019
20192WAT     H260819   7.922   1.372   5.171
20193WAT      O60820   4.412   1.903   0.604
20193WAT     H160821   4.383   1.955   0.684
20193WAT     H260822   4.332   1.876   0.551
20194WAT      O60823   9.453   2.195   0.685
20194WAT     H160824   9.385   2.127   0.714
20194WAT     H260825   9.474   2.256   0.762
20195WAT      O60826   7.935   6.649   2.960
20195WAT     H160827   7.898   6.740   2.943
20195WAT     H260828   8.032   6.646   2.935
20196WAT      O60829   7.880   8.139   3.481
20196WAT     H160830   7.815   8.137   3.405
20196WAT     H260831   7.853   8.071   3.549
20197WAT      O60832   1.165   2.281   6.687
20197WAT     H160833   1.202   2.225   6.614
20197WAT     H260834   1.120   2.362   6.649
20198WAT      O60835   9.448   1.371   3.675
20198WAT     H160836   9.360   1.419   3.671
20198WAT     H260837   9.461   1.335   3.767
20199WAT      O60838   8.243   0.595   7.785
20199WAT     H160839   8.328   0.584   7.836
20199WAT     H260840   8.265   0.624   7.692
20200WAT      O60841   6.045   6.695   4.818
20200WAT     H160842   5.973   6.716   4.752
20200WAT     H260843   6.117   6.764   4.811
20201WAT      O60844   3.320   6.747   5.869
20201WAT     H160845   3.389   6.754   5.941
20201WAT     H260846   3.301   6.838   5.832
20202WAT      O60847   3.403   5.019   0.550
20202WAT     H160848   3.363   4.976   0.631
20202WAT     H260849   3.458   5.098   0.578
20203WAT      O60850   7.867   3.015   3.619
20203WAT     H160851   7.893   3.099   3.666
20203WAT     H260852   7.810   2.959   3.680
20204WAT      O60853   1.721   2.062   3.250
20204WAT     H160854   1.695   2.147   3.295
20204WAT     H260855   1.646   2.030   3.192
20205WAT      O60856   3.603   2.895   2.041
20205WAT     H160857   3.530   2.891   1.973
20205WAT     H260858   3.635   2.989   2.051
20206WAT      O60859   5.851   6.718   2.173
20206WAT     H160860   5.892   6.631   2.149
20206WAT     H260861   5.919   6.776   2.218
20207WAT      O60862   5.615   2.425   1.703
20207WAT     H160863   5.571   2.453   1.788
20207WAT     H260864   5.714   2.428   1.714
20208WAT      O60865   3.105   5.072   7.270
20208WAT     H160866   3.022   5.126   7.285
20208WAT     H260867   3.081   4.975   7.271
20209WAT      O60868   4.687   8.753   6.112
20209WAT     H160869   4.708   8.655   6.110
20209WAT     H260870   4.761   8.803   6.068
20210WAT      O60871   4.843   8.076   3.350
20210WAT     H160872   4.770   8.091   3.418
20210WAT     H260873   4.924   8.039   3.396
20211WAT      O60874   9.880   5.608   1.415
20211WAT     H160875   9.854   5.526   1.365
20211WAT     H260876   9.943   5.663   1.360
20212WAT      O60877   5.804   8.434   5.437
20212WAT     H160878   5.712   8.437   5.397
20212WAT     H260879   5.833   8.527   5.458
20213WAT      O60880   2.835   4.450   2.451
20213WAT     H160881   2.750   4.446   2.398
20213WAT     H260882   2.813   4.447   2.549
20214WAT      O60883   7.812   2.597   6.979
20214WAT     H160884   7.817   2.517   7.039
20214WAT     H260885   7.880   2.665   7.008
20215WAT      O60886   1.833   3.949   2.208
20215WAT     H160887   1.901   3.943   2.135
20215WAT     H260888   1.743   3.924   2.173
20216WAT      O60889   8.719   6.726   0.341
20216WAT     H160890   8.702   6.817   0.377
20216WAT     H260891   8.634   6.688   0.304
20217WAT      O60892   6.192   1.635   2.461
20217WAT     H160893   6.106   1.681   2.440
20217WAT     H260894   6.247   1.694   2.521
20218WAT      O60895   7.253   9.231   2.699
20218WAT     H160896   7.343   9.235   2.742
20218WAT     H260897   7.199   9.311   2.728
20219WAT      O60898   9.125   7.404   0.305
20219WAT     H160899   9.192   7.470   0.270
20219WAT     H260900   9.103   7.426   0.400
20220WAT      O60901   6.277   6.193   5.955
20220WAT     H160902   6.337   6.263   5.916
20220WAT     H260903   6.285   6.109   5.901
20221WAT      O60904   3.628   9.140   3.096
20221WAT     H160905   3.675   9.110   3.179
20221WAT     H260906   3.554   9.203   3.121
20222WAT      O60907   0.404   4.907   0.009
20222WAT     H160908   0.493   4.915  -0.036
20222WAT     H260909   0.404   4.825   0.067
20223WAT      O60910   7.537   8.425   6.010
20223WAT     H160911   7.466   8.373   5.962
20223WAT     H260912   7.593   8.362   6.063
20224WAT      O60913   6.768   7.375   1.525
20224WAT     H160914   6.696   7.417   1.470
20224WAT     H260915   6.852   7.428   1.515
20225WAT      O60916   0.955   7.387   0.886
20225WAT     H160917   0.955   7.446   0.805
20225WAT     H260918   0.861   7.371   0.915
20226WAT      O60919   9.181   1.612   9.708
20226WAT     H160920   9.166   1.521   9.747
20226WAT     H260921   9.259   1.608   9.645
20227WAT      O60922   8.714   6.050   5.123
20227WAT     H160923   8.723   5.961   5.078
20227WAT     H260924   8.763   6.119   5.070
20228WAT      O60925   6.305   1.970   8.148
20228WAT     H160926   6.262   1.943   8.235
20228WAT     H260927   6.404   1.976   8.160
20229WAT      O60928   3.030   5.179   1.017
20229WAT     H160929   3.085   5.179   0.934
20229WAT     H260930   3.071   5.240   1.084
20230WAT      O60931   7.905   1.190   1.118
20230WAT     H160932   7.966   1.205   1.196
20230WAT     H260933   7.824   1.248   1.128
20231WAT      O60934   3.535   2.027   0.527
20231WAT     H160935   3.587   1.970   0.464
20231WAT     H260936   3.501   1.971   0.603
20232WAT      O60937   9.876   9.314   0.385
20232WAT     H160938   9.863   9.219   0.355
20232WAT     H260939   9.804   9.339   0.450
20233WAT      O60940   4.549   4.350   5.032
20233WAT     H160941   4.592   4.416   4.970
20233WAT     H260942   4.486   4.292   4.981
20234WAT      O60943   3.627   5.373   9.711
20234WAT     H160944   3.608   5.395   9.807
20234WAT     H260945   3.648   5.276   9.702
20235WAT      O60946   0.728   8.362   8.102
20235WAT     H160947   0.637   8.403   8.110
20235WAT     H260948   0.794   8.416   8.155
20236WAT      O60949   9.415   0.990   1.878
20236WAT     H160950   9.377   1.043   1.802
20236WAT     H260951   9.459   1.052   1.943
20237WAT      O60952   1.458   0.262   5.908
20237WAT     H160953   1.483   0.204   5.986
20237WAT     H260954   1.376   0.315   5.932
20238WAT      O60955   5.946   7.220   5.075
20238WAT     H160956   5.929   7.256   5.167
20238WAT     H260957   5.887   7.142   5.058
20239WAT      O60958   4.251   4.541   6.674
20239WAT     H160959   4.343   4.503   6.685
20239WAT     H260960   4.256   4.622   6.615
20240WAT      O60961   0.267   8.878   2.791
20240WAT     H160962   0.224   8.924   2.869
20240WAT     H260963   0.321   8.943   2.739
20241WAT      O60964   5.159   9.192   4.080
20241WAT     H160965   5.216   9.114   4.106
20241WAT     H260966   5.071   9.186   4.127
20242WAT      O60967   2.658   7.301   1.614
20242WAT     H160968   2.595   7.274   1.541
20242WAT     H260969   2.743   7.335   1.573
20243WAT      O60970   2.832   4.872   1.186
20243WAT     H160971   2.919   4.846   1.228
20243WAT     H260972   2.809   4.965   1.212
20244WAT      O60973   3.031   6.568   1.970
20244WAT     H160974   3.008   6.501   2.040
20244WAT     H260975   3.020   6.527   1.880
20245WAT      O60976   4.336   4.217   3.218
20245WAT     H160977   4.263   4.285   3.213
20245WAT     H260978   4.297   4.126   3.203
20246WAT      O60979   0.439   1.086   8.714
20246WAT     H160980   0.502   1.031   8.659
20246WAT     H260981   0.373   1.132   8.654
20247WAT      O60982   2.838   6.590   8.475
20247WAT     H160983   2.757   6.533   8.468
20247WAT     H260984   2.852   6.638   8.388
20248WAT      O60985   3.963   3.571   9.387
20248WAT     H160986   3.949   3.660   9.342
20248WAT     H260987   3.875   3.526   9.398
20249WAT      O60988   3.770   3.419   6.853
20249WAT     H160989   3.750   3.371   6.767
20249WAT     H260990   3.694   3.408   6.916
20250WAT      O60991   0.318   1.632   2.997
20250WAT     H160992   0.364   1.632   3.085
20250WAT     H260993   0.274   1.720   2.982
20251WAT      O60994   0.576   8.185   5.686
20251WAT     H160995   0.666   8.227   5.696
20251WAT     H260996   0.507   8.244   5.727
20252WAT      O60997   4.091   8.085   7.891
20252WAT     H160998   4.026   8.154   7.924
20252WAT     H260999   4.135   8.119   7.808
20253WAT      O61000   7.319   5.317   5.199
20253WAT     H161001   7.271   5.229   5.210
20253WAT     H261002   7.257   5.392   5.221
20254WAT      O61003   4.325   9.783   2.127
20254WAT     H161004   4.382   9.802   2.047
20254WAT     H261005   4.324   9.863   2.187
20255WAT      O61006   7.595   3.045   6.013
20255WAT     H161007   7.553   3.054   6.103
20255WAT     H261008   7.573   3.125   5.957
20256WAT      O61009   3.768   7.185   2.012
20256WAT     H161010   3.757   7.123   2.090
20256WAT     H261011   3.851   7.161   1.961
20257WAT      O61012   5.879   6.433   0.767
20257WAT     H161013   5.904   6.525   0.739
20257WAT     H261014   5.961   6.377   0.775
20258WAT      O61015   1.436   3.292   7.145
20258WAT     H161016   1.383   3.350   7.206
20258WAT     H261017   1.375   3.249   7.078
20259WAT      O61018   6.507   5.067   5.155
20259WAT     H161019   6.481   5.058   5.251
20259WAT     H261020   6.464   5.148   5.115
20260WAT      O61021   2.377   6.912   7.439
20260WAT     H161022   2.362   6.956   7.527
20260WAT     H261023   2.292   6.867   7.410
20261WAT      O61024   2.483   7.540   4.052
20261WAT     H161025   2.569   7.524   4.004
20261WAT     H261026   2.500   7.538   4.151
20262WAT      O61027   3.122   0.497   4.016
20262WAT     H161028   3.220   0.485   4.032
20262WAT     H261029   3.107   0.576   3.957
20263WAT      O61030   6.347   7.929   8.454
20263WAT     H161031   6.250   7.954   8.452
20263WAT     H261032   6.373   7.888   8.367
20264WAT      O61033   3.958   2.192   9.791
20264WAT     H161034   3.894   2.268   9.806
20264WAT     H261035   3.999   2.201   9.701
20265WAT      O61036   8.932   3.836   0.117
20265WAT     H161037   8.886   3.790   0.041
20265WAT     H261038   8.866   3.893   0.166
20266WAT      O61039   6.991   9.386   1.167
20266WAT     H161040   7.058   9.459   1.169
20266WAT     H261041   7.025   9.308   1.219
20267WAT      O61042   8.421   7.669   4.143
20267WAT     H161043   8.393   7.582   4.101
20267WAT     H261044   8.521   7.674   4.142
20268WAT      O61045   0.907   9.269   5.091
20268WAT     H161046   0.958   9.349   5.121
20268WAT     H261047   0.878   9.281   4.996
20269WAT      O61048   7.980   3.457   1.797
20269WAT     H161049   8.045   3.525   1.830
20269WAT     H261050   7.971   3.464   1.698
20270WAT      O61051   9.551   9.478   8.429
20270WAT     H161052   9.636   9.529   8.442
20270WAT     H261053   9.542   9.452   8.333
20271WAT      O61054   9.089   3.471   5.604
20271WAT     H161055   9.057   3.422   5.686
20271WAT     H261056   9.112   3.565   5.629
20272WAT      O61057   8.889   1.407   5.902
20272WAT     H161058   8.828   1.364   5.835
20272WAT     H261059   8.860   1.381   5.994
20273WAT      O61060   5.745   0.163   2.713
20273WAT     H161061   5.777   0.124   2.800
20273WAT     H261062   5.804   0.240   2.688
20274WAT      O61063   5.625   2.330   0.954
20274WAT     H161064   5.723   2.343   0.970
20274WAT     H261065   5.611   2.301   0.859
20275WAT      O61066   3.141   3.790   9.655
20275WAT     H161067   3.160   3.708   9.601
20275WAT     H261068   3.227   3.829   9.688
20276WAT      O61069   8.778   4.226   0.960
20276WAT     H161070   8.801   4.243   0.864
20276WAT     H261071   8.849   4.265   1.019
20277WAT      O61072   6.962   3.219   6.678
20277WAT     H161073   6.982   3.183   6.769
20277WAT     H261074   7.019   3.299   6.660
20278WAT      O61075   7.147   7.260   7.856
20278WAT     H161076   7.075   7.260   7.925
20278WAT     H261077   7.112   7.303   7.772
20279WAT      O61078   4.024   4.564   5.845
20279WAT     H161079   4.080   4.483   5.829
20279WAT     H261080   3.927   4.538   5.844
20280WAT      O61081   0.395   7.417   8.937
20280WAT     H161082   0.470   7.357   8.965
20280WAT     H261083   0.314   7.398   8.992
20281WAT      O61084   6.594   8.321   9.615
20281WAT     H161085   6.496   8.338   9.629
20281WAT     H261086   6.609   8.284   9.524
20282WAT      O61087   6.498   6.995   0.703
20282WAT     H161088   6.559   7.059   0.657
20282WAT     H261089   6.503   7.009   0.802
20283WAT      O61090   3.783   3.780   0.229
20283WAT     H161091   3.882   3.776   0.213
20283WAT     H261092   3.765   3.825   0.316
20284WAT      O61093   7.060   9.398   5.843
20284WAT     H161094   7.055   9.367   5.748
20284WAT     H261095   7.076   9.319   5.903
20285WAT      O61096   3.729   6.509   9.009
20285WAT     H161097   3.820   6.481   8.980
20285WAT     H261098   3.714   6.483   9.105
20286WAT      O61099   2.957   1.160   3.541
20286WAT     H161100   2.902   1.093   3.491
20286WAT     H261101   2.932   1.159   3.637
20287WAT      O61102   9.438   7.025   9.851
20287WAT     H161103   9.476   7.107   9.809
20287WAT     H261104   9.362   7.051   9.911
20288WAT      O61105   0.550   3.263   9.601
20288WAT     H161106   0.499   3.254   9.687
20288WAT     H261107   0.486   3.284   9.527
20289WAT      O61108   2.023   9.413   9.668
20289WAT     H161109   1.962   9.343   9.705
20289WAT     H261110   2.072   9.376   9.589
20290WAT      O61111   2.523   3.905   8.606
20290WAT     H161112   2.449   3.899   8.672
20290WAT     H261113   2.602   3.949   8.648
20291WAT      O61114   8.588   3.607   9.484
20291WAT     H161115   8.604   3.692   9.433
20291WAT     H261116   8.561   3.628   9.578
20292WAT      O61117   3.909   2.869   4.248
20292WAT     H161118   3.885   2.774   4.229
20292WAT     H261119   4.008   2.876   4.265
20293WAT      O61120   3.690   4.695   4.286
20293WAT     H161121   3.604   4.715   4.333
20293WAT     H261122   3.676   4.701   4.187
20294WAT      O61123   2.180   0.448   1.992
20294WAT     H161124   2.191   0.519   2.060
20294WAT     H261125   2.091   0.403   2.003
20295WAT      O61126   1.232   0.529   0.417
20295WAT     H161127   1.285   0.598   0.468
20295WAT     H261128   1.205   0.566   0.329
20296WAT      O61129   4.421   8.955   2.053
20296WAT     H161130   4.426   8.894   1.974
20296WAT     H261131   4.400   9.048   2.021
20297WAT      O61132   2.617   2.869   8.285
20297WAT     H161133   2.640   2.774   8.306
20297WAT     H261134   2.701   2.921   8.270
20298WAT      O61135   2.934   1.789   6.709
20298WAT     H161136   2.899   1.849   6.637
20298WAT     H261137   2.858   1.757   6.765
20299WAT      O61138   1.415   6.740   3.953
20299WAT     H161139   1.447   6.827   3.990
20299WAT     H261140   1.318   6.729   3.976
20300WAT      O61141   2.326   2.247   1.994
20300WAT     H161142   2.351   2.341   1.971
20300WAT     H261143   2.237   2.246   2.039
20301WAT      O61144   5.603   5.395   6.529
20301WAT     H161145   5.610   5.361   6.435
20301WAT     H261146   5.555   5.328   6.585
20302WAT      O61147   7.347   0.717   5.990
20302WAT     H161148   7.421   0.697   6.054
20302WAT     H261149   7.385   0.753   5.905
20303WAT      O61150   0.115   9.512   0.291
20303WAT     H161151   0.080   9.590   0.343
20303WAT     H261152   0.076   9.427   0.327
20304WAT      O61153   7.220   4.066   7.486
20304WAT     H161154   7.188   4.158   7.509
20304WAT     H261155   7.173   3.999   7.543
20305WAT      O61156   1.310   3.839   2.063
20305WAT     H161157   1.288   3.919   2.120
20305WAT     H261158   1.277   3.756   2.107
20306WAT      O61159   1.416   4.582   8.632
20306WAT     H161160   1.506   4.573   8.589
20306WAT     H261161   1.346   4.555   8.566
20307WAT      O61162   0.490   3.936   7.439
20307WAT     H161163   0.560   3.933   7.368
20307WAT     H261164   0.402   3.910   7.399
20308WAT      O61165   8.385   6.925   0.485
20308WAT     H161166   8.409   6.867   0.407
20308WAT     H261167   8.295   6.966   0.469
20309WAT      O61168   9.798   6.177   1.134
20309WAT     H161169   9.737   6.250   1.105
20309WAT     H261170   9.744   6.094   1.151
20310WAT      O61171   0.436   7.355   6.232
20310WAT     H161172   0.430   7.328   6.329
20310WAT     H261173   0.365   7.423   6.212
20311WAT      O61174   5.705   6.241   0.443
20311WAT     H161175   5.796   6.225   0.405
20311WAT     H261176   5.640   6.256   0.369
20312WAT      O61177   7.261   7.527   5.637
20312WAT     H161178   7.348   7.495   5.600
20312WAT     H261179   7.207   7.449   5.668
20313WAT      O61180   5.647   8.701   3.886
20313WAT     H161181   5.555   8.709   3.925
20313WAT     H261182   5.691   8.618   3.920
20314WAT      O61183   5.812   1.702   3.418
20314WAT     H161184   5.717   1.682   3.442
20314WAT     H261185   5.815   1.782   3.357
20315WAT      O61186   8.425   0.916   3.133
20315WAT     H161187   8.450   0.828   3.174
20315WAT     H261188   8.475   0.989   3.180
20316WAT      O61189   3.227   9.453   6.040
20316WAT     H161190   3.249   9.361   6.074
20316WAT     H261191   3.269   9.521   6.099
20317WAT      O61192   1.838   0.623   5.879
20317WAT     H161193   1.743   0.601   5.901
20317WAT     H261194   1.888   0.640   5.964
20318WAT      O61195   6.781   0.840   6.424
20318WAT     H161196   6.748   0.926   6.462
20318WAT     H261197   6.735   0.764   6.469
20319WAT      O61198   8.515   3.408   7.789
20319WAT     H161199   8.466   3.493   7.808
20319WAT     H261200   8.559   3.376   7.873
20320WAT      O61201   8.692   7.662   4.781
20320WAT     H161202   8.724   7.569   4.796
20320WAT     H261203   8.616   7.682   4.842
20321WAT      O61204   5.480   4.466   1.899
20321WAT     H161205   5.415   4.532   1.861
20321WAT     H261206   5.510   4.404   1.827
20322WAT      O61207   7.761   6.676   5.301
20322WAT     H161208   7.821   6.624   5.362
20322WAT     H261209   7.742   6.621   5.219
20323WAT      O61210   8.836   0.902   2.884
20323WAT     H161211   8.741   0.908   2.913
20323WAT     H261212   8.842   0.849   2.799
20324WAT      O61213   8.294   2.777   4.208
20324WAT     H161214   8.302   2.697   4.267
20324WAT     H261215   8.376   2.834   4.219
20325WAT      O61216   0.140   3.032   3.209
20325WAT     H161217   0.141   3.131   3.193
20325WAT     H261218   0.233   3.000   3.226
20326WAT      O61219   9.310   9.556   4.824
20326WAT     H161220   9.320   9.648   4.861
20326WAT     H261221   9.265   9.559   4.735
20327WAT      O61222   7.119   3.719   7.485
20327WAT     H161223   7.142   3.681   7.395
20327WAT     H261224   7.024   3.750   7.484
20328WAT      O61225   5.340   7.125   2.299
20328WAT     H161226   5.339   7.224   2.313
20328WAT     H261227   5.349   7.106   2.201
20329WAT      O61228   9.021   4.659   9.616
20329WAT     H161229   9.051   4.570   9.583
20329WAT     H261230   8.976   4.709   9.542
20330WAT      O61231   6.868   8.489   3.874
20330WAT     H161232   6.790   8.430   3.855
20330WAT     H261233   6.839   8.585   3.869
20331WAT      O61234   4.713   0.592   3.207
20331WAT     H161235   4.791   0.540   3.240
20331WAT     H261236   4.634   0.574   3.266
20332WAT      O61237   8.168   2.266   7.624
20332WAT     H161238   8.121   2.353   7.634
20332WAT     H261239   8.171   2.219   7.713
20333WAT      O61240   2.135   2.062   0.200
20333WAT     H161241   2.191   2.053   0.118
20333WAT     H261242   2.084   1.978   0.214
20334WAT      O61243   8.862   7.805   2.800
20334WAT     H161244   8.948   7.755   2.812
20334WAT     H261245   8.853   7.875   2.871
20335WAT      O61246   6.150   6.247   2.949
20335WAT     H161247   6.225   6.274   2.890
20335WAT     H261248   6.157   6.295   3.037
20336WAT      O61249   3.023   8.209   2.171
20336WAT     H161250   3.110   8.161   2.182
20336WAT     H261251   2.956   8.149   2.127
20337WAT      O61252   4.568   5.252   2.455
20337WAT     H161253   4.509   5.256   2.375
20337WAT     H261254   4.664   5.253   2.427
20338WAT      O61255   1.816   7.507   8.152
20338WAT     H161256   1.863   7.579   8.100
20338WAT     H261257   1.879   7.466   8.217
20339WAT      O61258   6.668   2.511   3.366
20339WAT     H161259   6.669   2.423   3.320
20339WAT     H261260   6.602   2.572   3.322
20340WAT      O61261   2.466   4.925   3.773
20340WAT     H161262   2.534   4.867   3.817
20340WAT     H261263   2.420   4.981   3.842
20341WAT      O61264   9.444   2.501   6.417
20341WAT     H161265   9.484   2.578   6.467
20341WAT     H261266   9.355   2.527   6.380
20342WAT      O61267   8.790   5.129   5.416
20342WAT     H161268   8.749   5.208   5.370
20342WAT     H261269   8.761   5.045   5.369
20343WAT      O61270   4.697   6.023   2.340
20343WAT     H161271   4.680   6.090   2.412
20343WAT     H261272   4.641   6.045   2.260
20344WAT      O61273   7.489   2.904   6.864
20344WAT     H161274   7.518   2.844   6.789
20344WAT     H261275   7.406   2.953   6.839
20345WAT      O61276   0.924   8.022   8.977
20345WAT     H161277   0.975   8.011   9.062
20345WAT     H261278   0.971   8.088   8.918
20346WAT      O61279   8.528   8.009   6.961
20346WAT     H161280   8.545   8.016   6.863
20346WAT     H261281   8.454   8.071   6.987
20347WAT      O61282   3.128   2.311   0.448
20347WAT     H161283   3.084   2.242   0.390
20347WAT     H261284   3.201   2.268   0.501
20348WAT      O61285   8.601   9.314   6.036
20348WAT     H161286   8.680   9.265   6.073
20348WAT     H261287   8.632   9.386   5.974
20349WAT      O61288   0.881   0.025   3.690
20349WAT     H161289   0.908  -0.071   3.695
20349WAT     H261290   0.962   0.081   3.671
20350WAT      O61291   0.414   2.345   5.093
20350WAT     H161292   0.415   2.246   5.109
20350WAT     H261293   0.415   2.362   4.994
20351WAT      O61294   1.978   9.311   5.272
20351WAT     H161295   2.029   9.394   5.294
20351WAT     H261296   1.988   9.290   5.175
20352WAT      O61297   8.314   9.830   2.132
20352WAT     H161298   8.397   9.825   2.076
20352WAT     H261299   8.269   9.918   2.116
20353WAT      O61300   6.738   2.123   8.079
20353WAT     H161301   6.756   2.123   7.981
20353WAT     H261302   6.816   2.162   8.127
20354WAT      O61303   7.893   9.657   5.315
20354WAT     H161304   7.856   9.745   5.346
20354WAT     H261305   7.992   9.666   5.302
20355WAT      O61306   5.007   0.508   8.108
20355WAT     H161307   5.018   0.415   8.142
20355WAT     H261308   5.070   0.524   8.032
20356WAT      O61309   1.388   5.812   1.564
20356WAT     H161310   1.467   5.797   1.624
20356WAT     H261311   1.353   5.724   1.532
20357WAT      O61312   5.843   3.787   5.514
20357WAT     H161313   5.756   3.798   5.562
20357WAT     H261314   5.861   3.868   5.458
20358WAT      O61315   7.379   2.582   4.809
20358WAT     H161316   7.475   2.558   4.824
20358WAT     H261317   7.341   2.522   4.739
20359WAT      O61318   8.237   9.222   3.488
20359WAT     H161319   8.269   9.158   3.418
20359WAT     H261320   8.299   9.219   3.566
20360WAT      O61321   9.265   4.529   7.021
20360WAT     H161322   9.233   4.569   6.936
20360WAT     H261323   9.310   4.600   7.076
20361WAT      O61324   6.859   0.320   0.599
20361WAT     H161325   6.934   0.254   0.595
20361WAT     H261326   6.835   0.338   0.694
20362WAT      O61327   5.082   2.137   3.764
20362WAT     H161328   5.169   2.133   3.812
20362WAT     H261329   5.062   2.232   3.739
20363WAT      O61330   4.157   6.495   2.798
20363WAT     H161331   4.237   6.444   2.832
20363WAT     H261332   4.146   6.478   2.700
20364WAT      O61333   8.767   3.920   2.730
20364WAT     H161334   8.732   3.827   2.739
20364WAT     H261335   8.706   3.974   2.672
20365WAT      O61336   7.900   0.941   2.742
20365WAT     H161337   7.887   0.989   2.829
20365WAT     H261338   7.917   0.844   2.760
20366WAT      O61339   8.477   2.438   4.426
20366WAT     H161340   8.563   2.476   4.459
20366WAT     H261341   8.496   2.367   4.358
20367WAT      O61342   4.831   7.030   8.620
20367WAT     H161343   4.768   7.025   8.698
20367WAT     H261344   4.778   7.043   8.536
20368WAT      O61345   4.997   6.054   4.418
20368WAT     H161346   5.010   6.144   4.461
20368WAT     H261347   4.958   5.991   4.485
20369WAT      O61348   8.044   8.678   3.561
20369WAT     H161349   7.981   8.624   3.616
20369WAT     H261350   8.132   8.631   3.556
20370WAT      O61351   1.237   1.368   4.044
20370WAT     H161352   1.191   1.453   4.018
20370WAT     H261353   1.307   1.346   3.975
20371WAT      O61354   4.087   7.321   4.117
20371WAT     H161355   4.180   7.298   4.088
20371WAT     H261356   4.081   7.314   4.216
20372WAT      O61357   9.269   0.211   0.797
20372WAT     H161358   9.268   0.255   0.706
20372WAT     H261359   9.311   0.121   0.790
20373WAT      O61360   9.313   6.072   9.126
20373WAT     H161361   9.364   5.990   9.152
20373WAT     H261362   9.242   6.090   9.193
20374WAT      O61363   1.824   3.635   9.211
20374WAT     H161364   1.780   3.552   9.247
20374WAT     H261365   1.906   3.609   9.159
20375WAT      O61366   4.393   2.116   7.537
20375WAT     H161367   4.443   2.201   7.548
20375WAT     H261368   4.441   2.057   7.471
20376WAT      O61369   7.562   4.159   5.774
20376WAT     H161370   7.488   4.130   5.712
20376WAT     H261371   7.555   4.257   5.790
20377WAT      O61372   1.543   0.139   6.151
20377WAT     H161373   1.487   0.132   6.233
20377WAT     H261374   1.627   0.190   6.171
20378WAT      O61375   1.303   2.745   4.525
20378WAT     H161376   1.314   2.830   4.575
20378WAT     H261377   1.389   2.693   4.529
20379WAT      O61378   3.146   7.259   2.695
20379WAT     H161379   3.138   7.209   2.781
20379WAT     H261380   3.077   7.331   2.692
20380WAT      O61381   1.306   8.075   0.775
20380WAT     H161382   1.330   8.015   0.698
20380WAT     H261383   1.322   8.170   0.749
20381WAT      O61384   7.788   7.886   9.770
20381WAT     H161385   7.847   7.919   9.696
20381WAT     H261386   7.835   7.897   9.857
20382WAT      O61387   5.588   7.042   5.515
20382WAT     H161388   5.578   6.945   5.494
20382WAT     H261389   5.600   7.093   5.430
20383WAT      O61390   0.151   1.975   8.070
20383WAT     H161391   0.081   1.993   8.139
20383WAT     H261392   0.242   1.993   8.108
20384WAT      O61393   9.135   0.292   7.683
20384WAT     H161394   9.046   0.249   7.697
20384WAT     H261395   9.124   0.373   7.625
20385WAT      O61396   8.214   3.664   8.812
20385WAT     H161397   8.276   3.685   8.887
20385WAT     H261398   8.267   3.646   8.729
20386WAT      O61399   7.340   2.422   0.580
20386WAT     H161400   7.431   2.384   0.564
20386WAT     H261401   7.345   2.521   0.586
20387WAT      O61402   4.902   5.558   5.777
20387WAT     H161403   4.869   5.544   5.870
20387WAT     H261404   4.828   5.539   5.712
20388WAT      O61405   6.928   9.718   6.485
20388WAT     H161406   6.946   9.620   6.496
20388WAT     H261407   7.014   9.768   6.488
20389WAT      O61408   2.984   6.722   5.897
20389WAT     H161409   2.936   6.669   5.826
20389WAT     H261410   3.053   6.780   5.855
20390WAT      O61411   6.375   3.029   0.255
20390WAT     H161412   6.276   3.016   0.263
20390WAT     H261413   6.420   2.982   0.331
20391WAT      O61414   5.503   9.164   6.565
20391WAT     H161415   5.491   9.195   6.660
20391WAT     H261416   5.454   9.078   6.552
20392WAT      O61417   7.524   7.952   8.051
20392WAT     H161418   7.439   7.992   8.087
20392WAT     H261419   7.600   8.013   8.070
20393WAT      O61420   2.878   3.052   3.328
20393WAT     H161421   2.787   3.083   3.299
20393WAT     H261422   2.870   2.960   3.367
20394WAT      O61423   0.122   6.124   3.335
20394WAT     H161424   0.180   6.055   3.292
20394WAT     H261425   0.165   6.214   3.326
20395WAT      O61426   1.960   6.155   0.765
20395WAT     H161427   1.970   6.060   0.735
20395WAT     H261428   1.917   6.156   0.855
20396WAT      O61429   8.618   1.472   1.431
20396WAT     H161430   8.630   1.564   1.466
20396WAT     H261431   8.610   1.475   1.331
20397WAT      O61432   3.392   2.247   0.460
20397WAT     H161433   3.440   2.166   0.493
20397WAT     H261434   3.372   2.237   0.363
20398WAT      O61435   7.483   5.548   4.134
20398WAT     H161436   7.551   5.475   4.135
20398WAT     H261437   7.527   5.635   4.158
20399WAT      O61438   2.427   1.990   1.512
20399WAT     H161439   2.476   2.067   1.470
20399WAT     H261440   2.395   2.017   1.603
20400WAT      O61441   7.102   6.730   2.868
20400WAT     H161442   7.068   6.772   2.783
20400WAT     H261443   7.130   6.802   2.931
20401WAT      O61444   5.248   3.258   0.224
20401WAT     H161445   5.301   3.332   0.266
20401WAT     H261446   5.198   3.209   0.296
20402WAT      O61447   7.223   9.450   8.951
20402WAT     H161448   7.180   9.438   9.041
20402WAT     H261449   7.317   9.415   8.955
20403WAT      O61450   5.326   6.667   5.493
20403WAT     H161451   5.304   6.570   5.485
20403WAT     H261452   5.254   6.721   5.448
20404WAT      O61453   4.545   0.493   9.497
20404WAT     H161454   4.636   0.535   9.501
20404WAT     H261455   4.490   0.525   9.575
20405WAT      O61456   7.981   3.146   7.444
20405WAT     H161457   7.999   3.231   7.494
20405WAT     H261458   7.924   3.166   7.364
20406WAT      O61459   6.740   0.187   7.260
20406WAT     H161460   6.772   0.198   7.166
20406WAT     H261461   6.640   0.183   7.261
20407WAT      O61462   5.521   2.111   4.106
20407WAT     H161463   5.588   2.128   4.179
20407WAT     H261464   5.452   2.047   4.139
20408WAT      O61465   9.249   8.846   0.012
20408WAT     H161466   9.303   8.892  -0.058
20408WAT     H261467   9.153   8.846  -0.014
20409WAT      O61468   3.921   3.725   3.467
20409WAT     H161469   3.941   3.697   3.373
20409WAT     H261470   3.986   3.796   3.495
20410WAT      O61471   7.749   1.177   1.675
20410WAT     H161472   7.794   1.251   1.726
20410WAT     H261473   7.651   1.192   1.674
20411WAT      O61474   0.917   2.348   1.516
20411WAT     H161475   0.832   2.301   1.491
20411WAT     H261476   0.963   2.380   1.433
20412WAT      O61477   8.941   1.155   9.800
20412WAT     H161478   9.013   1.162   9.868
20412WAT     H261479   8.919   1.247   9.766
20413WAT      O61480   1.682   8.120   9.062
20413WAT     H161481   1.755   8.071   9.111
20413WAT     H261482   1.722   8.170   8.985
20414WAT      O61483   9.838   1.649   8.390
20414WAT     H161484   9.823   1.740   8.429
20414WAT     H261485   9.913   1.652   8.325
20415WAT      O61486   8.793   9.282   8.612
20415WAT     H161487   8.748   9.359   8.658
20415WAT     H261488   8.865   9.245   8.672
20416WAT      O61489   6.414   7.777   7.796
20416WAT     H161490   6.505   7.743   7.823
20416WAT     H261491   6.352   7.699   7.785
20417WAT      O61492   4.951   7.831   1.407
20417WAT     H161493   4.957   7.810   1.505
20417WAT     H261494   4.868   7.884   1.390
20418WAT      O61495   3.610   9.248   2.660
20418WAT     H161496   3.630   9.161   2.705
20418WAT     H261497   3.659   9.322   2.707
20419WAT      O61498   5.939   0.364   2.677
20419WAT     H161499   6.019   0.316   2.642
20419WAT     H261500   5.947   0.377   2.775
20420WAT      O61501   0.357   1.788   0.295
20420WAT     H161502   0.435   1.818   0.350
20420WAT     H261503   0.285   1.754   0.356
20421WAT      O61504   3.116   4.650   4.184
20421WAT     H161505   3.211   4.650   4.151
20421WAT     H261506   3.075   4.560   4.166
20422WAT      O61507   8.556   4.116   4.313
20422WAT     H161508   8.590   4.207   4.337
20422WAT     H261509   8.630   4.050   4.318
20423WAT      O61510   6.496   1.484   2.931
20423WAT     H161511   6.556   1.510   3.006
20423WAT     H261512   6.519   1.393   2.899
20424WAT      O61513   0.295   8.074   7.464
20424WAT     H161514   0.268   8.028   7.549
20424WAT     H261515   0.394   8.088   7.464
20425WAT      O61516   3.096   0.742   3.926
20425WAT     H161517   3.082   0.782   3.836
20425WAT     H261518   3.167   0.792   3.974
20426WAT      O61519   7.520   0.669   1.104
20426WAT     H161520   7.420   0.679   1.107
20426WAT     H261521   7.559   0.697   1.191
20427WAT      O61522   2.141   2.581   9.346
20427WAT     H161523   2.134   2.631   9.433
20427WAT     H261524   2.194   2.498   9.360
20428WAT      O61525   7.047   6.346   7.866
20428WAT     H161526   7.083   6.335   7.959
20428WAT     H261527   7.113   6.397   7.811
20429WAT      O61528   3.041   4.603   2.461
20429WAT     H161529   2.953   4.558   2.445
20429WAT     H261530   3.090   4.553   2.533
20430WAT      O61531   9.128   6.974   6.779
20430WAT     H161532   9.115   7.071   6.760
20430WAT     H261533   9.128   6.923   6.694
20431WAT      O61534   0.037   2.741   5.336
20431WAT     H161535   0.100   2.664   5.332
20431WAT     H261536   0.088   2.827   5.337
20432WAT      O61537   3.610   9.009   0.427
20432WAT     H161538   3.655   9.040   0.511
20432WAT     H261539   3.566   8.921   0.444
20433WAT      O61540   4.355   2.473   7.837
20433WAT     H161541   4.425   2.542   7.853
20433WAT     H261542   4.340   2.421   7.921
20434WAT      O61543   7.052   2.885   8.618
20434WAT     H161544   7.090   2.821   8.684
20434WAT     H261545   6.968   2.925   8.655
20435WAT      O61546   6.017   1.680   1.315
20435WAT     H161547   5.958   1.603   1.291
20435WAT     H261548   6.067   1.659   1.399
20436WAT      O61549   9.825   4.686   8.185
20436WAT     H161550   9.853   4.772   8.144
20436WAT     H261551   9.807   4.618   8.114
20437WAT      O61552   6.448   5.657   6.519
20437WAT     H161553   6.514   5.668   6.445
20437WAT     H261554   6.370   5.603   6.486
20438WAT      O61555   5.294   7.000   8.998
20438WAT     H161556   5.369   6.950   9.041
20438WAT     H261557   5.305   7.098   9.016
20439WAT      O61558   1.681   5.575   5.419
20439WAT     H161559   1.604   5.516   5.443
20439WAT     H261560   1.713   5.622   5.502
20440WAT      O61561   2.709   7.895   2.072
20440WAT     H161562   2.736   7.901   2.168
20440WAT     H261563   2.748   7.812   2.032
20441WAT      O61564   3.563   4.882   8.981
20441WAT     H161565   3.555   4.870   9.080
20441WAT     H261566   3.650   4.924   8.959
20442WAT      O61567   7.253   7.917   5.728
20442WAT     H161568   7.340   7.894   5.770
20442WAT     H261569   7.269   7.966   5.642
20443WAT      O61570   1.861   3.284   8.752
20443WAT     H161571   1.847   3.376   8.715
20443WAT     H261572   1.812   3.217   8.696
20444WAT      O61573   0.817   3.795   7.284
20444WAT     H161574   0.819   3.723   7.353
20444WAT     H261575   0.909   3.834   7.274
20445WAT      O61576   0.622   0.931   0.504
20445WAT     H161577   0.587   0.838   0.503
20445WAT     H261578   0.546   0.995   0.494
20446WAT      O61579   1.722   9.609   8.285
20446WAT     H161580   1.657   9.643   8.352
20446WAT     H261581   1.803   9.668   8.284
20447WAT      O61582   4.589   6.899   3.475
20447WAT     H161583   4.624   6.940   3.559
20447WAT     H261584   4.619   6.953   3.397
20448WAT      O61585   1.623   7.590   4.613
20448WAT     H161586   1.706   7.644   4.630
20448WAT     H261587   1.636   7.497   4.648
20449WAT      O61588   7.287   7.521   7.744
20449WAT     H161589   7.316   7.491   7.653
20449WAT     H261590   7.325   7.460   7.813
20450WAT      O61591   0.782   1.294   4.115
20450WAT     H161592   0.822   1.326   4.201
20450WAT     H261593   0.682   1.301   4.121
20451WAT      O61594   1.328   5.855   9.210
20451WAT     H161595   1.400   5.787   9.199
20451WAT     H261596   1.369   5.947   9.208
20452WAT      O61597   3.734   4.651   1.686
20452WAT     H161598   3.764   4.746   1.693
20452WAT     H261599   3.676   4.640   1.605
20453WAT      O61600   5.268   8.737   4.438
20453WAT     H161601   5.214   8.702   4.515
20453WAT     H261602   5.283   8.663   4.372
20454WAT      O61603   2.263   0.603   5.487
20454WAT     H161604   2.196   0.677   5.480
20454WAT     H261605   2.253   0.542   5.409
20455WAT      O61606   8.450   9.382   7.750
20455WAT     H161607   8.405   9.293   7.752
20455WAT     H261608   8.391   9.449   7.705
20456WAT      O61609   9.830   1.497   2.377
20456WAT     H161610   9.928   1.492   2.357
20456WAT     H261611   9.792   1.581   2.337
20457WAT      O61612   0.626   5.107   9.573
20457WAT     H161613   0.726   5.107   9.564
20457WAT     H261614   0.597   5.185   9.628
20458WAT      O61615   0.665   7.577   1.862
20458WAT     H161616   0.699   7.583   1.956
20458WAT     H261617   0.647   7.670   1.828
20459WAT      O61618   4.081   4.238   6.598
20459WAT     H161619   4.040   4.326   6.624
20459WAT     H261620   4.112   4.242   6.503
20460WAT      O61621   3.509   8.753   8.027
20460WAT     H161622   3.431   8.802   7.988
20460WAT     H261623   3.588   8.814   8.033
20461WAT      O61624   7.257   0.641   0.226
20461WAT     H161625   7.316   0.668   0.150
20461WAT     H261626   7.164   0.626   0.193
20462WAT      O61627   9.144   7.880   5.085
20462WAT     H161628   9.049   7.909   5.083
20462WAT     H261629   9.193   7.918   5.006
20463WAT      O61630   0.343   1.933   0.043
20463WAT     H161631   0.349   1.885  -0.045
20463WAT     H261632   0.316   1.868   0.114
20464WAT      O61633   7.506   1.969   6.325
20464WAT     H161634   7.533   1.952   6.229
20464WAT     H261635   7.534   2.061   6.352
20465WAT      O61636   2.720   8.799   4.035
20465WAT     H161637   2.773   8.873   3.993
20465WAT     H261638   2.690   8.735   3.964
20466WAT      O61639   9.527   7.176   1.953
20466WAT     H161640   9.503   7.129   1.868
20466WAT     H261641   9.447   7.222   1.990
20467WAT      O61642   7.787   7.422   7.381
20467WAT     H161643   7.709   7.482   7.400
20467WAT     H261644   7.813   7.430   7.285
20468WAT      O61645   0.317   6.685   9.000
20468WAT     H161646   0.389   6.616   9.011
20468WAT     H261647   0.344   6.750   8.930
20469WAT      O61648   0.426   6.234   6.895
20469WAT     H161649   0.450   6.210   6.801
20469WAT     H261650   0.509   6.252   6.947
20470WAT      O61651   1.076   4.644   1.910
20470WAT     H161652   1.015   4.651   1.831
20470WAT     H261653   1.071   4.551   1.947
20471WAT      O61654   3.490   6.234   7.836
20471WAT     H161655   3.402   6.187   7.840
20471WAT     H261656   3.477   6.332   7.846
20472WAT      O61657   5.813   7.068   1.379
20472WAT     H161658   5.817   7.121   1.294
20472WAT     H261659   5.898   7.017   1.391
20473WAT      O61660   1.923   5.784   8.614
20473WAT     H161661   1.999   5.721   8.602
20473WAT     H261662   1.957   5.871   8.649
20474WAT      O61663   1.957   1.328   5.765
20474WAT     H161664   2.000   1.385   5.695
20474WAT     H261665   1.939   1.383   5.846
20475WAT      O61666   4.625   8.822   3.364
20475WAT     H161667   4.721   8.846   3.382
20475WAT     H261668   4.621   8.730   3.325
20476WAT      O61669   9.304   5.933   8.686
20476WAT     H161670   9.323   5.933   8.588
20476WAT     H261671   9.332   6.021   8.725
20477WAT      O61672   2.453   0.038   8.115
20477WAT     H161673   2.386   0.046   8.042
20477WAT     H261674   2.448   0.118   8.174
20478WAT      O61675   8.075   4.759   6.682
20478WAT     H161676   8.076   4.837   6.746
20478WAT     H261677   8.169   4.736   6.656
20479WAT      O61678   4.254   1.518   0.266
20479WAT     H161679   4.216   1.462   0.193
20479WAT     H261680   4.353   1.506   0.270
20480WAT      O61681   7.521   7.552   0.621
20480WAT     H161682   7.421   7.545   0.621
20480WAT     H261683   7.549   7.631   0.675
20481WAT      O61684   5.466   1.995   7.383
20481WAT     H161685   5.406   2.073   7.364
20481WAT     H261686   5.537   1.990   7.313
20482WAT      O61687   1.496   0.918   6.314
20482WAT     H161688   1.482   0.939   6.411
20482WAT     H261689   1.585   0.873   6.302
20483WAT      O61690   9.394   4.053   4.089
20483WAT     H161691   9.438   4.067   4.178
20483WAT     H261692   9.463   4.038   4.019
20484WAT      O61693   3.653   8.592   0.780
20484WAT     H161694   3.717   8.517   0.798
20484WAT     H261695   3.643   8.604   0.682
20485WAT      O61696   4.275   5.820   9.002
20485WAT     H161697   4.368   5.784   8.989
20485WAT     H261698   4.234   5.838   8.912
20486WAT      O61699   5.576   9.816   8.835
20486WAT     H161700   5.498   9.784   8.782
20486WAT     H261701   5.626   9.885   8.782
20487WAT      O61702   0.961   1.792   7.121
20487WAT     H161703   1.002   1.883   7.123
20487WAT     H261704   0.901   1.780   7.200
20488WAT      O61705   7.094   8.789   5.326
20488WAT     H161706   7.115   8.827   5.236
20488WAT     H261707   7.078   8.865   5.390
20489WAT      O61708   9.086   1.853   1.535
20489WAT     H161709   9.124   1.933   1.583
20489WAT     H261710   9.119   1.770   1.579
20490WAT      O61711   4.159   1.893   8.373
20490WAT     H161712   4.065   1.919   8.348
20490WAT     H261713   4.171   1.905   8.471
20491WAT      O61714   5.944   3.054   7.217
20491WAT     H161715   5.927   3.096   7.306
20491WAT     H261716   5.862   3.060   7.160
20492WAT      O61717   1.781   5.654   7.438
20492WAT     H161718   1.876   5.667   7.409
20492WAT     H261719   1.758   5.557   7.434
20493WAT      O61720   3.600   7.643   4.670
20493WAT     H161721   3.514   7.611   4.629
20493WAT     H261722   3.587   7.736   4.705
20494WAT      O61723   6.844   9.480   0.962
20494WAT     H161724   6.899   9.458   1.042
20494WAT     H261725   6.797   9.397   0.930
20495WAT      O61726   9.084   5.782   6.465
20495WAT     H161727   8.992   5.776   6.504
20495WAT     H261728   9.078   5.777   6.365
20496WAT      O61729   9.546   2.675   4.642
20496WAT     H161730   9.617   2.703   4.707
20496WAT     H261731   9.516   2.755   4.590
20497WAT      O61732   9.453   3.976   9.066
20497WAT     H161733   9.414   4.003   9.155
20497WAT     H261734   9.379   3.946   9.005
20498WAT      O61735   1.418   1.764   5.675
20498WAT     H161736   1.465   1.792   5.759
20498WAT     H261737   1.435   1.667   5.658
20499WAT      O61738   6.885   5.497   5.277
20499WAT     H161739   6.804   5.545   5.311
20499WAT     H261740   6.861   5.401   5.262
20500WAT      O61741   4.507   3.180   0.660
20500WAT     H161742   4.463   3.181   0.750
20500WAT     H261743   4.490   3.092   0.616
20501WAT      O61744   6.691   3.698   3.827
20501WAT     H161745   6.598   3.684   3.793
20501WAT     H261746   6.755   3.643   3.773
20502WAT      O61747   2.838   2.069   7.995
20502WAT     H161748   2.909   2.127   7.956
20502WAT     H261749   2.749   2.112   7.980
20503WAT      O61750   7.552   3.918   4.410
20503WAT     H161751   7.492   3.839   4.398
20503WAT     H261752   7.573   3.930   4.507
20504WAT      O61753   0.698   9.166   1.608
20504WAT     H161754   0.625   9.107   1.574
20504WAT     H261755   0.775   9.110   1.638
20505WAT      O61756   4.441   2.872   9.737
20505WAT     H161757   4.356   2.925   9.742
20505WAT     H261758   4.432   2.789   9.792
20506WAT      O61759   7.130   2.891   7.077
20506WAT     H161760   7.069   2.906   7.155
20506WAT     H261761   7.214   2.944   7.090
20507WAT      O61762   9.506   5.431   8.592
20507WAT     H161763   9.566   5.508   8.572
20507WAT     H261764   9.512   5.409   8.689
20508WAT      O61765   9.144   7.217   7.523
20508WAT     H161766   9.205   7.145   7.492
20508WAT     H261767   9.136   7.214   7.623
20509WAT      O61768   4.783   5.121   8.137
20509WAT     H161769   4.697   5.110   8.088
20509WAT     H261770   4.859   5.110   8.073
20510WAT      O61771   8.209   2.531   8.337
20510WAT     H161772   8.122   2.491   8.308
20510WAT     H261773   8.252   2.472   8.405
20511WAT      O61774   6.040   6.082   4.358
20511WAT     H161775   6.053   6.005   4.295
20511WAT     H261776   6.019   6.048   4.449
20512WAT      O61777   7.167   3.461   8.016
20512WAT     H161778   7.155   3.438   7.919
20512WAT     H261779   7.265   3.468   8.036
20513WAT      O61780   8.374   3.945   3.912
20513WAT     H161781   8.369   4.039   3.878
20513WAT     H261782   8.330   3.938   4.001
20514WAT      O61783   3.323   1.331   6.885
20514WAT     H161784   3.358   1.253   6.937
20514WAT     H261785   3.345   1.319   6.788
20515WAT      O61786   4.761   4.990   7.657
20515WAT     H161787   4.782   5.065   7.594
20515WAT     H261788   4.748   4.906   7.606
20516WAT      O61789   4.010   2.051   8.040
20516WAT     H161790   3.929   2.078   7.987
20516WAT     H261791   3.981   2.024   8.132
20517WAT      O61792   2.285   3.509   7.148
20517WAT     H161793   2.299   3.445   7.223
20517WAT     H261794   2.368   3.513   7.092
20518WAT      O61795   5.980   0.087   0.134
20518WAT     H161796   5.938   0.156   0.193
20518WAT     H261797   5.965   0.112   0.038
20519WAT      O61798   1.538   2.129   0.678
20519WAT     H161799   1.574   2.047   0.721
20519WAT     H261800   1.613   2.181   0.636
20520WAT      O61801   2.571   5.127   6.632
20520WAT     H161802   2.608   5.073   6.557
20520WAT     H261803   2.473   5.110   6.642
20521WAT      O61804   5.503   9.755   1.322
20521WAT     H161805   5.485   9.723   1.415
20521WAT     H261806   5.443   9.707   1.258
20522WAT      O61807   8.212   2.653   3.202
20522WAT     H161808   8.280   2.688   3.138
20522WAT     H261809   8.213   2.553   3.202
20523WAT      O61810   2.936   7.871   0.979
20523WAT     H161811   2.955   7.941   1.048
20523WAT     H261812   2.936   7.912   0.888
20524WAT      O61813   8.513   3.138   6.054
20524WAT     H161814   8.449   3.185   6.115
20524WAT     H261815   8.607   3.160   6.080
20525WAT      O61816   2.662   9.840   9.442
20525WAT     H161817   2.668   9.763   9.506
20525WAT     H261818   2.750   9.853   9.397
20526WAT      O61819   7.572   7.427   0.088
20526WAT     H161820   7.477   7.422   0.117
20526WAT     H261821   7.586   7.511   0.035
20527WAT      O61822   0.024   0.073   0.090
20527WAT     H161823   0.000   0.152   0.033
20527WAT     H261824  -0.005  -0.010   0.044
20528WAT      O61825   0.395   1.946   9.125
20528WAT     H161826   0.450   1.993   9.194
20528WAT     H261827   0.367   2.011   9.054
20529WAT      O61828   8.833   9.336   3.958
20529WAT     H161829   8.751   9.354   3.904
20529WAT     H261830   8.808   9.323   4.054
20530WAT      O61831   3.505   9.805   8.798
20530WAT     H161832   3.405   9.801   8.800
20530WAT     H261833   3.542   9.716   8.828
20531WAT      O61834   4.803   1.047   8.770
20531WAT     H161835   4.898   1.070   8.789
20531WAT     H261836   4.752   1.043   8.856
20532WAT      O61837   3.040   2.806   4.350
20532WAT     H161838   3.075   2.853   4.268
20532WAT     H261839   2.955   2.850   4.380
20533WAT      O61840   4.889   6.325   1.161
20533WAT     H161841   4.972   6.359   1.207
20533WAT     H261842   4.883   6.365   1.070
20534WAT      O61843   3.261   9.753   5.970
20534WAT     H161844   3.339   9.691   5.963
20534WAT     H261845   3.210   9.754   5.884
20535WAT      O61846   3.964   7.971   4.858
20535WAT     H161847   4.000   8.023   4.780
20535WAT     H261848   3.959   7.874   4.835
20536WAT      O61849   6.112   4.398   9.588
20536WAT     H161850   6.189   4.377   9.527
20536WAT     H261851   6.141   4.385   9.683
20537WAT      O61852   5.916   3.982   6.202
20537WAT     H161853   5.912   4.035   6.286
20537WAT     H261854   5.961   4.036   6.130
20538WAT      O61855   1.139   2.391   3.781
20538WAT     H161856   1.165   2.303   3.821
20538WAT     H261857   1.108   2.453   3.854
20539WAT      O61858   1.115   4.618   4.006
20539WAT     H161859   1.161   4.554   4.068
20539WAT     H261860   1.093   4.571   3.921
20540WAT      O61861   9.442   8.976   8.584
20540WAT     H161862   9.366   9.034   8.555
20540WAT     H261863   9.511   8.974   8.512
20541WAT      O61864   1.717   5.711   6.290
20541WAT     H161865   1.702   5.614   6.306
20541WAT     H261866   1.633   5.762   6.308
20542WAT      O61867   1.144   6.225   3.910
20542WAT     H161868   1.074   6.239   3.840
20542WAT     H261869   1.230   6.267   3.880
20543WAT      O61870   4.204   9.512   3.027
20543WAT     H161871   4.187   9.414   3.023
20543WAT     H261872   4.217   9.539   3.123
20544WAT      O61873   4.180   3.136   8.676
20544WAT     H161874   4.247   3.175   8.613
20544WAT     H261875   4.101   3.102   8.625
20545WAT      O61876   6.984   8.205   2.490
20545WAT     H161877   7.051   8.131   2.494
20545WAT     H261878   7.007   8.267   2.415
20546WAT      O61879   7.011   8.944   9.689
20546WAT     H161880   7.026   8.947   9.590
20546WAT     H261881   6.925   8.898   9.708
20547WAT      O61882   3.153   7.238   4.333
20547WAT     H161883   3.162   7.318   4.393
20547WAT     H261884   3.057   7.219   4.316
20548WAT      O61885   2.127   1.136   3.058
20548WAT     H161886   2.041   1.112   3.102
20548WAT     H261887   2.165   1.055   3.013
20549WAT      O61888   0.620   3.563   9.828
20549WAT     H161889   0.523   3.539   9.833
20549WAT     H261890   0.668   3.496   9.773
20550WAT      O61891   8.531   0.850   3.744
20550WAT     H161892   8.555   0.934   3.696
20550WAT     H261893   8.599   0.832   3.815
20551WAT      O61894   4.568   9.332   4.666
20551WAT     H161895   4.619   9.273   4.728
20551WAT     H261896   4.627   9.407   4.636
20552WAT      O61897   5.371   3.735   5.040
20552WAT     H161898   5.271   3.740   5.042
20552WAT     H261899   5.406   3.732   5.133
20553WAT      O61900   2.022   4.434   9.202
20553WAT     H161901   1.961   4.469   9.273
20553WAT     H261902   2.044   4.507   9.137
20554WAT      O61903   4.990   0.859   5.363
20554WAT     H161904   5.043   0.854   5.448
20554WAT     H261905   4.898   0.894   5.383
20555WAT      O61906   5.158   7.294   6.592
20555WAT     H161907   5.195   7.352   6.519
20555WAT     H261908   5.077   7.247   6.558
20556WAT      O61909   6.467   6.129   4.646
20556WAT     H161910   6.408   6.150   4.567
20556WAT     H261911   6.411   6.092   4.720
20557WAT      O61912   9.080   0.617   3.702
20557WAT     H161913   8.989   0.581   3.683
20557WAT     H261914   9.127   0.558   3.768
20558WAT      O61915   3.028   0.213   7.630
20558WAT     H161916   2.957   0.200   7.699
20558WAT     H261917   3.013   0.301   7.583
20559WAT      O61918   7.253   4.310   1.518
20559WAT     H161919   7.317   4.245   1.558
20559WAT     H261920   7.295   4.401   1.516
20560WAT      O61921   9.139   2.958   6.969
20560WAT     H161922   9.210   2.902   7.011
20560WAT     H261923   9.106   3.025   7.035
20561WAT      O61924   4.269   7.505   3.266
20561WAT     H161925   4.242   7.501   3.362
20561WAT     H261926   4.361   7.543   3.259
20562WAT      O61927   0.916   3.823   5.215
20562WAT     H161928   0.982   3.750   5.233
20562WAT     H261929   0.894   3.824   5.118
20563WAT      O61930   7.496   7.404   8.383
20563WAT     H161931   7.454   7.433   8.297
20563WAT     H261932   7.450   7.322   8.416
20564WAT      O61933   0.623   5.245   5.476
20564WAT     H161934   0.666   5.305   5.543
20564WAT     H261935   0.693   5.206   5.417
20565WAT      O61936   6.833   7.857   5.177
20565WAT     H161937   6.849   7.759   5.167
20565WAT     H261938   6.825   7.899   5.087
20566WAT      O61939   3.433   0.633   1.077
20566WAT     H161940   3.428   0.726   1.041
20566WAT     H261941   3.342   0.603   1.106
20567WAT      O61942   6.543   6.170   3.737
20567WAT     H161943   6.500   6.181   3.826
20567WAT     H261944   6.581   6.078   3.729
20568WAT      O61945   7.102   9.516   7.940
20568WAT     H161946   7.035   9.574   7.987
20568WAT     H261947   7.107   9.543   7.844
20569WAT      O61948   6.548   1.709   8.026
20569WAT     H161949   6.537   1.696   7.928
20569WAT     H261950   6.601   1.634   8.064
20570WAT      O61951   7.794   0.984   3.753
20570WAT     H161952   7.731   0.913   3.722
20570WAT     H261953   7.751   1.074   3.743
20571WAT      O61954   2.176   8.017   4.917
20571WAT     H161955   2.115   7.969   4.980
20571WAT     H261956   2.265   7.971   4.915
20572WAT      O61957   1.590   3.850   6.675
20572WAT     H161958   1.507   3.901   6.699
20572WAT     H261959   1.595   3.840   6.576
20573WAT      O61960   5.776   2.847   2.187
20573WAT     H161961   5.684   2.886   2.178
20573WAT     H261962   5.812   2.868   2.278
20574WAT      O61963   2.637   9.401   1.455
20574WAT     H161964   2.559   9.464   1.448
20574WAT     H261965   2.620   9.321   1.399
20575WAT      O61966   1.735   1.634   4.657
20575WAT     H161967   1.723   1.537   4.633
20575WAT     H261968   1.743   1.643   4.756
20576WAT      O61969   7.408   6.468   0.444
20576WAT     H161970   7.317   6.434   0.420
20576WAT     H261971   7.472   6.446   0.371
20577WAT      O61972   2.527   8.357   2.971
20577WAT     H161973   2.579   8.420   3.027
20577WAT     H261974   2.499   8.402   2.886
20578WAT      O61975   8.898   8.780   7.887
20578WAT     H161976   8.821   8.728   7.849
20578WAT     H261977   8.900   8.872   7.848
20579WAT      O61978   8.276   4.405   8.535
20579WAT     H161979   8.340   4.452   8.594
20579WAT     H261980   8.191   4.386   8.585
20580WAT      O61981   5.691   0.075   7.477
20580WAT     H161982   5.682   0.135   7.557
20580WAT     H261983   5.762   0.111   7.416
20581WAT      O61984   1.084   7.410   3.866
20581WAT     H161985   1.159   7.346   3.877
20581WAT     H261986   1.031   7.414   3.950
20582WAT      O61987   0.722   6.907   9.892
20582WAT     H161988   0.794   6.894   9.961
20582WAT     H261989   0.765   6.933   9.805
20583WAT      O61990   3.041   0.444   8.704
20583WAT     H161991   2.946   0.424   8.680
20583WAT     H261992   3.097   0.451   8.621
20584WAT      O61993   7.360   3.955   5.617
20584WAT     H161994   7.324   3.866   5.645
20584WAT     H261995   7.287   4.009   5.574
20585WAT      O61996   7.092   0.583   2.134
20585WAT     H161997   7.049   0.539   2.055
20585WAT     H261998   7.032   0.574   2.214
20586WAT      O61999   1.122   3.516   1.510
20586WAT     H162000   1.102   3.611   1.533
20586WAT     H262001   1.144   3.465   1.593
20587WAT      O62002   8.716   9.278   7.659
20587WAT     H162003   8.781   9.231   7.719
20587WAT     H262004   8.634   9.300   7.711
20588WAT      O62005   6.916   1.712   7.353
20588WAT     H162006   6.920   1.812   7.356
20588WAT     H262007   6.985   1.677   7.290
20589WAT      O62008   9.070   8.343   0.887
20589WAT     H162009   9.030   8.294   0.964
20589WAT     H262010   9.065   8.287   0.805
20590WAT      O62011   3.234   8.646   9.327
20590WAT     H162012   3.219   8.570   9.264
20590WAT     H262013   3.219   8.732   9.279
20591WAT      O62014   6.771   2.737   3.819
20591WAT     H162015   6.784   2.698   3.728
20591WAT     H262016   6.674   2.738   3.842
20592WAT      O62017   5.865   6.467   0.264
20592WAT     H162018   5.780   6.518   0.277
20592WAT     H262019   5.847   6.369   0.272
20593WAT      O62020   8.460   7.771   0.882
20593WAT     H162021   8.514   7.783   0.799
20593WAT     H262022   8.516   7.729   0.953
20594WAT      O62023   8.365   6.789   5.516
20594WAT     H162024   8.420   6.737   5.451
20594WAT     H262025   8.336   6.728   5.591
20595WAT      O62026   6.406   4.730   0.526
20595WAT     H162027   6.477   4.797   0.504
20595WAT     H262028   6.323   4.777   0.554
20596WAT      O62029   0.408   9.823   6.250
20596WAT     H162030   0.341   9.870   6.192
20596WAT     H262031   0.391   9.847   6.346
20597WAT      O62032   2.183   5.882   1.787
20597WAT     H162033   2.233   5.969   1.785
20597WAT     H262034   2.209   5.827   1.708
20598WAT      O62035   5.247   4.629   5.133
20598WAT     H162036   5.330   4.581   5.163
20598WAT     H262037   5.235   4.618   5.035
20599WAT      O62038   3.810   2.748   1.110
20599WAT     H162039   3.792   2.846   1.119
20599WAT     H262040   3.861   2.716   1.190
20600WAT      O62041   8.160   4.422   1.917
20600WAT     H162042   8.217   4.361   1.861
20600WAT     H262043   8.103   4.479   1.858
20601WAT      O62044   1.690   2.994   8.891
20601WAT     H162045   1.788   3.012   8.906
20601WAT     H262046   1.673   2.989   8.793
20602WAT      O62047   3.284   4.145   0.176
20602WAT     H162048   3.257   4.070   0.116
20602WAT     H262049   3.370   4.122   0.222
20603WAT      O62050   2.398   7.325   7.582
20603WAT     H162051   2.483   7.312   7.531
20603WAT     H262052   2.362   7.236   7.610
20604WAT      O62053   8.535   4.901   6.183
20604WAT     H162054   8.554   4.929   6.089
20604WAT     H262055   8.448   4.852   6.186
20605WAT      O62056   6.296   6.522   4.807
20605WAT     H162057   6.206   6.563   4.798
20605WAT     H262058   6.358   6.586   4.854
20606WAT      O62059   0.068   5.108   3.044
20606WAT     H162060   0.064   5.206   3.064
20606WAT     H262061   0.073   5.095   2.945
20607WAT      O62062   4.633   9.541   8.545
20607WAT     H162063   4.545   9.584   8.567
20607WAT     H262064   4.626   9.496   8.456
20608WAT      O62065   9.294   2.291   8.466
20608WAT     H162066   9.288   2.206   8.519
20608WAT     H262067   9.260   2.367   8.522
20609WAT      O62068   7.205   7.666   3.762
20609WAT     H162069   7.157   7.676   3.675
20609WAT     H262070   7.186   7.745   3.820
20610WAT      O62071   2.376   2.832   2.652
20610WAT     H162072   2.295   2.794   2.607
20610WAT     H262073   2.406   2.770   2.724
20611WAT      O62074   9.702   8.460   3.861
20611WAT     H162075   9.652   8.385   3.816
20611WAT     H262076   9.705   8.539   3.800
20612WAT      O62077   4.380   5.828   7.151
20612WAT     H162078   4.386   5.737   7.191
20612WAT     H262079   4.286   5.862   7.157
20613WAT      O62080   8.990   4.156   3.890
20613WAT     H162081   8.907   4.186   3.936
20613WAT     H262082   9.011   4.218   3.815
20614WAT      O62083   7.256   8.902   1.069
20614WAT     H162084   7.265   8.993   1.030
20614WAT     H262085   7.318   8.839   1.021
20615WAT      O62086   2.966   2.734   5.660
20615WAT     H162087   2.987   2.654   5.603
20615WAT     H262088   2.898   2.710   5.728
20616WAT      O62089   9.674   3.743   2.227
20616WAT     H162090   9.747   3.777   2.167
20616WAT     H262091   9.640   3.656   2.192
20617WAT      O62092   0.580   2.379   7.316
20617WAT     H162093   0.533   2.427   7.391
20617WAT     H262094   0.578   2.281   7.334
20618WAT      O62095   0.649   6.067   3.829
20618WAT     H162096   0.642   6.050   3.731
20618WAT     H262097   0.643   6.165   3.847
20619WAT      O62098   8.004   8.741   8.890
20619WAT     H162099   8.006   8.812   8.961
20619WAT     H262100   8.097   8.718   8.862
20620WAT      O62101   5.856   7.783   6.597
20620WAT     H162102   5.847   7.701   6.541
20620WAT     H262103   5.825   7.863   6.545
20621WAT      O62104   8.962   7.600   9.595
20621WAT     H162105   8.949   7.579   9.498
20621WAT     H262106   8.874   7.595   9.643
20622WAT      O62107   0.345   6.121   5.961
20622WAT     H162108   0.399   6.190   5.913
20622WAT     H262109   0.277   6.083   5.898
20623WAT      O62110   0.335   2.371   1.354
20623WAT     H162111   0.315   2.299   1.420
20623WAT     H262112   0.427   2.406   1.370
20624WAT      O62113   4.599   1.579   3.525
20624WAT     H162114   4.658   1.633   3.584
20624WAT     H262115   4.545   1.641   3.467
20625WAT      O62116   5.592   8.185   3.953
20625WAT     H162117   5.593   8.201   3.854
20625WAT     H262118   5.500   8.158   3.981
20626WAT      O62119   8.410   2.759   9.415
20626WAT     H162120   8.449   2.803   9.335
20626WAT     H262121   8.479   2.751   9.487
20627WAT      O62122   7.730   8.896   6.780
20627WAT     H162123   7.654   8.911   6.717
20627WAT     H262124   7.702   8.920   6.873
20628WAT      O62125   2.773   3.995   1.218
20628WAT     H162126   2.720   4.019   1.136
20628WAT     H262127   2.867   3.974   1.192
20629WAT      O62128   1.866   1.649   5.501
20629WAT     H162129   1.806   1.628   5.579
20629WAT     H262130   1.813   1.696   5.430
20630WAT      O62131   6.807   7.066   6.504
20630WAT     H162132   6.797   7.128   6.581
20630WAT     H262133   6.731   7.079   6.440
20631WAT      O62134   2.741   4.444   0.675
20631WAT     H162135   2.834   4.411   0.661
20631WAT     H262136   2.677   4.369   0.661
20632WAT      O62137   8.256   5.382   2.181
20632WAT     H162138   8.317   5.303   2.183
20632WAT     H262139   8.307   5.464   2.207
20633WAT      O62140   5.394   9.375   7.308
20633WAT     H162141   5.406   9.442   7.235
20633WAT     H262142   5.409   9.283   7.271
20634WAT      O62143   5.961   5.706   0.941
20634WAT     H162144   6.021   5.761   0.999
20634WAT     H262145   5.875   5.687   0.989
20635WAT      O62146   8.955   6.992   0.278
20635WAT     H162147   8.978   6.897   0.297
20635WAT     H262148   9.038   7.045   0.262
20636WAT      O62149   9.007   6.757   2.774
20636WAT     H162150   9.095   6.761   2.725
20636WAT     H262151   9.004   6.675   2.831
20637WAT      O62152   2.811   4.678   2.091
20637WAT     H162153   2.908   4.654   2.099
20637WAT     H262154   2.772   4.690   2.183
20638WAT      O62155   8.488   5.835   2.770
20638WAT     H162156   8.579   5.817   2.806
20638WAT     H262157   8.434   5.751   2.773
20639WAT      O62158   7.503   3.760   1.576
20639WAT     H162159   7.537   3.767   1.670
20639WAT     H262160   7.580   3.757   1.512
20640WAT      O62161   8.020   7.545   9.150
20640WAT     H162162   8.100   7.495   9.117
20640WAT     H262163   8.049   7.634   9.186
20641WAT      O62164   8.108   9.675   1.995
20641WAT     H162165   8.127   9.653   1.899
20641WAT     H262166   8.194   9.690   2.043
20642WAT      O62167   0.476   2.293   2.475
20642WAT     H162168   0.526   2.213   2.508
20642WAT     H262169   0.537   2.350   2.420
20643WAT      O62170   1.059   7.841   7.809
20643WAT     H162171   0.961   7.855   7.799
20643WAT     H262172   1.078   7.743   7.813
20644WAT      O62173   4.252   6.643   6.715
20644WAT     H162174   4.261   6.690   6.802
20644WAT     H262175   4.167   6.670   6.670
20645WAT      O62176   7.372   1.778   6.439
20645WAT     H162177   7.292   1.834   6.461
20645WAT     H262178   7.448   1.837   6.413
20646WAT      O62179   7.509   9.749   0.817
20646WAT     H162180   7.537   9.653   0.813
20646WAT     H262181   7.414   9.755   0.847
20647WAT      O62182   6.813   0.104   6.092
20647WAT     H162183   6.753   0.064   6.161
20647WAT     H262184   6.897   0.051   6.086
20648WAT      O62185   8.510   1.241   8.831
20648WAT     H162186   8.442   1.287   8.889
20648WAT     H262187   8.510   1.283   8.740
20649WAT      O62188   3.059   5.275   6.474
20649WAT     H162189   3.128   5.338   6.509
20649WAT     H262190   2.997   5.248   6.548
20650WAT      O62191   2.093   1.865   1.495
20650WAT     H162192   2.122   1.858   1.400
20650WAT     H262193   2.097   1.960   1.525
20651WAT      O62194   0.346   3.765   1.051
20651WAT     H162195   0.399   3.690   1.011
20651WAT     H262196   0.353   3.761   1.151
20652WAT      O62197   1.951   9.078   3.818
20652WAT     H162198   1.881   9.134   3.862
20652WAT     H262199   2.030   9.134   3.795
20653WAT      O62200   4.050   6.968   4.665
20653WAT     H162201   4.102   6.884   4.680
20653WAT     H262202   3.992   6.957   4.585
20654WAT      O62203   3.852   3.142   9.110
20654WAT     H162204   3.911   3.174   9.035
20654WAT     H262205   3.889   3.176   9.196
20655WAT      O62206   9.488   0.051   2.693
20655WAT     H162207   9.497   0.151   2.688
20655WAT     H262208   9.405   0.022   2.645
20656WAT      O62209   1.859   9.073   8.279
20656WAT     H162210   1.856   9.172   8.267
20656WAT     H262211   1.883   9.029   8.193
20657WAT      O62212   2.131   8.492   4.806
20657WAT     H162213   2.082   8.405   4.801
20657WAT     H262214   2.118   8.543   4.721
20658WAT      O62215   8.197   1.014   0.895
20658WAT     H162216   8.135   0.938   0.917
20658WAT     H262217   8.143   1.092   0.864
20659WAT      O62218   5.584   9.432   2.986
20659WAT     H162219   5.541   9.359   3.038
20659WAT     H262220   5.571   9.519   3.034
20660WAT      O62221   4.084   4.594   4.053
20660WAT     H162222   4.139   4.543   4.119
20660WAT     H262223   4.139   4.615   3.972
20661WAT      O62224   0.572   0.745   4.656
20661WAT     H162225   0.519   0.767   4.574
20661WAT     H262226   0.526   0.782   4.736
20662WAT      O62227   4.953   9.708   5.258
20662WAT     H162228   4.940   9.752   5.347
20662WAT     H262229   4.932   9.611   5.265
20663WAT      O62230   6.697   3.619   2.474
20663WAT     H162231   6.650   3.569   2.401
20663WAT     H262232   6.693   3.717   2.454
20664WAT      O62233   7.331   5.333   6.109
20664WAT     H162234   7.385   5.249   6.096
20664WAT     H262235   7.393   5.410   6.125
20665WAT      O62236   0.505   0.919   6.039
20665WAT     H162237   0.536   0.972   5.960
20665WAT     H262238   0.566   0.841   6.053
20666WAT      O62239   7.313   7.460   9.197
20666WAT     H162240   7.230   7.478   9.144
20666WAT     H262241   7.317   7.523   9.274
20667WAT      O62242   5.542   7.362   4.166
20667WAT     H162243   5.633   7.351   4.206
20667WAT     H262244   5.478   7.300   4.211
20668WAT      O62245   4.824   7.010   0.175
20668WAT     H162246   4.732   7.016   0.138
20668WAT     H262247   4.888   7.056   0.114
20669WAT      O62248   9.327   0.818   8.224
20669WAT     H162249   9.427   0.819   8.215
20669WAT     H262250   9.298   0.732   8.266
20670WAT      O62251   6.463   5.345   6.259
20670WAT     H162252   6.554   5.355   6.298
20670WAT     H262253   6.418   5.265   6.299
20671WAT      O62254   0.313   3.631   3.315
20671WAT     H162255   0.342   3.545   3.275
20671WAT     H262256   0.323   3.704   3.247
20672WAT      O62257   4.832   2.029   7.488
20672WAT     H162258   4.741   1.988   7.496
20672WAT     H262259   4.835   2.087   7.406
20673WAT      O62260   3.203   0.037   4.936
20673WAT     H162261   3.244  -0.052   4.955
20673WAT     H262262   3.271   0.109   4.947
20674WAT      O62263   4.506   8.577   1.975
20674WAT     H162264   4.511   8.483   1.940
20674WAT     H262265   4.411   8.599   1.997
20675WAT      O62266   5.908   8.248   9.684
20675WAT     H162267   5.869   8.326   9.732
20675WAT     H262268   5.868   8.163   9.719
20676WAT      O62269   3.301   4.762   9.442
20676WAT     H162270   3.275   4.813   9.360
20676WAT     H262271   3.224   4.757   9.504
20677WAT      O62272   3.915   1.449   8.694
20677WAT     H162273   3.962   1.504   8.625
20677WAT     H262274   3.852   1.507   8.745
20678WAT      O62275   1.191   2.623   8.909
20678WAT     H162276   1.207   2.719   8.928
20678WAT     H262277   1.106   2.613   8.857
20679WAT      O62278   5.936   6.013   5.181
20679WAT     H162279   5.951   6.108   5.208
20679WAT     H262280   5.838   5.993   5.182
20680WAT      O62281   2.949   0.363   9.708
20680WAT     H162282   2.850   0.353   9.703
20680WAT     H262283   2.985   0.299   9.775
20681WAT      O62284   5.408   8.807   2.167
20681WAT     H162285   5.462   8.811   2.082
20681WAT     H262286   5.469   8.816   2.245
20682WAT      O62287   0.334   2.589   2.281
20682WAT     H162288   0.321   2.685   2.256
20682WAT     H262289   0.304   2.574   2.375
20683WAT      O62290   3.527   1.923   2.202
20683WAT     H162291   3.504   1.830   2.173
20683WAT     H262292   3.473   1.947   2.282
20684WAT      O62293   3.306   3.349   6.971
20684WAT     H162294   3.317   3.445   6.996
20684WAT     H262295   3.242   3.343   6.894
20685WAT      O62296   4.792   1.260   0.018
20685WAT     H162297   4.708   1.219   0.051
20685WAT     H262298   4.786   1.360   0.026
20686WAT      O62299   0.338   4.536   2.449
20686WAT     H162300   0.339   4.599   2.528
20686WAT     H262301   0.262   4.561   2.389
20687WAT      O62302   9.189   8.085   1.945
20687WAT     H162303   9.174   8.140   1.863
20687WAT     H262304   9.287   8.071   1.959
20688WAT      O62305   1.508   5.266   9.181
20688WAT     H162306   1.543   5.317   9.103
20688WAT     H262307   1.424   5.309   9.214
20689WAT      O62308   7.139   3.153   5.546
20689WAT     H162309   7.068   3.203   5.595
20689WAT     H262310   7.226   3.159   5.595
20690WAT      O62311   6.673   0.182   9.711
20690WAT     H162312   6.581   0.178   9.673
20690WAT     H262313   6.740   0.167   9.639
20691WAT      O62314   6.893   1.475   9.837
20691WAT     H162315   6.892   1.459   9.738
20691WAT     H262316   6.805   1.510   9.866
20692WAT      O62317   7.192   2.852   4.053
20692WAT     H162318   7.257   2.780   4.028
20692WAT     H262319   7.109   2.843   3.997
20693WAT      O62320   6.804   0.808   1.948
20693WAT     H162321   6.887   0.860   1.968
20693WAT     H262322   6.790   0.738   2.019
20694WAT      O62323   0.391   2.873   0.696
20694WAT     H162324   0.311   2.836   0.743
20694WAT     H262325   0.469   2.811   0.708
20695WAT      O62326   5.359   0.805   7.662
20695WAT     H162327   5.397   0.852   7.742
20695WAT     H262328   5.289   0.863   7.620
20696WAT      O62329   4.258   3.272   2.431
20696WAT     H162330   4.293   3.193   2.381
20696WAT     H262331   4.170   3.250   2.473
20697WAT      O62332   3.672   0.940   6.393
20697WAT     H162333   3.591   0.997   6.380
20697WAT     H262334   3.744   0.993   6.438
20698WAT      O62335   6.221   0.142   6.208
20698WAT     H162336   6.233   0.047   6.239
20698WAT     H262337   6.261   0.154   6.118
20699WAT      O62338   0.677   7.454   0.994
20699WAT     H162339   0.623   7.404   0.926
20699WAT     H262340   0.644   7.548   1.002
20700WAT      O62341   2.670   0.016   3.634
20700WAT     H162342   2.740  -0.040   3.679
20700WAT     H262343   2.698   0.112   3.635
20701WAT      O62344   5.965   7.332   9.406
20701WAT     H162345   5.997   7.426   9.417
20701WAT     H262346   5.922   7.321   9.317
20702WAT      O62347   8.365   7.615   6.795
20702WAT     H162348   8.385   7.673   6.716
20702WAT     H262349   8.405   7.655   6.878
20703WAT      O62350   0.853   1.113   5.235
20703WAT     H162351   0.945   1.151   5.227
20703WAT     H262352   0.841   1.073   5.326
20704WAT      O62353   1.219   9.093   6.606
20704WAT     H162354   1.290   9.052   6.549
20704WAT     H262355   1.258   9.120   6.694
20705WAT      O62356   5.216   8.061   1.550
20705WAT     H162357   5.234   7.965   1.529
20705WAT     H262358   5.188   8.069   1.646
20706WAT      O62359   0.216   9.038   9.094
20706WAT     H162360   0.201   9.134   9.074
20706WAT     H262361   0.169   8.981   9.026
20707WAT      O62362   1.878   6.999   4.975
20707WAT     H162363   1.929   6.918   4.946
20707WAT     H262364   1.933   7.081   4.959
20708WAT      O62365   3.597   2.965   7.256
20708WAT     H162366   3.599   3.020   7.172
20708WAT     H262367   3.669   2.997   7.318
20709WAT      O62368   2.033   2.267   9.786
20709WAT     H162369   2.049   2.170   9.769
20709WAT     H262370   2.025   2.316   9.699
20710WAT      O62371   9.481   5.080   3.330
20710WAT     H162372   9.568   5.045   3.296
20710WAT     H262373   9.414   5.006   3.333
20711WAT      O62374   4.005   7.454   0.649
20711WAT     H162375   3.969   7.392   0.720
20711WAT     H262376   4.072   7.515   0.690
20712WAT      O62377   3.389   9.669   7.747
20712WAT     H162378   3.422   9.597   7.686
20712WAT     H262379   3.460   9.689   7.815
20713WAT      O62380   8.451   0.655   5.405
20713WAT     H162381   8.487   0.590   5.471
20713WAT     H262382   8.351   0.652   5.407
20714WAT      O62383   0.073   0.274   1.488
20714WAT     H162384   0.024   0.234   1.411
20714WAT     H262385   0.039   0.366   1.505
20715WAT      O62386   1.778   0.120   9.430
20715WAT     H162387   1.723   0.198   9.461
20715WAT     H262388   1.820   0.076   9.509
20716WAT      O62389   0.018   9.591   6.405
20716WAT     H162390   0.118   9.598   6.395
20716WAT     H262391  -0.011   9.498   6.380
20717WAT      O62392   2.932   0.920   1.013
20717WAT     H162393   2.870   0.943   1.089
20717WAT     H262394   2.890   0.948   0.927
20718WAT      O62395   9.611   7.610   3.945
20718WAT     H162396   9.633   7.692   3.998
20718WAT     H262397   9.526   7.624   3.895
20719WAT      O62398   3.253   7.416   6.380
20719WAT     H162399   3.156   7.406   6.404
20719WAT     H262400   3.309   7.402   6.462
20720WAT      O62401   6.788   7.272   2.289
20720WAT     H162402   6.807   7.292   2.385
20720WAT     H262403   6.814   7.177   2.270
20721WAT      O62404   6.283   0.547   7.626
20721WAT     H162405   6.294   0.552   7.725
20721WAT     H262406   6.369   0.573   7.582
20722WAT      O62407   1.885   2.329   7.406
20722WAT     H162408   1.866   2.404   7.468
20722WAT     H262409   1.813   2.322   7.337
20723WAT      O62410   9.673   1.274   1.678
20723WAT     H162411   9.598   1.248   1.617
20723WAT     H262412   9.644   1.265   1.773
20724WAT      O62413   8.746   8.449   5.824
20724WAT     H162414   8.779   8.475   5.733
20724WAT     H262415   8.823   8.416   5.879
20725WAT      O62416   6.362   4.139   1.008
20725WAT     H162417   6.422   4.101   0.937
20725WAT     H262418   6.386   4.099   1.096
20726WAT      O62419   5.994   4.952   9.060
20726WAT     H162420   5.914   4.937   9.117
20726WAT     H262421   5.969   4.947   8.963
20727WAT      O62422   1.511   4.487   2.914
20727WAT     H162423   1.599   4.441   2.904
20727WAT     H262424   1.440   4.420   2.933
20728WAT      O62425   3.661   1.949   7.255
20728WAT     H162426   3.712   1.905   7.328
20728WAT     H262427   3.611   2.028   7.291
20729WAT      O62428   6.037   6.680   5.348
20729WAT     H162429   5.986   6.687   5.434
20729WAT     H262430   6.123   6.632   5.365
20730WAT      O62431   4.647   2.010   6.714
20730WAT     H162432   4.726   1.974   6.762
20730WAT     H262433   4.647   2.110   6.721
20731WAT      O62434   5.164   7.402   8.008
20731WAT     H162435   5.108   7.343   7.950
20731WAT     H262436   5.246   7.352   8.037
20732WAT      O62437   3.547   1.651   2.369
20732WAT     H162438   3.611   1.602   2.309
20732WAT     H262439   3.458   1.605   2.367
20733WAT      O62440   6.846   3.009   8.764
20733WAT     H162441   6.792   2.979   8.843
20733WAT     H262442   6.784   3.029   8.688
20734WAT      O62443   2.270   2.412   2.616
20734WAT     H162444   2.188   2.359   2.635
20734WAT     H262445   2.288   2.475   2.692
20735WAT      O62446   4.698   3.392   6.918
20735WAT     H162447   4.666   3.334   6.843
20735WAT     H262448   4.654   3.481   6.911
20736WAT      O62449   5.545   5.092   7.229
20736WAT     H162450   5.635   5.136   7.224
20736WAT     H262451   5.488   5.127   7.154
20737WAT      O62452   3.444   2.928   4.650
20737WAT     H162453   3.418   2.890   4.738
20737WAT     H262454   3.461   3.026   4.659
20738WAT      O62455   0.353   5.358   1.028
20738WAT     H162456   0.442   5.332   1.067
20738WAT     H262457   0.351   5.457   1.015
20739WAT      O62458   3.722   0.642   1.122
20739WAT     H162459   3.624   0.650   1.102
20739WAT     H262460   3.759   0.732   1.144
20740WAT      O62461   8.568   2.810   7.132
20740WAT     H162462   8.638   2.881   7.124
20740WAT     H262463   8.573   2.749   7.053
20741WAT      O62464   5.031   9.306   4.979
20741WAT     H162465   4.951   9.364   4.988
20741WAT     H262466   5.010   9.215   5.016
20742WAT      O62467   8.489   8.648   3.942
20742WAT     H162468   8.434   8.593   3.879
20742WAT     H262469   8.568   8.685   3.893
20743WAT      O62470   2.944   3.629   9.265
20743WAT     H162471   3.023   3.567   9.265
20743WAT     H262472   2.877   3.597   9.332
20744WAT      O62473   3.154   4.981   7.761
20744WAT     H162474   3.160   5.022   7.670
20744WAT     H262475   3.189   5.046   7.829
20745WAT      O62476   4.034   3.250   7.805
20745WAT     H162477   3.982   3.333   7.786
20745WAT     H262478   3.990   3.172   7.759
20746WAT      O62479   8.234   8.192   7.498
20746WAT     H162480   8.143   8.211   7.535
20746WAT     H262481   8.246   8.093   7.489
20747WAT      O62482   1.969   5.188   6.538
20747WAT     H162483   2.003   5.145   6.622
20747WAT     H262484   1.890   5.136   6.504
20748WAT      O62485   0.139   3.756   6.420
20748WAT     H162486   0.131   3.836   6.480
20748WAT     H262487   0.227   3.759   6.373
20749WAT      O62488   1.179   4.763   2.876
20749WAT     H162489   1.248   4.728   2.811
20749WAT     H262490   1.101   4.700   2.878
20750WAT      O62491   2.176   0.452   8.793
20750WAT     H162492   2.140   0.391   8.723
20750WAT     H262493   2.113   0.528   8.806
20751WAT      O62494   5.978   9.008   3.240
20751WAT     H162495   6.044   8.944   3.201
20751WAT     H262496   6.026   9.082   3.287
20752WAT      O62497   6.213   4.962   4.872
20752WAT     H162498   6.204   5.062   4.869
20752WAT     H262499   6.177   4.928   4.959
20753WAT      O62500   9.651   2.343   8.180
20753WAT     H162501   9.657   2.244   8.170
20753WAT     H262502   9.586   2.365   8.253
20754WAT      O62503   2.784   5.519   9.028
20754WAT     H162504   2.849   5.484   9.096
20754WAT     H262505   2.717   5.448   9.007
20755WAT      O62506   6.194   5.545   6.458
20755WAT     H162507   6.142   5.541   6.373
20755WAT     H262508   6.143   5.597   6.526
20756WAT      O62509   6.065   0.766   3.729
20756WAT     H162510   6.142   0.750   3.668
20756WAT     H262511   6.095   0.820   3.808
20757WAT      O62512   1.988   3.393   9.437
20757WAT     H162513   2.022   3.396   9.531
20757WAT     H262514   2.039   3.460   9.382
20758WAT      O62515   9.178   7.089   9.503
20758WAT     H162516   9.105   7.043   9.451
20758WAT     H262517   9.247   7.022   9.530
20759WAT      O62518   3.088   4.148   0.323
20759WAT     H162519   3.099   4.085   0.399
20759WAT     H262520   3.174   4.157   0.274
20760WAT      O62521   0.656   7.910   0.906
20760WAT     H162522   0.616   7.846   0.971
20760WAT     H262523   0.615   8.000   0.918
20761WAT      O62524   4.350   3.590   8.571
20761WAT     H162525   4.348   3.575   8.472
20761WAT     H262526   4.277   3.536   8.614
20762WAT      O62527   3.157   0.267   7.891
20762WAT     H162528   3.083   0.243   7.828
20762WAT     H262529   3.241   0.282   7.840
20763WAT      O62530   2.457   2.841   7.672
20763WAT     H162531   2.455   2.889   7.760
20763WAT     H262532   2.502   2.752   7.684
20764WAT      O62533   8.646   7.356   4.038
20764WAT     H162534   8.713   7.421   4.002
20764WAT     H262535   8.683   7.309   4.118
20765WAT      O62536   3.989   3.364   8.461
20765WAT     H162537   3.986   3.264   8.459
20765WAT     H262538   4.061   3.397   8.400
20766WAT      O62539   1.055   7.032   6.992
20766WAT     H162540   0.963   7.028   6.954
20766WAT     H262541   1.073   7.125   7.025
20767WAT      O62542   1.708   2.524   8.650
20767WAT     H162543   1.783   2.566   8.599
20767WAT     H262544   1.710   2.555   8.745
20768WAT      O62545   8.533   2.322   8.660
20768WAT     H162546   8.499   2.321   8.566
20768WAT     H262547   8.462   2.288   8.722
20769WAT      O62548   1.408   1.406   0.744
20769WAT     H162549   1.478   1.337   0.723
20769WAT     H262550   1.383   1.399   0.841
20770WAT      O62551   8.096   3.759   6.195
20770WAT     H162552   8.016   3.704   6.220
20770WAT     H262553   8.082   3.798   6.104
20771WAT      O62554   5.070   9.297   2.437
20771WAT     H162555   4.993   9.234   2.428
20771WAT     H262556   5.155   9.245   2.439
20772WAT      O62557   4.632   2.679   3.300
20772WAT     H162558   4.592   2.592   3.271
20772WAT     H262559   4.686   2.665   3.383
20773WAT      O62560   8.279   9.313   9.499
20773WAT     H162561   8.220   9.389   9.525
20773WAT     H262562   8.347   9.298   9.570
20774WAT      O62563   6.901   6.344   2.611
20774WAT     H162564   6.978   6.345   2.675
20774WAT     H262565   6.876   6.250   2.589
20775WAT      O62566   8.097   7.946   8.747
20775WAT     H162567   8.161   8.020   8.765
20775WAT     H262568   8.124   7.865   8.799
20776WAT      O62569   0.333   9.748   1.915
20776WAT     H162570   0.365   9.698   1.995
20776WAT     H262571   0.398   9.735   1.840
20777WAT      O62572   1.761   9.440   0.171
20777WAT     H162573   1.797   9.532   0.184
20777WAT     H262574   1.690   9.442   0.100
20778WAT      O62575   6.043   6.983   3.997
20778WAT     H162576   6.097   6.914   4.047
20778WAT     H262577   6.014   6.945   3.909
20779WAT      O62578   5.176   3.674   4.339
20779WAT     H162579   5.149   3.585   4.374
20779WAT     H262580   5.104   3.741   4.360
20780WAT      O62581   7.420   0.107   9.261
20780WAT     H162582   7.365   0.123   9.180
20780WAT     H262583   7.391   0.022   9.305
20781WAT      O62584   6.589   9.615   1.030
20781WAT     H162585   6.675   9.563   1.037
20781WAT     H262586   6.556   9.635   1.122
20782WAT      O62587   0.981   4.918   9.216
20782WAT     H162588   1.077   4.925   9.243
20782WAT     H262589   0.945   4.829   9.243
20783WAT      O62590   2.669   1.143   2.841
20783WAT     H162591   2.686   1.046   2.827
20783WAT     H262592   2.583   1.169   2.797
20784WAT      O62593   2.729   3.317   2.770
20784WAT     H162594   2.674   3.331   2.688
20784WAT     H262595   2.752   3.220   2.779
20785WAT      O62596   8.723   7.681   4.206
20785WAT     H162597   8.735   7.738   4.287
20785WAT     H262598   8.718   7.585   4.232
20786WAT      O62599   7.966   8.096   1.287
20786WAT     H162600   7.882   8.050   1.315
20786WAT     H262601   8.016   8.126   1.368
20787WAT      O62602   0.416   4.895   5.435
20787WAT     H162603   0.399   4.806   5.393
20787WAT     H262604   0.434   4.963   5.364
20788WAT      O62605   4.354   7.529   0.472
20788WAT     H162606   4.401   7.571   0.395
20788WAT     H262607   4.260   7.507   0.446
20789WAT      O62608   4.432   2.816   1.124
20789WAT     H162609   4.385   2.865   1.050
20789WAT     H262610   4.409   2.859   1.212
20790WAT      O62611   9.299   6.909   6.578
20790WAT     H162612   9.372   6.862   6.527
20790WAT     H262613   9.338   6.953   6.658
20791WAT      O62614   6.948   2.627   8.038
20791WAT     H162615   6.853   2.642   8.067
20791WAT     H262616   6.954   2.538   7.992
20792WAT      O62617   6.794   5.051   7.279
20792WAT     H162618   6.888   5.075   7.302
20792WAT     H262619   6.739   5.135   7.277
20793WAT      O62620   1.046   9.450   3.087
20793WAT     H162621   1.062   9.355   3.060
20793WAT     H262622   0.947   9.467   3.089
20794WAT      O62623   6.634   1.478   8.148
20794WAT     H162624   6.691   1.396   8.140
20794WAT     H262625   6.635   1.511   8.242
20795WAT      O62626   1.153   2.989   4.051
20795WAT     H162627   1.205   2.976   4.135
20795WAT     H262628   1.154   2.904   3.997
20796WAT      O62629   0.777   9.586   6.217
20796WAT     H162630   0.823   9.505   6.181
20796WAT     H262631   0.817   9.612   6.305
20797WAT      O62632   0.148   1.716   8.214
20797WAT     H162633   0.240   1.687   8.187
20797WAT     H262634   0.118   1.792   8.156
20798WAT      O62635   3.120   5.552   0.685
20798WAT     H162636   3.093   5.614   0.758
20798WAT     H262637   3.076   5.581   0.600
20799WAT      O62638   2.681   7.580   9.094
20799WAT     H162639   2.684   7.547   9.000
20799WAT     H262640   2.769   7.622   9.118
20800WAT      O62641   2.720   7.126   1.169
20800WAT     H162642   2.630   7.136   1.126
20800WAT     H262643   2.791   7.130   1.099
20801WAT      O62644   0.196   0.936   7.468
20801WAT     H162645   0.279   0.940   7.413
20801WAT     H262646   0.127   0.880   7.421
20802WAT      O62647   8.833   3.971   5.127
20802WAT     H162648   8.851   3.873   5.142
20802WAT     H262649   8.898   4.025   5.180
20803WAT      O62650   3.182   1.218   5.201
20803WAT     H162651   3.197   1.119   5.190
20803WAT     H262652   3.102   1.232   5.260
20804WAT      O62653   4.558   5.652   5.887
20804WAT     H162654   4.496   5.659   5.965
20804WAT     H262655   4.638   5.710   5.903
20805WAT      O62656   4.791   3.007   8.454
20805WAT     H162657   4.813   3.057   8.538
20805WAT     H262658   4.818   2.911   8.466
20806WAT      O62659   2.785   1.443   0.095
20806WAT     H162660   2.853   1.389   0.045
20806WAT     H262661   2.786   1.537   0.062
20807WAT      O62662   2.154   7.227   8.659
20807WAT     H162663   2.075   7.282   8.631
20807WAT     H262664   2.133   7.130   8.647
20808WAT      O62665   5.743   5.037   2.398
20808WAT     H162666   5.680   5.114   2.383
20808WAT     H262667   5.837   5.067   2.385
20809WAT      O62668   3.527   1.392   8.263
20809WAT     H162669   3.447   1.355   8.312
20809WAT     H262670   3.601   1.324   8.264
20810WAT      O62671   5.302   6.946   8.004
20810WAT     H162672   5.323   7.042   8.025
20810WAT     H262673   5.269   6.939   7.910
20811WAT      O62674   7.792   5.325   7.278
20811WAT     H162675   7.858   5.397   7.298
20811WAT     H262676   7.778   5.319   7.179
20812WAT      O62677   0.248   9.702   8.730
20812WAT     H162678   0.236   9.800   8.749
20812WAT     H262679   0.279   9.690   8.636
20813WAT      O62680   5.988   9.308   7.557
20813WAT     H162681   6.078   9.288   7.596
20813WAT     H262682   5.935   9.363   7.621
20814WAT      O62683   9.712   1.509   5.913
20814WAT     H162684   9.633   1.467   5.868
20814WAT     H262685   9.786   1.519   5.847
20815WAT      O62686   3.639   1.987   8.696
20815WAT     H162687   3.608   1.903   8.650
20815WAT     H262688   3.561   2.050   8.706
20816WAT      O62689   0.529   4.794   3.469
20816WAT     H162690   0.445   4.748   3.442
20816WAT     H262691   0.517   4.893   3.463
20817WAT      O62692   0.053   0.685   4.087
20817WAT     H162693   0.133   0.641   4.048
20817WAT     H262694  -0.019   0.617   4.102
20818WAT      O62695   6.121   5.958   8.337
20818WAT     H162696   6.130   5.949   8.238
20818WAT     H262697   6.211   5.972   8.377
20819WAT      O62698   5.383   7.788   6.223
20819WAT     H162699   5.423   7.798   6.314
20819WAT     H262700   5.437   7.723   6.169
20820WAT      O62701   1.948   7.117   2.291
20820WAT     H162702   1.923   7.200   2.341
20820WAT     H262703   2.043   7.123   2.261
20821WAT      O62704   6.953   0.672   8.021
20821WAT     H162705   6.903   0.586   8.005
20821WAT     H262706   6.962   0.687   8.119
20822WAT      O62707   7.515   6.662   9.631
20822WAT     H162708   7.434   6.626   9.585
20822WAT     H262709   7.567   6.587   9.671
20823WAT      O62710   9.149   4.191   7.716
20823WAT     H162711   9.178   4.140   7.797
20823WAT     H262712   9.144   4.130   7.637
20824WAT      O62713   9.045   6.937   1.003
20824WAT     H162714   9.027   6.994   0.923
20824WAT     H262715   8.968   6.875   1.018
20825WAT      O62716   4.637   4.629   0.367
20825WAT     H162717   4.725   4.658   0.330
20825WAT     H262718   4.631   4.656   0.463
20826WAT      O62719   7.815   7.208   5.461
20826WAT     H162720   7.722   7.177   5.441
20826WAT     H262721   7.822   7.306   5.443
20827WAT      O62722   3.123   9.092   5.072
20827WAT     H162723   3.072   9.154   5.132
20827WAT     H262724   3.071   9.076   4.988
20828WAT      O62725   4.266   3.118   8.216
20828WAT     H162726   4.334   3.088   8.150
20828WAT     H262727   4.175   3.119   8.173
20829WAT      O62728   6.116   7.279   1.932
20829WAT     H162729   6.184   7.230   1.986
20829WAT     H262730   6.086   7.361   1.982
20830WAT      O62731   0.048   9.095   3.794
20830WAT     H162732   0.127   9.035   3.806
20830WAT     H262733  -0.036   9.045   3.815
20831WAT      O62734   1.560   9.839   9.584
20831WAT     H162735   1.593   9.752   9.619
20831WAT     H262736   1.620   9.872   9.512
20832WAT      O62737   1.739   4.681   9.516
20832WAT     H162738   1.698   4.673   9.607
20832WAT     H262739   1.691   4.753   9.465
20833WAT      O62740   9.306   6.888   1.095
20833WAT     H162741   9.344   6.969   1.139
20833WAT     H262742   9.206   6.894   1.094
20834WAT      O62743   2.069   3.864   4.100
20834WAT     H162744   2.065   3.801   4.022
20834WAT     H262745   1.995   3.843   4.163
20835WAT      O62746   2.873   4.678   0.618
20835WAT     H162747   2.893   4.745   0.689
20835WAT     H262748   2.835   4.596   0.660
20836WAT      O62749   7.757   1.919   9.650
20836WAT     H162750   7.799   2.006   9.624
20836WAT     H262751   7.725   1.871   9.568
20837WAT      O62752   4.914   5.682   1.421
20837WAT     H162753   4.835   5.705   1.478
20837WAT     H262754   4.946   5.590   1.444
20838WAT      O62755   9.295   8.943   0.258
20838WAT     H162756   9.333   8.864   0.306
20838WAT     H262757   9.292   8.925   0.160
20839WAT      O62758   3.194   7.457   1.236
20839WAT     H162759   3.141   7.515   1.174
20839WAT     H262760   3.184   7.490   1.330
20840WAT      O62761   7.084   3.352   1.188
20840WAT     H162762   7.081   3.440   1.140
20840WAT     H262763   7.152   3.293   1.145
20841WAT      O62764   4.348   7.420   6.441
20841WAT     H162765   4.292   7.337   6.441
20841WAT     H262766   4.443   7.396   6.465
20842WAT      O62767   5.128   4.058   6.806
20842WAT     H162768   5.223   4.081   6.827
20842WAT     H262769   5.113   4.063   6.707
20843WAT      O62770   2.163   9.751   6.633
20843WAT     H162771   2.219   9.764   6.715
20843WAT     H262772   2.208   9.795   6.555
20844WAT      O62773   8.199   5.757   4.823
20844WAT     H162774   8.285   5.748   4.872
20844WAT     H262775   8.216   5.751   4.725
20845WAT      O62776   5.591   0.857   4.934
20845WAT     H162777   5.502   0.865   4.890
20845WAT     H262778   5.627   0.765   4.919
20846WAT      O62779   1.062   0.461   2.769
20846WAT     H162780   0.987   0.514   2.730
20846WAT     H262781   1.148   0.491   2.730
20847WAT      O62782   9.454   5.584   1.046
20847WAT     H162783   9.420   5.671   1.081
20847WAT     H262784   9.379   5.534   1.002
20848WAT      O62785   0.379   0.345   7.014
20848WAT     H162786   0.450   0.285   7.052
20848WAT     H262787   0.304   0.289   6.980
20849WAT      O62788   3.362   7.396   2.574
20849WAT     H162789   3.405   7.362   2.490
20849WAT     H262790   3.316   7.320   2.620
20850WAT      O62791   7.932   6.715   7.244
20850WAT     H162792   7.954   6.812   7.235
20850WAT     H262793   7.872   6.687   7.170
20851WAT      O62794   9.879   6.883   1.113
20851WAT     H162795   9.824   6.800   1.117
20851WAT     H262796   9.928   6.885   1.026
20852WAT      O62797   9.493   9.043   1.887
20852WAT     H162798   9.532   9.135   1.885
20852WAT     H262799   9.462   9.022   1.980
20853WAT      O62800   5.936   9.062   7.882
20853WAT     H162801   6.022   9.084   7.928
20853WAT     H262802   5.877   9.143   7.882
20854WAT      O62803   6.767   3.310   3.098
20854WAT     H162804   6.837   3.260   3.048
20854WAT     H262805   6.689   3.250   3.117
20855WAT      O62806   3.897   5.927   7.889
20855WAT     H162807   3.836   6.006   7.891
20855WAT     H262808   3.987   5.954   7.922
20856WAT      O62809   7.708   4.178   2.528
20856WAT     H162810   7.741   4.100   2.582
20856WAT     H262811   7.735   4.167   2.433
20857WAT      O62812   8.707   5.570   0.494
20857WAT     H162813   8.720   5.646   0.431
20857WAT     H262814   8.622   5.522   0.472
20858WAT      O62815   5.814   0.707   8.393
20858WAT     H162816   5.884   0.636   8.408
20858WAT     H262817   5.723   0.665   8.398
20859WAT      O62818   0.594   1.986   1.517
20859WAT     H162819   0.575   1.969   1.420
20859WAT     H262820   0.602   1.898   1.565
20860WAT      O62821   6.227   7.095   2.292
20860WAT     H162822   6.278   7.079   2.377
20860WAT     H262823   6.250   7.185   2.256
20861WAT      O62824   5.857   0.458   5.602
20861WAT     H162825   5.829   0.550   5.630
20861WAT     H262826   5.904   0.413   5.678
20862WAT      O62827   9.842   4.246   9.095
20862WAT     H162828   9.788   4.293   9.165
20862WAT     H262829   9.781   4.206   9.026
20863WAT      O62830   3.578   0.953   4.845
20863WAT     H162831   3.507   1.017   4.873
20863WAT     H262832   3.535   0.868   4.812
20864WAT      O62833   5.178   6.590   5.114
20864WAT     H162834   5.132   6.507   5.146
20864WAT     H262835   5.175   6.660   5.185
20865WAT      O62836   5.834   0.422   6.955
20865WAT     H162837   5.773   0.408   6.877
20865WAT     H262838   5.786   0.398   7.040
20866WAT      O62839   2.011   5.227   2.904
20866WAT     H162840   2.013   5.130   2.929
20866WAT     H262841   1.931   5.245   2.846
20867WAT      O62842   9.130   3.383   6.070
20867WAT     H162843   9.210   3.409   6.123
20867WAT     H262844   9.119   3.284   6.072
20868WAT      O62845   3.521   4.650   1.503
20868WAT     H162846   3.458   4.622   1.431
20868WAT     H262847   3.490   4.735   1.544
20869WAT      O62848   0.442   4.967   4.630
20869WAT     H162849   0.406   4.986   4.722
20869WAT     H262850   0.377   4.909   4.581
20870WAT      O62851   7.869   5.745   2.982
20870WAT     H162852   7.815   5.680   2.928
20870WAT     H262853   7.957   5.761   2.938
20871WAT      O62854   0.937   2.696   6.948
20871WAT     H162855   1.031   2.699   6.984
20871WAT     H262856   0.912   2.601   6.926
20872WAT      O62857   6.200   1.128   3.075
20872WAT     H162858   6.147   1.047   3.103
20872WAT     H262859   6.137   1.201   3.049
20873WAT      O62860   0.790   6.475   8.850
20873WAT     H162861   0.761   6.405   8.786
20873WAT     H262862   0.888   6.494   8.837
20874WAT      O62863   4.038   0.615   8.223
20874WAT     H162864   4.128   0.659   8.228
20874WAT     H262865   3.969   0.684   8.199
20875WAT      O62866   5.612   7.835   0.390
20875WAT     H162867   5.692   7.821   0.448
20875WAT     H262868   5.593   7.753   0.336
20876WAT      O62869   0.582   2.262   0.992
20876WAT     H162870   0.496   2.225   1.028
20876WAT     H262871   0.627   2.192   0.937
20877WAT      O62872   2.605   0.069   1.391
20877WAT     H162873   2.544   0.146   1.409
20877WAT     H262874   2.639   0.033   1.477
20878WAT      O62875   4.914   7.675   0.412
20878WAT     H162876   4.948   7.681   0.318
20878WAT     H262877   4.980   7.715   0.475
20879WAT      O62878   6.663   0.824   0.463
20879WAT     H162879   6.633   0.739   0.506
20879WAT     H262880   6.656   0.899   0.529
20880WAT      O62881   5.198   3.703   0.472
20880WAT     H162882   5.270   3.650   0.427
20880WAT     H262883   5.194   3.678   0.569
20881WAT      O62884   3.523   3.482   3.108
20881WAT     H162885   3.614   3.494   3.068
20881WAT     H262886   3.463   3.435   3.043
20882WAT      O62887   3.094   7.076   7.414
20882WAT     H162888   3.051   7.135   7.346
20882WAT     H262889   3.085   7.118   7.505
20883WAT      O62890   2.277   1.969   9.073
20883WAT     H162891   2.346   1.971   9.001
20883WAT     H262892   2.259   1.875   9.101
20884WAT      O62893   6.228   5.058   9.093
20884WAT     H162894   6.139   5.013   9.099
20884WAT     H262895   6.273   5.055   9.183
20885WAT      O62896   0.419   4.282   5.559
20885WAT     H162897   0.477   4.321   5.488
20885WAT     H262898   0.369   4.354   5.606
20886WAT      O62899   3.974   5.776   5.998
20886WAT     H162900   3.928   5.833   6.066
20886WAT     H262901   4.048   5.828   5.956
20887WAT      O62902   4.771   3.034   9.094
20887WAT     H162903   4.821   3.106   9.046
20887WAT     H262904   4.810   3.020   9.185
20888WAT      O62905   4.368   3.870   8.964
20888WAT     H162906   4.301   3.846   8.893
20888WAT     H262907   4.412   3.786   8.997
20889WAT      O62908   9.566   3.594   6.746
20889WAT     H162909   9.620   3.510   6.743
20889WAT     H262910   9.480   3.576   6.794
20890WAT      O62911   2.774   3.035   1.542
20890WAT     H162912   2.758   3.061   1.447
20890WAT     H262913   2.687   3.037   1.592
20891WAT      O62914   6.800   9.677   3.890
20891WAT     H162915   6.766   9.641   3.803
20891WAT     H262916   6.751   9.634   3.966
20892WAT      O62917   4.876   4.632   2.192
20892WAT     H162918   4.883   4.699   2.266
20892WAT     H262919   4.783   4.633   2.155
20893WAT      O62920   4.138   6.196   8.596
20893WAT     H162921   4.172   6.192   8.690
20893WAT     H262922   4.215   6.204   8.533
20894WAT      O62923   6.872   5.810   6.271
20894WAT     H162924   6.897   5.748   6.196
20894WAT     H262925   6.928   5.893   6.265
20895WAT      O62926   7.556   9.030   9.411
20895WAT     H162927   7.499   9.072   9.340
20895WAT     H262928   7.617   9.099   9.449
20896WAT      O62929   1.283   3.111   1.547
20896WAT     H162930   1.368   3.072   1.583
20896WAT     H262931   1.304   3.186   1.484
20897WAT      O62932   5.823   5.783   4.026
20897WAT     H162933   5.802   5.804   4.122
20897WAT     H262934   5.741   5.749   3.981
20898WAT      O62935   4.195   2.204   0.686
20898WAT     H162936   4.100   2.226   0.668
20898WAT     H262937   4.244   2.196   0.599
20899WAT      O62938   3.514   5.654   8.550
20899WAT     H162939   3.613   5.671   8.552
20899WAT     H262940   3.472   5.709   8.478
20900WAT      O62941   1.005   3.531   3.417
20900WAT     H162942   1.089   3.478   3.414
20900WAT     H262943   1.005   3.598   3.342
20901WAT      O62944   0.596   0.594   5.684
20901WAT     H162945   0.555   0.680   5.711
20901WAT     H262946   0.530   0.540   5.632
20902WAT      O62947   3.612   3.262   0.070
20902WAT     H162948   3.690   3.320   0.049
20902WAT     H262949   3.573   3.289   0.158
20903WAT      O62950   6.234   1.348   2.045
20903WAT     H162951   6.270   1.254   2.049
20903WAT     H262952   6.220   1.382   2.138
20904WAT      O62953   1.080   0.346   3.875
20904WAT     H162954   1.157   0.379   3.930
20904WAT     H262955   0.995   0.385   3.911
20905WAT      O62956   3.157   5.066   4.969
20905WAT     H162957   3.097   5.091   5.045
20905WAT     H262958   3.117   5.099   4.883
20906WAT      O62959   8.088   8.435   5.701
20906WAT     H162960   8.010   8.413   5.642
20906WAT     H262961   8.118   8.353   5.749
20907WAT      O62962   2.270   2.711   7.543
20907WAT     H162963   2.330   2.777   7.587
20907WAT     H262964   2.203   2.759   7.486
20908WAT      O62965   3.921   6.593   3.713
20908WAT     H162966   3.896   6.503   3.677
20908WAT     H262967   3.984   6.638   3.651
20909WAT      O62968   4.097   5.454   7.772
20909WAT     H162969   4.051   5.518   7.711
20909WAT     H262970   4.054   5.458   7.862
20910WAT      O62971   2.022   1.709   3.941
20910WAT     H162972   2.059   1.750   3.858
20910WAT     H262973   2.081   1.732   4.018
20911WAT      O62974   1.836   7.779   2.253
20911WAT     H162975   1.871   7.700   2.202
20911WAT     H262976   1.767   7.748   2.318
20912WAT      O62977   5.014   6.753   3.016
20912WAT     H162978   5.028   6.794   3.106
20912WAT     H262979   4.924   6.710   3.013
20913WAT      O62980   9.396   5.542   5.066
20913WAT     H162981   9.323   5.533   5.133
20913WAT     H262982   9.358   5.533   4.974
20914WAT      O62983   3.168   2.398   9.459
20914WAT     H162984   3.201   2.389   9.365
20914WAT     H262985   3.221   2.468   9.507
20915WAT      O62986   4.361   3.789   7.064
20915WAT     H162987   4.305   3.851   7.119
20915WAT     H262988   4.307   3.754   6.987
20916WAT      O62989   0.186   1.398   7.771
20916WAT     H162990   0.247   1.326   7.803
20916WAT     H262991   0.221   1.487   7.802
20917WAT      O62992   9.591   9.728   0.295
20917WAT     H162993   9.551   9.639   0.317
20917WAT     H262994   9.532   9.801   0.330
20918WAT      O62995   6.208   9.514   7.200
20918WAT     H162996   6.238   9.480   7.289
20918WAT     H262997   6.137   9.453   7.163
20919WAT      O62998   7.808   5.283   9.403
20919WAT     H162999   7.881   5.267   9.336
20919WAT     H263000   7.763   5.369   9.383
20920WAT      O63001   8.758   4.256   4.668
20920WAT     H163002   8.776   4.244   4.766
20920WAT     H263003   8.768   4.168   4.622
20921WAT      O63004   7.894   9.512   3.219
20921WAT     H163005   7.944   9.456   3.285
20921WAT     H263006   7.945   9.597   3.202
20922WAT      O63007   8.161   3.513   2.709
20922WAT     H163008   8.155   3.554   2.800
20922WAT     H263009   8.179   3.415   2.718
20923WAT      O63010   8.175   0.599   7.095
20923WAT     H163011   8.247   0.541   7.133
20923WAT     H263012   8.214   0.686   7.066
20924WAT      O63013   2.758   6.963   9.887
20924WAT     H163014   2.747   6.984   9.984
20924WAT     H263015   2.763   7.048   9.835
20925WAT      O63016   8.616   2.504   9.031
20925WAT     H163017   8.535   2.536   8.982
20925WAT     H263018   8.688   2.480   8.966
20926WAT      O63019   5.810   4.149   8.141
20926WAT     H163020   5.877   4.081   8.112
20926WAT     H263021   5.747   4.170   8.066
20927WAT      O63022   5.393   1.785   0.699
20927WAT     H163023   5.296   1.762   0.706
20927WAT     H263024   5.429   1.806   0.790
20928WAT      O63025   5.406   5.257   7.818
20928WAT     H163026   5.427   5.354   7.829
20928WAT     H263027   5.433   5.207   7.901
20929WAT      O63028   9.796   0.557   2.953
20929WAT     H163029   9.827   0.482   3.012
20929WAT     H263030   9.759   0.519   2.868
20930WAT      O63031   4.524   9.812   2.728
20930WAT     H163032   4.493   9.728   2.683
20930WAT     H263033   4.491   9.813   2.822
20931WAT      O63034   3.377   5.380   3.215
20931WAT     H163035   3.393   5.282   3.201
20931WAT     H263036   3.284   5.403   3.186
20932WAT      O63037   6.785   3.572   1.902
20932WAT     H163038   6.753   3.660   1.868
20932WAT     H263039   6.877   3.581   1.939
20933WAT      O63040   7.571   8.440   6.341
20933WAT     H163041   7.588   8.395   6.253
20933WAT     H263042   7.478   8.476   6.343
20934WAT      O63043   5.740   9.631   3.965
20934WAT     H163044   5.774   9.722   3.942
20934WAT     H263045   5.673   9.637   4.039
20935WAT      O63046   2.703   9.313   3.597
20935WAT     H163047   2.785   9.370   3.600
20935WAT     H263048   2.631   9.362   3.549
20936WAT      O63049   7.936   3.806   2.668
20936WAT     H163050   7.909   3.789   2.573
20936WAT     H263051   7.967   3.721   2.710
20937WAT      O63052   0.743   4.474   8.395
20937WAT     H163053   0.800   4.409   8.446
20937WAT     H263054   0.724   4.554   8.452
20938WAT      O63055   5.718   3.265   8.880
20938WAT     H163056   5.723   3.358   8.843
20938WAT     H263057   5.639   3.258   8.940
20939WAT      O63058   0.656   6.485   6.852
20939WAT     H163059   0.596   6.564   6.845
20939WAT     H263060   0.733   6.496   6.789
20940WAT      O63061   2.826   3.462   0.690
20940WAT     H163062   2.916   3.429   0.663
20940WAT     H263063   2.776   3.494   0.610
20941WAT      O63064   4.500   5.951   3.906
20941WAT     H163065   4.477   5.946   3.809
20941WAT     H263066   4.456   5.876   3.955
20942WAT      O63067   2.838   5.459   5.636
20942WAT     H163068   2.802   5.441   5.545
20942WAT     H263069   2.823   5.380   5.695
20943WAT      O63070   3.486   2.770   9.502
20943WAT     H163071   3.387   2.772   9.487
20943WAT     H263072   3.531   2.733   9.421
20944WAT      O63073   5.911   3.049   4.884
20944WAT     H163074   5.974   3.099   4.824
20944WAT     H263075   5.817   3.075   4.862
20945WAT      O63076   4.041   0.402   7.321
20945WAT     H163077   3.979   0.434   7.249
20945WAT     H263078   4.104   0.334   7.283
20946WAT      O63079   8.885   4.861   8.635
20946WAT     H163080   8.850   4.889   8.545
20946WAT     H263081   8.846   4.772   8.660
20947WAT      O63082   8.620   0.659   0.243
20947WAT     H163083   8.575   0.645   0.155
20947WAT     H263084   8.573   0.606   0.314
20948WAT      O63085   6.793   8.020   2.467
20948WAT     H163086   6.861   8.092   2.478
20948WAT     H263087   6.826   7.936   2.512
20949WAT      O63088   7.543   4.884   9.044
20949WAT     H163089   7.480   4.908   8.970
20949WAT     H263090   7.503   4.813   9.101
20950WAT      O63091   3.226   2.758   1.963
20950WAT     H163092   3.207   2.781   1.868
20950WAT     H263093   3.181   2.825   2.023
20951WAT      O63094   7.798   3.495   7.930
20951WAT     H163095   7.861   3.423   7.900
20951WAT     H263096   7.796   3.498   8.030
20952WAT      O63097   0.477   1.416   4.566
20952WAT     H163098   0.492   1.486   4.495
20952WAT     H263099   0.436   1.459   4.647
20953WAT      O63100   4.691   7.499   0.443
20953WAT     H163101   4.768   7.562   0.436
20953WAT     H263102   4.607   7.546   0.413
20954WAT      O63103   7.374   4.193   9.736
20954WAT     H163104   7.377   4.203   9.637
20954WAT     H263105   7.400   4.279   9.779
20955WAT      O63106   9.306   6.378   2.463
20955WAT     H163107   9.349   6.362   2.374
20955WAT     H263108   9.264   6.294   2.496
20956WAT      O63109   2.770   0.977   3.407
20956WAT     H163110   2.691   0.946   3.354
20956WAT     H263111   2.848   0.917   3.390
20957WAT      O63112   4.399   3.873   9.386
20957WAT     H163113   4.344   3.793   9.410
20957WAT     H263114   4.357   3.919   9.308
20958WAT      O63115   6.467   3.109   7.889
20958WAT     H163116   6.418   3.181   7.841
20958WAT     H263117   6.412   3.077   7.966
20959WAT      O63118   1.555   0.457   1.651
20959WAT     H163119   1.519   0.369   1.621
20959WAT     H263120   1.652   0.446   1.676
20960WAT      O63121   4.419   1.720   9.083
20960WAT     H163122   4.403   1.701   9.180
20960WAT     H263123   4.514   1.699   9.061
20961WAT      O63124   7.469   2.712   7.046
20961WAT     H163125   7.519   2.738   7.128
20961WAT     H263126   7.452   2.793   6.990
20962WAT      O63127   4.431   8.208   2.178
20962WAT     H163128   4.376   8.276   2.225
20962WAT     H263129   4.418   8.217   2.079
20963WAT      O63130   5.829   8.832   9.278
20963WAT     H163131   5.811   8.734   9.270
20963WAT     H263132   5.835   8.858   9.375
20964WAT      O63133   8.806   2.908   4.302
20964WAT     H163134   8.865   2.844   4.350
20964WAT     H263135   8.848   2.933   4.215
20965WAT      O63136   5.010   1.519   7.036
20965WAT     H163137   5.013   1.592   7.105
20965WAT     H263138   5.015   1.430   7.082
20966WAT      O63139   3.165   7.512   0.533
20966WAT     H163140   3.150   7.541   0.628
20966WAT     H263141   3.261   7.525   0.509
20967WAT      O63142   4.785   3.222   0.562
20967WAT     H163143   4.698   3.233   0.609
20967WAT     H263144   4.859   3.253   0.622
20968WAT      O63145   0.261   2.004   3.291
20968WAT     H163146   0.322   1.946   3.344
20968WAT     H263147   0.299   2.096   3.284
20969WAT      O63148   9.092   4.577   6.328
20969WAT     H163149   9.107   4.661   6.382
20969WAT     H263150   9.009   4.532   6.359
20970WAT      O63151   1.961   8.875   6.278
20970WAT     H163152   2.002   8.960   6.245
20970WAT     H263153   1.863   8.888   6.295
20971WAT      O63154   3.399   6.895   9.541
20971WAT     H163155   3.332   6.837   9.587
20971WAT     H263156   3.438   6.959   9.607
20972WAT      O63157   3.578   6.885   2.375
20972WAT     H163158   3.622   6.803   2.412
20972WAT     H263159   3.574   6.956   2.445
20973WAT      O63160   2.803   7.757   6.818
20973WAT     H163161   2.893   7.722   6.790
20973WAT     H263162   2.785   7.843   6.772
20974WAT      O63163   2.714   7.354   6.993
20974WAT     H163164   2.690   7.450   7.008
20974WAT     H263165   2.782   7.347   6.919
20975WAT      O63166   2.915   6.928   2.681
20975WAT     H163167   3.005   6.927   2.638
20975WAT     H263168   2.845   6.905   2.614
20976WAT      O63169   2.244   4.912   9.628
20976WAT     H163170   2.156   4.947   9.596
20976WAT     H263171   2.273   4.835   9.571
20977WAT      O63172   5.854   6.876   8.941
20977WAT     H163173   5.837   6.975   8.945
20977WAT     H263174   5.891   6.845   9.028
20978WAT      O63175   0.773   5.811   1.332
20978WAT     H163176   0.818   5.722   1.335
20978WAT     H263177   0.836   5.879   1.295
20979WAT      O63178   4.449   0.456   6.037
20979WAT     H163179   4.544   0.473   6.063
20979WAT     H263180   4.421   0.366   6.069
20980WAT      O63181   7.553   7.288   0.688
20980WAT     H163182   7.544   7.378   0.647
20980WAT     H263183   7.473   7.270   0.746
20981WAT      O63184   7.568   0.972   3.484
20981WAT     H163185   7.526   0.941   3.399
20981WAT     H263186   7.561   0.899   3.553
20982WAT      O63187   6.314   6.520   0.995
20982WAT     H163188   6.309   6.620   0.991
20982WAT     H263189   6.337   6.485   0.904
20983WAT      O63190   3.320   3.318   2.755
20983WAT     H163191   3.234   3.304   2.805
20983WAT     H263192   3.307   3.390   2.686
20984WAT      O63193   7.209   2.143   3.152
20984WAT     H163194   7.291   2.199   3.155
20984WAT     H263195   7.225   2.057   3.202
20985WAT      O63196   0.431   5.163   9.137
20985WAT     H163197   0.427   5.250   9.187
20985WAT     H263198   0.505   5.167   9.070
20986WAT      O63199   9.859   1.008   2.021
20986WAT     H163200   9.890   0.930   1.967
20986WAT     H263201   9.766   0.990   2.053
20987WAT      O63202   4.019   4.880   7.047
20987WAT     H163203   4.074   4.873   7.131
20987WAT     H263204   3.975   4.970   7.044
20988WAT      O63205   2.167   3.469   5.808
20988WAT     H163206   2.152   3.555   5.856
20988WAT     H263207   2.260   3.436   5.827
20989WAT      O63208   0.686   0.526   2.385
20989WAT     H163209   0.720   0.511   2.292
20989WAT     H263210   0.597   0.571   2.381
20990WAT      O63211   0.466   4.734   1.083
20990WAT     H163212   0.524   4.808   1.047
20990WAT     H263213   0.478   4.727   1.182
20991WAT      O63214   5.071   6.060   6.891
20991WAT     H163215   5.107   5.986   6.948
20991WAT     H263216   5.005   6.114   6.944
20992WAT      O63217   3.180   3.758   0.284
20992WAT     H163218   3.082   3.738   0.287
20992WAT     H263219   3.225   3.716   0.362
20993WAT      O63220   9.157   5.930   6.703
20993WAT     H163221   9.122   5.876   6.626
20993WAT     H263222   9.213   5.872   6.761
20994WAT      O63223   1.177   8.435   3.598
20994WAT     H163224   1.166   8.528   3.563
20994WAT     H263225   1.097   8.410   3.653
20995WAT      O63226   7.905   4.562   6.769
20995WAT     H163227   7.969   4.489   6.747
20995WAT     H263228   7.948   4.650   6.752
20996WAT      O63229   2.620   3.337   5.175
20996WAT     H163230   2.637   3.387   5.090
20996WAT     H263231   2.707   3.305   5.212
20997WAT      O63232   2.149   9.720   5.013
20997WAT     H163233   2.135   9.814   5.043
20997WAT     H263234   2.070   9.664   5.038
20998WAT      O63235   5.895   1.608   5.692
20998WAT     H163236   5.917   1.533   5.754
20998WAT     H263237   5.819   1.582   5.633
20999WAT      O63238   3.811   6.025   6.600
20999WAT     H163239   3.862   5.982   6.674
20999WAT     H263240   3.796   6.122   6.622
21000WAT      O63241   8.571   2.271   0.502
21000WAT     H163242   8.565   2.306   0.595
21000WAT     H263243   8.486   2.224   0.478
21001WAT      O63244   8.960   9.550   9.074
21001WAT     H163245   9.054   9.566   9.046
21001WAT     H263246   8.958   9.519   9.169
21002WAT      O63247   2.499   5.457   5.306
21002WAT     H163248   2.442   5.508   5.370
21002WAT     H263249   2.458   5.366   5.291
21003WAT      O63250   3.354   8.283   2.214
21003WAT     H163251   3.363   8.382   2.216
21003WAT     H263252   3.324   8.250   2.303
21004WAT      O63253   0.015   2.796   3.274
21004WAT     H163254   0.015   2.801   3.374
21004WAT     H263255   0.057   2.878   3.236
21005WAT      O63256   6.748   2.776   2.613
21005WAT     H163257   6.844   2.794   2.636
21005WAT     H263258   6.693   2.781   2.696
21006WAT      O63259   4.283   0.038   8.662
21006WAT     H163260   4.191   0.067   8.633
21006WAT     H263261   4.303   0.077   8.752
21007WAT      O63262   1.440   6.152   8.945
21007WAT     H163263   1.514   6.088   8.925
21007WAT     H263264   1.461   6.241   8.905
21008WAT      O63265   7.168   1.425   9.228
21008WAT     H163266   7.242   1.458   9.170
21008WAT     H263267   7.166   1.477   9.313
21009WAT      O63268   0.199   9.262   0.732
21009WAT     H163269   0.261   9.337   0.709
21009WAT     H263270   0.207   9.190   0.664
21010WAT      O63271   7.515   0.306   4.724
21010WAT     H163272   7.465   0.220   4.737
21010WAT     H263273   7.458   0.369   4.672
21011WAT      O63274   8.027   5.487   2.469
21011WAT     H163275   8.094   5.541   2.520
21011WAT     H263276   8.022   5.395   2.507
21012WAT      O63277   5.058   4.776   1.671
21012WAT     H163278   5.137   4.828   1.638
21012WAT     H263279   5.007   4.832   1.737
21013WAT      O63280   3.519   4.941   6.501
21013WAT     H163281   3.580   4.995   6.559
21013WAT     H263282   3.467   4.877   6.557
21014WAT      O63283   1.116   1.195   1.777
21014WAT     H163284   1.098   1.100   1.751
21014WAT     H263285   1.189   1.232   1.720
21015WAT      O63286   7.485   8.063   8.345
21015WAT     H163287   7.416   8.075   8.273
21015WAT     H263288   7.496   7.965   8.364
21016WAT      O63289   4.615   3.432   8.225
21016WAT     H163290   4.621   3.340   8.262
21016WAT     H263291   4.590   3.427   8.128
21017WAT      O63292   3.684   3.618   0.801
21017WAT     H163293   3.764   3.561   0.818
21017WAT     H263294   3.654   3.661   0.886
21018WAT      O63295   5.935   8.592   0.294
21018WAT     H163296   5.974   8.567   0.383
21018WAT     H263297   5.905   8.509   0.247
21019WAT      O63298   5.955   5.833   0.534
21019WAT     H163299   5.856   5.847   0.524
21019WAT     H263300   6.002   5.921   0.521
21020WAT      O63301   2.526   3.941   0.730
21020WAT     H163302   2.605   3.953   0.791
21020WAT     H263303   2.530   3.850   0.688
21021WAT      O63304   5.876   3.422   2.489
21021WAT     H163305   5.848   3.449   2.397
21021WAT     H263306   5.940   3.345   2.483
21022WAT      O63307   1.140   2.037   8.348
21022WAT     H163308   1.198   2.118   8.335
21022WAT     H263309   1.183   1.958   8.305
21023WAT      O63310   4.176   2.521   1.257
21023WAT     H163311   4.149   2.591   1.190
21023WAT     H263312   4.129   2.435   1.236
21024WAT      O63313   4.979   1.956   4.946
21024WAT     H163314   4.901   1.980   4.889
21024WAT     H263315   4.962   1.868   4.991
21025WAT      O63316   8.275   2.774   3.656
21025WAT     H163317   8.232   2.836   3.721
21025WAT     H263318   8.349   2.725   3.702
21026WAT      O63319   6.646   0.441   6.422
21026WAT     H163320   6.689   0.382   6.353
21026WAT     H263321   6.558   0.473   6.387
21027WAT      O63322   5.878   2.536   1.774
21027WAT     H163323   5.835   2.615   1.816
21027WAT     H263324   5.926   2.483   1.844
21028WAT      O63325   7.226   7.541   1.590
21028WAT     H163326   7.196   7.533   1.685
21028WAT     H263327   7.325   7.552   1.587
21029WAT      O63328   4.427   3.778   3.214
21029WAT     H163329   4.434   3.772   3.314
21029WAT     H263330   4.372   3.857   3.189
21030WAT      O63331   6.303   2.821   4.245
21030WAT     H163332   6.258   2.739   4.210
21030WAT     H263333   6.374   2.796   4.310
21031WAT      O63334   9.848   3.917   0.195
21031WAT     H163335   9.756   3.889   0.222
21031WAT     H263336   9.916   3.872   0.253
21032WAT      O63337   4.976   6.567   6.209
21032WAT     H163338   4.924   6.493   6.251
21032WAT     H263339   5.073   6.543   6.208
21033WAT      O63340   5.341   5.619   3.728
21033WAT     H163341   5.337   5.651   3.823
21033WAT     H263342   5.331   5.520   3.725
21034WAT      O63343   4.659   6.409   6.712
21034WAT     H163344   4.710   6.340   6.660
21034WAT     H263345   4.563   6.381   6.717
21035WAT      O63346   4.652   4.646   7.972
21035WAT     H163347   4.584   4.607   8.034
21035WAT     H263348   4.611   4.657   7.881
21036WAT      O63349   0.121   4.251   2.438
21036WAT     H163350   0.122   4.204   2.526
21036WAT     H263351   0.130   4.185   2.364
21037WAT      O63352   8.291   5.744   1.511
21037WAT     H163353   8.340   5.789   1.585
21037WAT     H263354   8.357   5.697   1.451
21038WAT      O63355   1.678   0.009   1.925
21038WAT     H163356   1.739  -0.068   1.908
21038WAT     H263357   1.718   0.093   1.888
21039WAT      O63358   7.789   5.754   9.606
21039WAT     H163359   7.735   5.803   9.675
21039WAT     H263360   7.758   5.780   9.514
21040WAT      O63361   0.324   5.538   3.307
21040WAT     H163362   0.270   5.456   3.327
21040WAT     H263363   0.381   5.560   3.387
21041WAT      O63364   9.180   0.104   5.453
21041WAT     H163365   9.162   0.008   5.434
21041WAT     H263366   9.262   0.133   5.403
21042WAT      O63367   0.828   0.141   5.571
21042WAT     H163368   0.731   0.158   5.550
21042WAT     H263369   0.875   0.115   5.487
21043WAT      O63370   6.790   9.801   2.397
21043WAT     H163371   6.719   9.852   2.444
21043WAT     H263372   6.875   9.805   2.450
21044WAT      O63373   6.517   6.657   5.493
21044WAT     H163374   6.536   6.603   5.411
21044WAT     H263375   6.566   6.744   5.488
21045WAT      O63376   4.806   6.223   6.540
21045WAT     H163377   4.882   6.225   6.475
21045WAT     H263378   4.773   6.130   6.550
21046WAT      O63379   5.194   7.394   1.280
21046WAT     H163380   5.130   7.371   1.207
21046WAT     H263381   5.183   7.330   1.356
21047WAT      O63382   8.854   0.458   9.852
21047WAT     H163383   8.935   0.425   9.803
21047WAT     H263384   8.812   0.382   9.902
21048WAT      O63385   7.609   1.161   0.893
21048WAT     H163386   7.604   1.125   0.986
21048WAT     H263387   7.686   1.225   0.885
21049WAT      O63388   6.648   7.383   7.975
21049WAT     H163389   6.569   7.326   7.995
21049WAT     H263390   6.684   7.422   8.060
21050WAT      O63391   4.801   8.179   8.081
21050WAT     H163392   4.864   8.166   8.005
21050WAT     H263393   4.770   8.090   8.115
21051WAT      O63394   2.020   4.774   3.761
21051WAT     H163395   2.097   4.778   3.698
21051WAT     H263396   2.021   4.686   3.809
21052WAT      O63397   0.133   2.369   0.572
21052WAT     H163398   0.102   2.294   0.514
21052WAT     H263399   0.232   2.359   0.588
21053WAT      O63400   6.187   3.756   6.126
21053WAT     H163401   6.087   3.749   6.125
21053WAT     H263402   6.219   3.757   6.220
21054WAT      O63403   3.817   8.855   2.066
21054WAT     H163404   3.772   8.939   2.097
21054WAT     H263405   3.915   8.872   2.054
21055WAT      O63406   7.371   7.938   1.847
21055WAT     H163407   7.285   7.918   1.894
21055WAT     H263408   7.380   8.037   1.837
21056WAT      O63409   8.321   8.169   5.054
21056WAT     H163410   8.364   8.207   4.972
21056WAT     H263411   8.391   8.129   5.113
21057WAT      O63412   6.313   1.297   7.385
21057WAT     H163413   6.297   1.231   7.311
21057WAT     H263414   6.379   1.258   7.450
21058WAT      O63415   7.411   2.996   3.879
21058WAT     H163416   7.460   2.968   3.961
21058WAT     H263417   7.329   2.940   3.867
21059WAT      O63418   5.395   2.914   1.845
21059WAT     H163419   5.435   2.905   1.753
21059WAT     H263420   5.343   2.999   1.850
21060WAT      O63421   8.543   3.365   0.757
21060WAT     H163422   8.572   3.324   0.844
21060WAT     H263423   8.539   3.294   0.687
21061WAT      O63424   2.056   6.601   5.678
21061WAT     H163425   2.053   6.604   5.778
21061WAT     H263426   2.131   6.541   5.650
21062WAT      O63427   7.768   7.271   3.656
21062WAT     H163428   7.710   7.291   3.734
21062WAT     H263429   7.730   7.193   3.606
21063WAT      O63430   1.567   5.046   8.739
21063WAT     H163431   1.635   5.091   8.682
21063WAT     H263432   1.478   5.047   8.693
21064WAT      O63433   5.892   4.279   2.801
21064WAT     H163434   5.981   4.239   2.824
21064WAT     H263435   5.820   4.213   2.822
21065WAT      O63436   1.101   8.598   5.728
21065WAT     H163437   1.170   8.550   5.782
21065WAT     H263438   1.080   8.544   5.646
21066WAT      O63439   1.627   3.787   2.126
21066WAT     H163440   1.530   3.780   2.107
21066WAT     H263441   1.678   3.794   2.041
21067WAT      O63442   8.036   4.371   8.674
21067WAT     H163443   8.021   4.316   8.592
21067WAT     H263444   8.026   4.313   8.756
21068WAT      O63445   1.039   6.062   5.072
21068WAT     H163446   1.018   5.965   5.083
21068WAT     H263447   0.995   6.097   4.989
21069WAT      O63448   8.669   8.308   8.994
21069WAT     H163449   8.745   8.309   9.059
21069WAT     H263450   8.590   8.354   9.035
21070WAT      O63451   6.686   1.316   4.992
21070WAT     H163452   6.741   1.235   5.010
21070WAT     H263453   6.596   1.306   5.036
21071WAT      O63454   3.933   6.557   8.232
21071WAT     H163455   3.918   6.649   8.197
21071WAT     H263456   4.031   6.537   8.234
21072WAT      O63457   5.073   5.992   0.507
21072WAT     H163458   5.147   6.053   0.536
21072WAT     H263459   5.105   5.897   0.512
21073WAT      O63460   5.703   5.653   8.742
21073WAT     H163461   5.615   5.668   8.787
21073WAT     H263462   5.691   5.653   8.643
21074WAT      O63463   2.854   5.276   1.813
21074WAT     H163464   2.945   5.314   1.828
21074WAT     H263465   2.850   5.230   1.724
21075WAT      O63466   3.946   5.138   1.439
21075WAT     H163467   3.854   5.162   1.407
21075WAT     H263468   3.954   5.160   1.536
21076WAT      O63469   7.430   3.462   8.078
21076WAT     H163470   7.446   3.524   8.155
21076WAT     H263471   7.493   3.384   8.085
21077WAT      O63472   1.213   2.854   2.801
21077WAT     H163473   1.153   2.830   2.878
21077WAT     H263474   1.308   2.853   2.831
21078WAT      O63475   7.411   8.904   6.314
21078WAT     H163476   7.379   8.994   6.342
21078WAT     H263477   7.500   8.912   6.270
21079WAT      O63478   8.988   9.237   0.501
21079WAT     H163479   8.900   9.210   0.538
21079WAT     H263480   9.046   9.157   0.490
21080WAT      O63481   7.158   5.754   5.590
21080WAT     H163482   7.074   5.702   5.604
21080WAT     H263483   7.237   5.694   5.606
21081WAT      O63484   3.771   5.327   1.706
21081WAT     H163485   3.851   5.290   1.753
21081WAT     H263486   3.691   5.272   1.728
21082WAT      O63487   8.580   4.825   2.788
21082WAT     H163488   8.577   4.737   2.836
21082WAT     H263489   8.542   4.814   2.696
21083WAT      O63490   4.562   2.579   2.270
21083WAT     H163491   4.525   2.489   2.245
21083WAT     H263492   4.636   2.568   2.336
21084WAT      O63493   4.711   5.568   1.272
21084WAT     H163494   4.785   5.607   1.326
21084WAT     H263495   4.666   5.495   1.324
21085WAT      O63496   2.667   1.288   1.621
21085WAT     H163497   2.699   1.379   1.647
21085WAT     H263498   2.728   1.250   1.552
21086WAT      O63499   7.951   5.427   8.342
21086WAT     H163500   7.976   5.460   8.433
21086WAT     H263501   8.027   5.442   8.278
21087WAT      O63502   6.004   5.278   8.946
21087WAT     H163503   5.974   5.198   8.998
21087WAT     H263504   6.098   5.301   8.969
21088WAT      O63505   4.206   8.776   4.171
21088WAT     H163506   4.126   8.716   4.174
21088WAT     H263507   4.266   8.755   4.248
21089WAT      O63508   9.320   6.749   9.310
21089WAT     H163509   9.313   6.788   9.402
21089WAT     H263510   9.229   6.731   9.273
21090WAT      O63511   0.428   3.903   1.645
21090WAT     H163512   0.464   3.979   1.699
21090WAT     H263513   0.503   3.859   1.596
21091WAT      O63514   4.418   0.592   0.268
21091WAT     H163515   4.517   0.606   0.272
21091WAT     H263516   4.391   0.572   0.174
21092WAT      O63517   7.428   2.888   8.083
21092WAT     H163518   7.427   2.924   8.177
21092WAT     H263519   7.523   2.875   8.054
21093WAT      O63520   8.209   6.976   6.317
21093WAT     H163521   8.121   6.935   6.290
21093WAT     H263522   8.222   6.966   6.415
21094WAT      O63523   9.055   0.442   1.803
21094WAT     H163524   9.119   0.418   1.876
21094WAT     H263525   9.084   0.398   1.718
21095WAT      O63526   2.501   5.338   2.033
21095WAT     H163527   2.550   5.256   2.003
21095WAT     H263528   2.551   5.419   2.005
21096WAT      O63529   6.771   9.222   9.432
21096WAT     H163530   6.822   9.136   9.424
21096WAT     H263531   6.675   9.205   9.406
21097WAT      O63532   9.065   9.833   4.182
21097WAT     H163533   9.005   9.809   4.105
21097WAT     H263534   9.115   9.752   4.212
21098WAT      O63535   7.120   3.062   1.904
21098WAT     H163536   7.186   3.114   1.849
21098WAT     H263537   7.164   3.029   1.987
21099WAT      O63538   6.755   3.655   3.302
21099WAT     H163539   6.829   3.592   3.279
21099WAT     H263540   6.725   3.704   3.221
21100WAT      O63541   9.325   8.876   7.232
21100WAT     H163542   9.420   8.863   7.204
21100WAT     H263543   9.284   8.948   7.175
21101WAT      O63544   0.577   4.644   5.698
21101WAT     H163545   0.657   4.595   5.663
21101WAT     H263546   0.507   4.649   5.627
21102WAT      O63547   2.648   5.027   5.915
21102WAT     H163548   2.721   4.960   5.902
21102WAT     H263549   2.618   5.025   6.011
21103WAT      O63550   8.157   2.672   2.680
21103WAT     H163551   8.187   2.628   2.765
21103WAT     H263552   8.170   2.610   2.603
21104WAT      O63553   8.032   0.695   6.085
21104WAT     H163554   8.118   0.653   6.057
21104WAT     H263555   8.041   0.794   6.086
21105WAT      O63556   3.175   3.941   7.415
21105WAT     H163557   3.174   3.939   7.515
21105WAT     H263558   3.255   3.891   7.381
21106WAT      O63559   9.871   0.924   3.983
21106WAT     H163560   9.794   0.961   4.035
21106WAT     H263561   9.898   0.836   4.022
21107WAT      O63562   9.265   5.502   0.765
21107WAT     H163563   9.191   5.474   0.704
21107WAT     H263564   9.240   5.481   0.860
21108WAT      O63565   7.699   0.369   6.544
21108WAT     H163566   7.719   0.437   6.614
21108WAT     H263567   7.726   0.278   6.577
21109WAT      O63568   3.116   3.604   0.859
21109WAT     H163569   3.128   3.532   0.927
21109WAT     H263570   3.195   3.665   0.860
21110WAT      O63571   9.636   7.294   0.539
21110WAT     H163572   9.696   7.329   0.468
21110WAT     H263573   9.545   7.334   0.529
21111WAT      O63574   1.534   4.529   5.182
21111WAT     H163575   1.614   4.489   5.225
21111WAT     H263576   1.500   4.605   5.237
21112WAT      O63577   7.558   6.771   0.318
21112WAT     H163578   7.516   6.758   0.408
21112WAT     H263579   7.552   6.685   0.266
21113WAT      O63580   1.454   5.216   3.171
21113WAT     H163581   1.553   5.221   3.161
21113WAT     H263582   1.420   5.134   3.124
21114WAT      O63583   0.540   5.756   3.104
21114WAT     H163584   0.635   5.741   3.078
21114WAT     H263585   0.500   5.828   3.047
21115WAT      O63586   8.179   3.413   4.380
21115WAT     H163587   8.257   3.429   4.319
21115WAT     H263588   8.094   3.433   4.330
21116WAT      O63589   7.356   9.826   7.388
21116WAT     H163590   7.392   9.754   7.329
21116WAT     H263591   7.423   9.846   7.460
21117WAT      O63592   4.929   7.605   8.793
21117WAT     H163593   4.847   7.602   8.851
21117WAT     H263594   4.907   7.648   8.706
21118WAT      O63595   0.756   2.195   7.948
21118WAT     H163596   0.818   2.262   7.906
21118WAT     H263597   0.693   2.161   7.878
21119WAT      O63598   1.679   6.620   4.540
21119WAT     H163599   1.648   6.690   4.604
21119WAT     H263600   1.736   6.553   4.588
21120WAT      O63601   8.488   0.473   4.891
21120WAT     H163602   8.494   0.374   4.905
21120WAT     H263603   8.563   0.504   4.832
21121WAT      O63604   1.725   6.505   7.585
21121WAT     H163605   1.727   6.521   7.684
21121WAT     H263606   1.637   6.466   7.560
21122WAT      O63607   3.963   4.750   0.998
21122WAT     H163608   3.967   4.684   1.073
21122WAT     H263609   3.897   4.719   0.930
21123WAT      O63610   5.778   9.603   1.757
21123WAT     H163611   5.830   9.540   1.816
21123WAT     H263612   5.811   9.696   1.771
21124WAT      O63613   2.188   0.926   0.211
21124WAT     H163614   2.115   0.860   0.194
21124WAT     H263615   2.204   0.935   0.309
21125WAT      O63616   3.223   8.219   2.441
21125WAT     H163617   3.129   8.189   2.456
21125WAT     H263618   3.236   8.308   2.484
21126WAT      O63619   0.193   1.495   3.486
21126WAT     H163620   0.179   1.575   3.544
21126WAT     H263621   0.176   1.520   3.390
21127WAT      O63622   3.545   5.885   7.928
21127WAT     H163623   3.468   5.905   7.989
21127WAT     H263624   3.592   5.970   7.905
21128WAT      O63625   9.584   3.810   5.771
21128WAT     H163626   9.610   3.829   5.677
21128WAT     H263627   9.494   3.849   5.790
21129WAT      O63628   0.367   2.889   5.079
21129WAT     H163629   0.370   2.860   4.983
21129WAT     H263630   0.460   2.905   5.112
21130WAT      O63631   3.411   0.801   0.078
21130WAT     H163632   3.489   0.837   0.028
21130WAT     H263633   3.331   0.859   0.063
21131WAT      O63634   5.062   4.758   9.223
21131WAT     H163635   5.049   4.770   9.125
21131WAT     H263636   5.135   4.819   9.254
21132WAT      O63637   8.558   2.735   4.005
21132WAT     H163638   8.518   2.801   4.069
21132WAT     H263639   8.602   2.661   4.057
21133WAT      O63640   1.440   3.726   0.902
21133WAT     H163641   1.460   3.740   0.999
21133WAT     H263642   1.352   3.768   0.880
21134WAT      O63643   1.438   4.584   7.806
21134WAT     H163644   1.515   4.521   7.813
21134WAT     H263645   1.353   4.532   7.798
21135WAT      O63646   0.193   5.303   4.478
21135WAT     H163647   0.181   5.334   4.384
21135WAT     H263648   0.283   5.263   4.489
21136WAT      O63649   0.707   0.796   0.143
21136WAT     H163650   0.618   0.753   0.132
21136WAT     H263651   0.765   0.774   0.064
21137WAT      O63652   8.701   3.588   5.044
21137WAT     H163653   8.625   3.632   5.091
21137WAT     H263654   8.698   3.489   5.059
21138WAT      O63655   0.953   4.778   0.609
21138WAT     H163656   0.910   4.845   0.548
21138WAT     H263657   1.044   4.809   0.634
21139WAT      O63658   7.058   5.352   6.234
21139WAT     H163659   7.156   5.374   6.229
21139WAT     H263660   7.047   5.255   6.252
21140WAT      O63661   7.027   3.129   7.259
21140WAT     H163662   6.941   3.078   7.259
21140WAT     H263663   7.093   3.083   7.318
21141WAT      O63664   1.460   6.767   6.347
21141WAT     H163665   1.418   6.690   6.299
21141WAT     H263666   1.389   6.816   6.398
21142WAT      O63667   5.327   8.561   6.224
21142WAT     H163668   5.372   8.612   6.151
21142WAT     H263669   5.228   8.564   6.210
21143WAT      O63670   7.689   5.362   3.224
21143WAT     H163671   7.644   5.283   3.183
21143WAT     H263672   7.633   5.444   3.209
21144WAT      O63673   3.419   0.495   8.547
21144WAT     H163674   3.483   0.431   8.589
21144WAT     H263675   3.396   0.567   8.613
21145WAT      O63676   3.968   0.326   9.111
21145WAT     H163677   4.006   0.238   9.139
21145WAT     H263678   3.949   0.323   9.012
21146WAT      O63679   4.648   5.785   2.492
21146WAT     H163680   4.653   5.877   2.455
21146WAT     H263681   4.678   5.719   2.423
21147WAT      O63682   1.133   0.633   2.402
21147WAT     H163683   1.157   0.685   2.484
21147WAT     H263684   1.086   0.692   2.337
21148WAT      O63685   4.673   3.489   4.902
21148WAT     H163686   4.583   3.532   4.912
21148WAT     H263687   4.667   3.394   4.931
21149WAT      O63688   7.413   3.637   5.045
21149WAT     H163689   7.327   3.587   5.038
21149WAT     H263690   7.489   3.573   5.053
21150WAT      O63691   4.115   5.299   4.385
21150WAT     H163692   4.137   5.237   4.460
21150WAT     H263693   4.155   5.388   4.402
21151WAT      O63694   7.682   8.432   5.675
21151WAT     H163695   7.735   8.469   5.751
21151WAT     H263696   7.743   8.402   5.602
21152WAT      O63697   7.469   5.763   4.916
21152WAT     H163698   7.516   5.675   4.921
21152WAT     H263699   7.397   5.758   4.846
21153WAT      O63700   3.768   5.457   3.532
21153WAT     H163701   3.827   5.509   3.471
21153WAT     H263702   3.757   5.364   3.498
21154WAT      O63703   4.263   4.978   9.269
21154WAT     H163704   4.353   4.986   9.225
21154WAT     H263705   4.194   5.022   9.213
21155WAT      O63706   8.684   8.042   1.750
21155WAT     H163707   8.777   8.065   1.723
21155WAT     H263708   8.632   8.012   1.670
21156WAT      O63709   9.242   2.627   9.607
21156WAT     H163710   9.341   2.629   9.619
21156WAT     H263711   9.200   2.697   9.663
21157WAT      O63712   2.772   5.721   5.205
21157WAT     H163713   2.802   5.815   5.218
21157WAT     H263714   2.743   5.707   5.111
21158WAT      O63715   2.396   7.118   8.744
21158WAT     H163716   2.391   7.038   8.685
21158WAT     H263717   2.304   7.157   8.756
21159WAT      O63718   2.295   3.325   3.405
21159WAT     H163719   2.204   3.286   3.388
21159WAT     H263720   2.291   3.424   3.401
21160WAT      O63721   9.685   5.861   5.306
21160WAT     H163722   9.632   5.824   5.230
21160WAT     H263723   9.779   5.826   5.301
21161WAT      O63724   5.213   5.689   4.829
21161WAT     H163725   5.213   5.591   4.805
21161WAT     H263726   5.175   5.741   4.753
21162WAT      O63727   4.621   3.003   3.136
21162WAT     H163728   4.617   3.047   3.225
21162WAT     H263729   4.628   2.904   3.148
21163WAT      O63730   0.531   2.257   7.785
21163WAT     H163731   0.451   2.198   7.774
21163WAT     H263732   0.504   2.342   7.829
21164WAT      O63733   4.716   3.401   9.172
21164WAT     H163734   4.676   3.405   9.263
21164WAT     H263735   4.652   3.360   9.108
21165WAT      O63736   3.122   0.334   2.249
21165WAT     H163737   3.183   0.408   2.277
21165WAT     H263738   3.173   0.249   2.241
21166WAT      O63739   7.625   1.201   3.638
21166WAT     H163740   7.646   1.270   3.569
21166WAT     H263741   7.603   1.114   3.594
21167WAT      O63742   1.343   0.513   2.679
21167WAT     H163743   1.410   0.491   2.751
21167WAT     H263744   1.351   0.610   2.655
21168WAT      O63745   2.062   7.773   6.312
21168WAT     H163746   1.983   7.724   6.347
21168WAT     H263747   2.063   7.767   6.212
21169WAT      O63748   3.930   3.808   1.445
21169WAT     H163749   3.952   3.848   1.534
21169WAT     H263750   3.969   3.865   1.373
21170WAT      O63751   6.534   3.366   3.839
21170WAT     H163752   6.435   3.374   3.824
21170WAT     H263753   6.560   3.420   3.919
21171WAT      O63754   4.883   9.617   4.764
21171WAT     H163755   4.813   9.571   4.818
21171WAT     H263756   4.970   9.615   4.813
21172WAT      O63757   2.400   9.506   3.680
21172WAT     H163758   2.313   9.495   3.728
21172WAT     H263759   2.474   9.515   3.747
21173WAT      O63760   2.097   1.553   2.463
21173WAT     H163761   2.142   1.638   2.492
21173WAT     H263762   2.166   1.484   2.440
21174WAT      O63763   4.698   1.825   7.084
21174WAT     H163764   4.621   1.883   7.058
21174WAT     H263765   4.684   1.789   7.176
21175WAT      O63766   9.061   4.666   5.975
21175WAT     H163767   9.066   4.601   6.051
21175WAT     H263768   9.076   4.617   5.889
21176WAT      O63769   3.703   4.493   7.444
21176WAT     H163770   3.644   4.415   7.461
21176WAT     H263771   3.737   4.530   7.530
21177WAT      O63772   3.387   8.532   6.463
21177WAT     H163773   3.290   8.555   6.452
21177WAT     H263774   3.443   8.596   6.411
21178WAT      O63775   8.335   6.876   6.824
21178WAT     H163776   8.431   6.847   6.825
21178WAT     H263777   8.331   6.975   6.830
21179WAT      O63778   2.193   8.198   1.253
21179WAT     H163779   2.134   8.279   1.250
21179WAT     H263780   2.169   8.142   1.333
21180WAT      O63781   3.400   2.576   2.068
21180WAT     H163782   3.354   2.651   2.020
21180WAT     H263783   3.415   2.602   2.163
21181WAT      O63784   5.943   8.006   2.517
21181WAT     H163785   5.876   7.935   2.542
21181WAT     H263786   5.987   8.040   2.600
21182WAT      O63787   7.656   5.581   6.914
21182WAT     H163788   7.585   5.591   6.845
21182WAT     H263789   7.722   5.656   6.905
21183WAT      O63790   5.698   3.115   2.309
21183WAT     H163791   5.704   3.178   2.232
21183WAT     H263792   5.789   3.097   2.345
21184WAT      O63793   1.061   3.595   0.990
21184WAT     H163794   1.005   3.537   1.049
21184WAT     H263795   1.101   3.669   1.045
21185WAT      O63796   7.273   3.864   4.913
21185WAT     H163797   7.185   3.815   4.913
21185WAT     H263798   7.338   3.814   4.970
21186WAT      O63799   8.443   0.938   7.502
21186WAT     H163800   8.382   1.012   7.471
21186WAT     H263801   8.439   0.862   7.437
21187WAT      O63802   6.310   0.645   0.990
21187WAT     H163803   6.252   0.625   1.068
21187WAT     H263804   6.367   0.566   0.968
21188WAT      O63805   9.185   7.823   3.365
21188WAT     H163806   9.185   7.756   3.290
21188WAT     H263807   9.194   7.774   3.452
21189WAT      O63808   3.032   7.532   5.536
21189WAT     H163809   2.933   7.526   5.522
21189WAT     H263810   3.079   7.499   5.455
21190WAT      O63811   2.277   3.157   2.409
21190WAT     H163812   2.303   3.194   2.320
21190WAT     H263813   2.359   3.127   2.458
21191WAT      O63814   3.898   4.651   6.943
21191WAT     H163815   3.963   4.577   6.962
21191WAT     H263816   3.941   4.739   6.963
21192WAT      O63817   6.553   6.206   6.123
21192WAT     H163818   6.516   6.299   6.132
21192WAT     H263819   6.551   6.161   6.212
21193WAT      O63820   4.943   1.899   7.769
21193WAT     H163821   4.915   1.966   7.700
21193WAT     H263822   4.883   1.819   7.764
21194WAT      O63823   3.591   4.547   6.645
21194WAT     H163824   3.592   4.459   6.692
21194WAT     H263825   3.620   4.534   6.550
21195WAT      O63826   4.757   3.428   9.880
21195WAT     H163827   4.666   3.417   9.840
21195WAT     H263828   4.763   3.517   9.925
21196WAT      O63829   5.619   2.783   2.488
21196WAT     H163830   5.665   2.871   2.498
21196WAT     H263831   5.546   2.791   2.420
21197WAT      O63832   6.692   5.833   2.391
21197WAT     H163833   6.672   5.780   2.308
21197WAT     H263834   6.741   5.775   2.457
21198WAT      O63835   9.594   3.464   6.108
21198WAT     H163836   9.623   3.534   6.043
21198WAT     H263837   9.618   3.492   6.201
21199WAT      O63838   6.438   0.745   2.662
21199WAT     H163839   6.526   0.784   2.688
21199WAT     H263840   6.409   0.784   2.575
21200WAT      O63841   3.565   7.732   5.980
21200WAT     H163842   3.664   7.721   5.968
21200WAT     H263843   3.546   7.760   6.074
21201WAT      O63844   5.360   0.608   9.199
21201WAT     H163845   5.314   0.690   9.164
21201WAT     H263846   5.404   0.559   9.123
21202WAT      O63847   0.087   6.376   6.642
21202WAT     H163848   0.149   6.441   6.684
21202WAT     H263849  -0.008   6.401   6.663
21203WAT      O63850   0.172   3.913   8.587
21203WAT     H163851   0.114   3.846   8.541
21203WAT     H263852   0.166   4.000   8.539
21204WAT      O63853   5.422   4.519   9.789
21204WAT     H163854   5.466   4.609   9.790
21204WAT     H263855   5.325   4.531   9.767
21205WAT      O63856   5.026   6.682   4.442
21205WAT     H163857   4.949   6.678   4.506
21205WAT     H263858   4.992   6.671   4.349
21206WAT      O63859   5.792   5.913   7.263
21206WAT     H163860   5.812   6.008   7.238
21206WAT     H263861   5.863   5.853   7.227
21207WAT      O63862   4.960   6.906   5.156
21207WAT     H163863   4.916   6.841   5.095
21207WAT     H263864   5.004   6.978   5.102
21208WAT      O63865   2.169   5.199   1.187
21208WAT     H163866   2.158   5.226   1.283
21208WAT     H263867   2.102   5.248   1.132
21209WAT      O63868   6.578   4.118   4.093
21209WAT     H163869   6.616   4.168   4.170
21209WAT     H263870   6.652   4.080   4.037
21210WAT      O63871   6.505   5.800   5.289
21210WAT     H163872   6.447   5.745   5.229
21210WAT     H263873   6.479   5.897   5.280
21211WAT      O63874   2.025   0.630   0.910
21211WAT     H163875   2.071   0.548   0.877
21211WAT     H263876   1.968   0.606   0.989
21212WAT      O63877   6.405   9.402   5.955
21212WAT     H163878   6.471   9.473   5.981
21212WAT     H263879   6.404   9.391   5.856
21213WAT      O63880   6.261   5.339   9.048
21213WAT     H163881   6.242   5.245   9.076
21213WAT     H263882   6.349   5.367   9.086
21214WAT      O63883   6.234   0.107   5.011
21214WAT     H163884   6.299   0.153   5.071
21214WAT     H263885   6.284   0.052   4.943
21215WAT      O63886   7.023   3.527   5.367
21215WAT     H163887   6.945   3.486   5.415
21215WAT     H263888   7.005   3.526   5.269
21216WAT      O63889   8.023   8.729   1.776
21216WAT     H163890   7.935   8.760   1.813
21216WAT     H263891   8.069   8.805   1.731
21217WAT      O63892   5.694   6.125   3.737
21217WAT     H163893   5.622   6.058   3.722
21217WAT     H263894   5.745   6.102   3.820
21218WAT      O63895   7.359   0.286   5.004
21218WAT     H163896   7.286   0.232   5.048
21218WAT     H263897   7.338   0.297   4.907
21219WAT      O63898   2.017   3.255   5.558
21219WAT     H163899   1.938   3.223   5.611
21219WAT     H263900   1.987   3.325   5.494
21220WAT      O63901   6.255   4.893   1.558
21220WAT     H163902   6.274   4.989   1.576
21220WAT     H263903   6.337   4.848   1.523
21221WAT      O63904   1.724   6.068   4.218
21221WAT     H163905   1.810   6.083   4.169
21221WAT     H263906   1.727   6.117   4.306
21222WAT      O63907   1.783   2.020   5.521
21222WAT     H163908   1.846   2.066   5.583
21222WAT     H263909   1.780   2.069   5.434
21223WAT      O63910   2.392   4.671   1.032
21223WAT     H163911   2.302   4.640   1.065
21223WAT     H263912   2.394   4.667   0.933
21224WAT      O63913   6.611   1.190   9.563
21224WAT     H163914   6.650   1.113   9.614
21224WAT     H263915   6.581   1.261   9.628
21225WAT      O63916   2.072   7.767   3.218
21225WAT     H163917   2.054   7.834   3.290
21225WAT     H263918   2.094   7.814   3.133
21226WAT      O63919   9.788   1.065   9.606
21226WAT     H163920   9.885   1.086   9.617
21226WAT     H263921   9.778   0.992   9.539
21227WAT      O63922   3.289   5.970   6.935
21227WAT     H163923   3.196   5.995   6.907
21227WAT     H263924   3.288   5.876   6.970
21228WAT      O63925   1.349   8.165   6.009
21228WAT     H163926   1.347   8.169   6.109
21228WAT     H263927   1.264   8.204   5.973
21229WAT      O63928   2.777   4.450   6.519
21229WAT     H163929   2.682   4.427   6.498
21229WAT     H263930   2.782   4.542   6.557
21230WAT      O63931   2.956   5.203   0.068
21230WAT     H163932   2.961   5.262  -0.012
21230WAT     H263933   2.898   5.247   0.137
21231WAT      O63934   6.858   4.515   2.175
21231WAT     H163935   6.861   4.440   2.108
21231WAT     H263936   6.911   4.592   2.139
21232WAT      O63937   7.410   6.873   2.165
21232WAT     H163938   7.389   6.963   2.202
21232WAT     H263939   7.482   6.830   2.220
21233WAT      O63940   6.560   8.852   5.306
21233WAT     H163941   6.601   8.924   5.363
21233WAT     H263942   6.589   8.864   5.211
21234WAT      O63943   7.609   2.349   7.496
21234WAT     H163944   7.633   2.266   7.446
21234WAT     H263945   7.513   2.346   7.522
21235WAT      O63946   1.083   5.022   6.931
21235WAT     H163947   1.051   5.085   6.860
21235WAT     H263948   1.031   4.937   6.927
21236WAT      O63949   6.357   3.073   1.511
21236WAT     H163950   6.360   3.146   1.580
21236WAT     H263951   6.430   3.087   1.444
21237WAT      O63952   5.629   1.293   8.366
21237WAT     H163953   5.561   1.221   8.376
21237WAT     H263954   5.686   1.296   8.448
21238WAT      O63955   9.649   4.528   5.524
21238WAT     H163956   9.559   4.505   5.561
21238WAT     H263957   9.646   4.620   5.483
21239WAT      O63958   0.468   9.352   8.396
21239WAT     H163959   0.566   9.372   8.401
21239WAT     H263960   0.428   9.361   8.487
21240WAT      O63961   7.697   2.495   2.479
21240WAT     H163962   7.603   2.462   2.476
21240WAT     H263963   7.749   2.441   2.546
21241WAT      O63964   2.096   1.774   5.890
21241WAT     H163965   2.194   1.755   5.890
21241WAT     H263966   2.063   1.782   5.796
21242WAT      O63967   2.044   3.632   1.834
21242WAT     H163968   2.107   3.652   1.909
21242WAT     H263969   1.975   3.566   1.865
21243WAT      O63970   9.413   6.166   2.796
21243WAT     H163971   9.332   6.209   2.756
21243WAT     H263972   9.495   6.208   2.757
21244WAT      O63973   6.048   2.654   8.712
21244WAT     H163974   6.104   2.696   8.641
21244WAT     H263975   5.983   2.720   8.747
21245WAT      O63976   3.842   0.994   4.889
21245WAT     H163977   3.751   0.957   4.870
21245WAT     H263978   3.833   1.082   4.936
21246WAT      O63979   1.705   9.819   7.126
21246WAT     H163980   1.707   9.890   7.197
21246WAT     H263981   1.742   9.855   7.041
21247WAT      O63982   8.470   6.378   9.708
21247WAT     H163983   8.373   6.400   9.697
21247WAT     H263984   8.479   6.294   9.761
21248WAT      O63985   4.609   4.698   0.650
21248WAT     H163986   4.666   4.779   0.644
21248WAT     H263987   4.574   4.689   0.744
21249WAT      O63988   2.054   7.767   5.473
21249WAT     H163989   1.963   7.756   5.433
21249WAT     H263990   2.104   7.680   5.466
21250WAT      O63991   3.515   9.400   4.632
21250WAT     H163992   3.575   9.377   4.555
21250WAT     H263993   3.552   9.358   4.716
21251WAT      O63994   4.525   2.955   8.749
21251WAT     H163995   4.589   2.899   8.802
21251WAT     H263996   4.495   3.032   8.806
21252WAT      O63997   4.400   7.915   8.866
21252WAT     H163998   4.474   7.888   8.804
21252WAT     H263999   4.351   7.993   8.828
21253WAT      O64000   0.468   4.821   7.383
21253WAT     H164001   0.560   4.834   7.346
21253WAT     H264002   0.400   4.846   7.313
21254WAT      O64003   8.982   1.680   6.095
21254WAT     H164004   9.023   1.591   6.079
21254WAT     H264005   9.013   1.716   6.183
21255WAT      O64006   5.870   8.729   5.605
21255WAT     H164007   5.905   8.656   5.664
21255WAT     H264008   5.770   8.732   5.611
21256WAT      O64009   5.757   4.411   4.034
21256WAT     H164010   5.805   4.450   3.955
21256WAT     H264011   5.740   4.314   4.018
21257WAT      O64012   8.985   1.057   1.813
21257WAT     H164013   9.037   1.035   1.731
21257WAT     H264014   8.891   1.022   1.803
21258WAT      O64015   4.872   6.059   0.715
21258WAT     H164016   4.936   6.044   0.791
21258WAT     H264017   4.923   6.072   0.630
21259WAT      O64018   7.446   8.116   6.610
21259WAT     H164019   7.408   8.143   6.698
21259WAT     H264020   7.546   8.121   6.614
21260WAT      O64021   6.743   8.232   0.629
21260WAT     H164022   6.661   8.191   0.667
21260WAT     H264023   6.740   8.225   0.529
21261WAT      O64024   1.385   2.292   4.910
21261WAT     H164025   1.461   2.257   4.855
21261WAT     H264026   1.372   2.234   4.990
21262WAT      O64027   3.949   7.843   6.833
21262WAT     H164028   3.871   7.887   6.878
21262WAT     H264029   3.970   7.890   6.747
21263WAT      O64030   2.311   0.315   8.047
21263WAT     H164031   2.283   0.247   7.979
21263WAT     H264032   2.387   0.369   8.011
21264WAT      O64033   9.161   2.235   5.014
21264WAT     H164034   9.092   2.234   4.942
21264WAT     H264035   9.252   2.232   4.974
21265WAT      O64036   4.478   0.520   0.552
21265WAT     H164037   4.479   0.536   0.454
21265WAT     H264038   4.439   0.600   0.598
21266WAT      O64039   3.085   3.825   7.077
21266WAT     H164040   3.183   3.828   7.097
21266WAT     H264041   3.068   3.757   7.005
21267WAT      O64042   2.327   1.283   1.597
21267WAT     H164043   2.380   1.358   1.557
21267WAT     H264044   2.357   1.267   1.690
21268WAT      O64045   5.315   5.761   9.344
21268WAT     H164046   5.280   5.807   9.262
21268WAT     H264047   5.278   5.806   9.425
21269WAT      O64048   3.566   7.469   1.323
21269WAT     H164049   3.503   7.546   1.316
21269WAT     H264050   3.654   7.501   1.357
21270WAT      O64051   9.141   9.715   6.394
21270WAT     H164052   9.087   9.793   6.360
21270WAT     H264053   9.141   9.642   6.326
21271WAT      O64054   7.298   2.461   8.735
21271WAT     H164055   7.297   2.436   8.639
21271WAT     H264056   7.388   2.500   8.758
21272WAT      O64057   1.731   6.699   1.190
21272WAT     H164058   1.829   6.702   1.211
21272WAT     H264059   1.697   6.607   1.208
21273WAT      O64060   0.232   8.291   1.818
21273WAT     H164061   0.230   8.233   1.899
21273WAT     H264062   0.324   8.294   1.781
21274WAT      O64063   8.951   0.153   1.144
21274WAT     H164064   8.939   0.218   1.069
21274WAT     H264065   9.016   0.082   1.117
21275WAT      O64066   3.501   1.132   6.306
21275WAT     H164067   3.430   1.120   6.237
21275WAT     H264068   3.583   1.170   6.264
21276WAT      O64069   2.968   9.456   9.187
21276WAT     H164070   2.950   9.429   9.093
21276WAT     H264071   3.047   9.518   9.189
21277WAT      O64072   7.674   1.686   6.699
21277WAT     H164073   7.769   1.674   6.728
21277WAT     H264074   7.664   1.655   6.604
21278WAT      O64075   9.267   6.791   0.648
21278WAT     H164076   9.256   6.859   0.720
21278WAT     H264077   9.177   6.763   0.614
21279WAT      O64078   2.859   8.796   8.178
21279WAT     H164079   2.902   8.840   8.099
21279WAT     H264080   2.929   8.757   8.238
21280WAT      O64081   1.985   0.718   6.095
21280WAT     H164082   2.060   0.780   6.071
21280WAT     H264083   2.008   0.668   6.178
21281WAT      O64084   0.707   8.119   6.342
21281WAT     H164085   0.797   8.088   6.370
21281WAT     H264086   0.651   8.039   6.317
21282WAT      O64087   6.144   2.842   8.550
21282WAT     H164088   6.078   2.913   8.573
21282WAT     H264089   6.177   2.857   8.457
21283WAT      O64090   8.259   4.073   0.404
21283WAT     H164091   8.189   4.136   0.439
21283WAT     H264092   8.341   4.124   0.380
21284WAT      O64093   2.756   5.404   5.358
21284WAT     H164094   2.833   5.454   5.319
21284WAT     H264095   2.671   5.438   5.319
21285WAT      O64096   3.119   6.471   9.008
21285WAT     H164097   3.211   6.505   9.025
21285WAT     H264098   3.067   6.541   8.959
21286WAT      O64099   5.060   6.983   7.122
21286WAT     H164100   4.972   6.936   7.112
21286WAT     H264101   5.134   6.919   7.106
21287WAT      O64102   1.226   3.625   2.222
21287WAT     H164103   1.142   3.592   2.265
21287WAT     H264104   1.274   3.547   2.181
21288WAT      O64105   8.565   8.150   5.457
21288WAT     H164106   8.494   8.176   5.522
21288WAT     H264107   8.654   8.177   5.492
21289WAT      O64108   1.442   3.328   8.090
21289WAT     H164109   1.503   3.267   8.142
21289WAT     H264110   1.480   3.343   7.999
21290WAT      O64111   7.925   9.056   1.825
21290WAT     H164112   7.909   9.154   1.834
21290WAT     H264113   7.882   9.008   1.902
21291WAT      O64114   2.125   9.325   8.245
21291WAT     H164115   2.185   9.359   8.173
21291WAT     H264116   2.053   9.268   8.204
21292WAT      O64117   5.660   6.601   5.200
21292WAT     H164118   5.678   6.516   5.250
21292WAT     H264119   5.744   6.631   5.155
21293WAT      O64120   0.562   7.744   4.419
21293WAT     H164121   0.478   7.792   4.446
21293WAT     H264122   0.546   7.695   4.333
21294WAT      O64123   7.700   6.930   7.357
21294WAT     H164124   7.707   6.834   7.328
21294WAT     H264125   7.788   6.976   7.341
21295WAT      O64126   7.444   1.238   8.533
21295WAT     H164127   7.529   1.187   8.520
21295WAT     H264128   7.453   1.327   8.489
21296WAT      O64129   5.306   0.894   2.459
21296WAT     H164130   5.337   0.878   2.366
21296WAT     H264131   5.279   0.807   2.501
21297WAT      O64132   2.861   0.725   8.350
21297WAT     H164133   2.950   0.771   8.355
21297WAT     H264134   2.867   0.635   8.393
21298WAT      O64135   8.502   5.053   8.228
21298WAT     H164136   8.534   5.047   8.322
21298WAT     H264137   8.533   4.973   8.177
21299WAT      O64138   7.071   8.911   4.672
21299WAT     H164139   7.104   8.977   4.604
21299WAT     H264140   6.976   8.887   4.653
21300WAT      O64141   2.330   1.700   0.814
21300WAT     H164142   2.237   1.732   0.832
21300WAT     H264143   2.381   1.696   0.900
21301WAT      O64144   8.789   7.205   2.807
21301WAT     H164145   8.753   7.116   2.835
21301WAT     H264146   8.720   7.275   2.824
21302WAT      O64147   2.839   1.063   0.249
21302WAT     H164148   2.854   1.012   0.334
21302WAT     H264149   2.905   1.138   0.243
21303WAT      O64150   4.137   0.884   3.199
21303WAT     H164151   4.210   0.900   3.133
21303WAT     H264152   4.149   0.947   3.276
21304WAT      O64153   1.646   6.954   4.404
21304WAT     H164154   1.571   7.021   4.408
21304WAT     H264155   1.611   6.867   4.370
21305WAT      O64156   1.481   1.645   5.268
21305WAT     H164157   1.485   1.553   5.307
21305WAT     H264158   1.531   1.709   5.327
21306WAT      O64159   0.817   9.652   0.740
21306WAT     H164160   0.757   9.651   0.821
21306WAT     H264161   0.772   9.605   0.665
21307WAT      O64162   2.242   5.956   6.143
21307WAT     H164163   2.293   6.041   6.146
21307WAT     H264164   2.183   5.949   6.224
21308WAT      O64165   9.585   1.015   2.182
21308WAT     H164166   9.510   0.988   2.241
21308WAT     H264167   9.609   1.111   2.200
21309WAT      O64168   6.725   3.111   7.239
21309WAT     H164169   6.693   3.183   7.302
21309WAT     H264170   6.699   3.136   7.146
21310WAT      O64171   8.835   0.825   2.621
21310WAT     H164172   8.862   0.729   2.633
21310WAT     H264173   8.917   0.881   2.606
21311WAT      O64174   2.012   7.661   2.531
21311WAT     H164175   1.977   7.693   2.619
21311WAT     H264176   2.073   7.730   2.491
21312WAT      O64177   1.075   3.245   3.206
21312WAT     H164178   1.021   3.189   3.268
21312WAT     H264179   1.093   3.194   3.121
21313WAT      O64180   8.411   3.597   6.802
21313WAT     H164181   8.507   3.623   6.811
21313WAT     H264182   8.386   3.539   6.880
21314WAT      O64183   4.400   7.198   0.590
21314WAT     H164184   4.412   7.161   0.682
21314WAT     H264185   4.307   7.180   0.558
21315WAT      O64186   6.156   2.801   9.353
21315WAT     H164187   6.228   2.739   9.320
21315WAT     H264188   6.077   2.797   9.292
21316WAT      O64189   8.393   4.830   0.322
21316WAT     H164190   8.430   4.757   0.265
21316WAT     H264191   8.329   4.884   0.268
21317WAT      O64192   3.155   5.841   7.950
21317WAT     H164193   3.164   5.762   8.012
21317WAT     H264194   3.059   5.868   7.945
21318WAT      O64195   8.899   1.210   3.909
21318WAT     H164196   8.831   1.140   3.928
21318WAT     H264197   8.987   1.182   3.947
21319WAT      O64198   6.937   6.776   5.339
21319WAT     H164199   7.005   6.750   5.408
21319WAT     H264200   6.984   6.805   5.255
21320WAT      O64201   3.737   3.682   2.030
21320WAT     H164202   3.735   3.782   2.039
21320WAT     H264203   3.783   3.658   1.944
21321WAT      O64204   2.593   0.890   3.214
21321WAT     H164205   2.639   0.801   3.210
21321WAT     H264206   2.498   0.876   3.240
21322WAT      O64207   7.499   4.731   3.828
21322WAT     H164208   7.516   4.652   3.887
21322WAT     H264209   7.506   4.703   3.732
21323WAT      O64210   2.353   0.781   6.682
21323WAT     H164211   2.316   0.709   6.624
21323WAT     H264212   2.286   0.854   6.692
21324WAT      O64213   1.730   6.221   5.718
21324WAT     H164214   1.749   6.280   5.639
21324WAT     H264215   1.656   6.261   5.772
21325WAT      O64216   3.041   0.837   3.376
21325WAT     H164217   3.036   0.759   3.314
21325WAT     H264218   3.106   0.904   3.340
21326WAT      O64219   3.280   9.037   0.293
21326WAT     H164220   3.346   9.109   0.273
21326WAT     H264221   3.201   9.076   0.340
21327WAT      O64222   2.092   6.373   2.617
21327WAT     H164223   2.063   6.414   2.703
21327WAT     H264224   2.018   6.381   2.549
21328WAT      O64225   0.505   9.379   0.043
21328WAT     H164226   0.457   9.434  -0.025
21328WAT     H264227   0.439   9.325   0.095
21329WAT      O64228   8.357   6.835   4.412
21329WAT     H164229   8.362   6.854   4.510
21329WAT     H264230   8.268   6.866   4.377
21330WAT      O64231   9.142   2.495   6.917
21330WAT     H164232   9.208   2.436   6.872
21330WAT     H264233   9.050   2.473   6.885
21331WAT      O64234   3.174   3.423   7.212
21331WAT     H164235   3.239   3.453   7.142
21331WAT     H264236   3.222   3.407   7.298
21332WAT      O64237   3.644   1.146   3.564
21332WAT     H164238   3.589   1.080   3.513
21332WAT     H264239   3.595   1.232   3.571
21333WAT      O64240   3.035   4.548   1.171
21333WAT     H164241   3.018   4.468   1.229
21333WAT     H264242   3.053   4.628   1.228
21334WAT      O64243   1.234   2.470   7.562
21334WAT     H164244   1.276   2.379   7.561
21334WAT     H264245   1.282   2.529   7.497
21335WAT      O64246   4.479   2.363   9.282
21335WAT     H164247   4.405   2.395   9.222
21335WAT     H264248   4.546   2.313   9.228
21336WAT      O64249   5.683   5.817   0.436
21336WAT     H164250   5.615   5.882   0.403
21336WAT     H264251   5.685   5.737   0.376
21337WAT      O64252   0.247   3.945   7.325
21337WAT     H164253   0.198   4.031   7.342
21337WAT     H264254   0.189   3.882   7.275
21338WAT      O64255   7.927   6.239   1.017
21338WAT     H164256   7.983   6.322   1.025
21338WAT     H264257   7.834   6.265   0.991
21339WAT      O64258   9.075   1.481   5.607
21339WAT     H164259   8.977   1.498   5.602
21339WAT     H264260   9.119   1.553   5.660
21340WAT      O64261   5.124   7.518   2.474
21340WAT     H164262   5.186   7.529   2.552
21340WAT     H264263   5.036   7.481   2.506
21341WAT      O64264   3.436   4.956   8.170
21341WAT     H164265   3.516   4.933   8.225
21341WAT     H264266   3.424   5.055   8.168
21342WAT      O64267   0.657   4.734   4.158
21342WAT     H164268   0.754   4.755   4.152
21342WAT     H264269   0.619   4.778   4.240
21343WAT      O64270   4.811   4.092   7.488
21343WAT     H164271   4.845   4.018   7.430
21343WAT     H264272   4.887   4.148   7.520
21344WAT      O64273   9.215   6.268   8.627
21344WAT     H164274   9.285   6.330   8.593
21344WAT     H264275   9.254   6.208   8.697
21345WAT      O64276   1.189   3.616   6.993
21345WAT     H164277   1.237   3.590   6.909
21345WAT     H264278   1.141   3.537   7.030
21346WAT      O64279   7.504   7.331   5.160
21346WAT     H164280   7.567   7.302   5.089
21346WAT     H264281   7.487   7.430   5.153
21347WAT      O64282   2.559   3.514   5.714
21347WAT     H164283   2.494   3.446   5.747
21347WAT     H264284   2.651   3.474   5.712
21348WAT      O64285   6.513   9.461   4.240
21348WAT     H164286   6.469   9.376   4.268
21348WAT     H264287   6.549   9.509   4.320
21349WAT      O64288   1.738   2.112   8.128
21349WAT     H164289   1.690   2.182   8.074
21349WAT     H264290   1.674   2.071   8.192
21350WAT      O64291   9.045   8.091   9.334
21350WAT     H164292   8.991   8.007   9.321
21350WAT     H264293   8.995   8.169   9.296
21351WAT      O64294   7.839   4.572   5.378
21351WAT     H164295   7.836   4.668   5.406
21351WAT     H264296   7.919   4.528   5.418
21352WAT      O64297   7.161   6.101   4.506
21352WAT     H164298   7.174   6.183   4.450
21352WAT     H264299   7.119   6.029   4.450
21353WAT      O64300   4.778   5.871   1.801
21353WAT     H164301   4.729   5.803   1.854
21353WAT     H264302   4.784   5.957   1.853
21354WAT      O64303   3.029   0.646   6.568
21354WAT     H164304   3.057   0.643   6.472
21354WAT     H264305   3.053   0.559   6.612
21355WAT      O64306   4.589   6.685   6.764
21355WAT     H164307   4.539   6.699   6.849
21355WAT     H264308   4.600   6.587   6.747
21356WAT      O64309   4.622   9.264   3.516
21356WAT     H164310   4.583   9.220   3.436
21356WAT     H264311   4.700   9.320   3.489
21357WAT      O64312   9.249   6.272   7.997
21357WAT     H164313   9.300   6.296   7.915
21357WAT     H264314   9.208   6.182   7.986
21358WAT      O64315   4.415   7.296   9.340
21358WAT     H164316   4.386   7.353   9.263
21358WAT     H264317   4.368   7.207   9.335
21359WAT      O64318   5.111   7.371   3.742
21359WAT     H164319   5.206   7.344   3.731
21359WAT     H264320   5.061   7.355   3.657
21360WAT      O64321   1.279   4.387   9.593
21360WAT     H164322   1.264   4.347   9.684
21360WAT     H264323   1.303   4.484   9.603
21361WAT      O64324   1.898   8.770   4.952
21361WAT     H164325   1.957   8.828   4.896
21361WAT     H264326   1.950   8.690   4.982
21362WAT      O64327   8.183   7.948   4.659
21362WAT     H164328   8.137   7.924   4.573
21362WAT     H264329   8.273   7.987   4.639
21363WAT      O64330   5.091   8.569   5.427
21363WAT     H164331   5.080   8.600   5.333
21363WAT     H264332   5.028   8.494   5.445
21364WAT      O64333   8.802   8.213   7.018
21364WAT     H164334   8.707   8.232   7.042
21364WAT     H264335   8.814   8.115   7.006
21365WAT      O64336   3.311   1.597   6.947
21365WAT     H164337   3.317   1.497   6.939
21365WAT     H264338   3.282   1.621   7.039
21366WAT      O64339   8.543   0.146   1.778
21366WAT     H164340   8.582   0.233   1.747
21366WAT     H264341   8.554   0.077   1.706
21367WAT      O64342   9.154   1.989   1.990
21367WAT     H164343   9.211   2.020   2.066
21367WAT     H264344   9.191   2.023   1.904
21368WAT      O64345   0.511   4.918   9.258
21368WAT     H164346   0.501   4.904   9.357
21368WAT     H264347   0.442   4.982   9.226
21369WAT      O64348   4.427   2.462   3.961
21369WAT     H164349   4.428   2.422   3.869
21369WAT     H264350   4.423   2.562   3.953
21370WAT      O64351   4.761   0.926   6.966
21370WAT     H164352   4.710   1.004   7.002
21370WAT     H264353   4.758   0.851   7.033
21371WAT      O64354   3.685   7.873   8.688
21371WAT     H164355   3.777   7.910   8.674
21371WAT     H264356   3.630   7.889   8.606
21372WAT      O64357   5.469   2.765   4.905
21372WAT     H164358   5.404   2.828   4.946
21372WAT     H264359   5.461   2.767   4.806
21373WAT      O64360   9.263   7.497   7.214
21373WAT     H164361   9.175   7.467   7.251
21373WAT     H264362   9.275   7.595   7.230
21374WAT      O64363   7.746   3.123   9.743
21374WAT     H164364   7.752   3.188   9.819
21374WAT     H264365   7.779   3.167   9.659
21375WAT      O64366   6.042   4.576   2.770
21375WAT     H164367   6.066   4.494   2.717
21375WAT     H264368   5.954   4.611   2.740
21376WAT      O64369   8.914   2.350   7.907
21376WAT     H164370   8.956   2.440   7.892
21376WAT     H264371   8.889   2.342   8.004
21377WAT      O64372   9.190   3.976   0.986
21377WAT     H164373   9.197   4.059   1.041
21377WAT     H264374   9.250   3.983   0.907
21378WAT      O64375   2.759   0.126   3.923
21378WAT     H164376   2.814   0.067   3.864
21378WAT     H264377   2.819   0.180   3.982
21379WAT      O64378   2.826   0.338   5.854
21379WAT     H164379   2.909   0.342   5.909
21379WAT     H264380   2.764   0.411   5.881
21380WAT      O64381   6.995   2.608   1.636
21380WAT     H164382   6.970   2.584   1.542
21380WAT     H264383   6.934   2.560   1.700
21381WAT      O64384   7.480   4.532   0.713
21381WAT     H164385   7.501   4.512   0.809
21381WAT     H264386   7.502   4.453   0.657
21382WAT      O64387   2.695   9.219   9.200
21382WAT     H164388   2.598   9.195   9.200
21382WAT     H264389   2.709   9.301   9.144
21383WAT      O64390   9.444   9.427   8.194
21383WAT     H164391   9.346   9.430   8.213
21383WAT     H264392   9.459   9.450   8.098
21384WAT      O64393   2.220   0.668   9.134
21384WAT     H164394   2.133   0.640   9.093
21384WAT     H264395   2.201   0.723   9.216
21385WAT      O64396   1.653   2.019   2.071
21385WAT     H164397   1.577   2.073   2.105
21385WAT     H264398   1.618   1.935   2.028
21386WAT      O64399   8.033   7.372   0.648
21386WAT     H164400   7.965   7.444   0.663
21386WAT     H264401   8.084   7.391   0.564
21387WAT      O64402   8.199   1.466   7.763
21387WAT     H164403   8.271   1.442   7.698
21387WAT     H264404   8.153   1.383   7.794
21388WAT      O64405   9.449   2.291   3.301
21388WAT     H164406   9.482   2.333   3.216
21388WAT     H264407   9.431   2.194   3.286
21389WAT      O64408   4.196   7.541   8.686
21389WAT     H164409   4.283   7.582   8.659
21389WAT     H264410   4.134   7.612   8.719
21390WAT      O64411   3.379   2.568   9.135
21390WAT     H164412   3.464   2.616   9.155
21390WAT     H264413   3.307   2.635   9.115
21391WAT      O64414   2.917   7.120   4.455
21391WAT     H164415   2.875   7.161   4.374
21391WAT     H264416   2.896   7.175   4.535
21392WAT      O64417   7.046   0.694   4.237
21392WAT     H164418   7.044   0.596   4.258
21392WAT     H264419   7.135   0.732   4.264
21393WAT      O64420   0.012   5.016   6.175
21393WAT     H164421   0.043   4.962   6.253
21393WAT     H264422  -0.034   4.957   6.110
21394WAT      O64423   4.307   0.520   6.496
21394WAT     H164424   4.264   0.512   6.586
21394WAT     H264425   4.396   0.564   6.505
21395WAT      O64426   6.112   7.260   1.248
21395WAT     H164427   6.108   7.239   1.346
21395WAT     H264428   6.173   7.337   1.233
21396WAT      O64429   2.250   9.212   1.685
21396WAT     H164430   2.206   9.173   1.766
21396WAT     H264431   2.180   9.244   1.621
21397WAT      O64432   6.602   3.715   6.812
21397WAT     H164433   6.642   3.798   6.772
21397WAT     H264434   6.550   3.739   6.893
21398WAT      O64435   8.354   2.155   8.809
21398WAT     H164436   8.325   2.151   8.905
21398WAT     H264437   8.378   2.063   8.778
21399WAT      O64438   2.375   7.907   3.523
21399WAT     H164439   2.460   7.884   3.571
21399WAT     H264440   2.324   7.974   3.577
21400WAT      O64441   2.104   2.633   4.136
21400WAT     H164442   2.117   2.705   4.203
21400WAT     H264443   2.016   2.589   4.150
21401WAT      O64444   8.413   8.863   5.295
21401WAT     H164445   8.472   8.868   5.375
21401WAT     H264446   8.345   8.936   5.300
21402WAT      O64447   7.070   5.887   9.805
21402WAT     H164448   7.145   5.931   9.855
21402WAT     H264449   7.072   5.788   9.821
21403WAT      O64450   3.198   9.246   8.815
21403WAT     H164451   3.219   9.332   8.770
21403WAT     H264452   3.130   9.196   8.760
21404WAT      O64453   0.228   1.094   4.405
21404WAT     H164454   0.140   1.087   4.357
21404WAT     H264455   0.302   1.072   4.341
21405WAT      O64456   5.739   7.579   8.890
21405WAT     H164457   5.736   7.641   8.969
21405WAT     H264458   5.763   7.630   8.808
21406WAT      O64459   3.326   6.127   1.352
21406WAT     H164460   3.407   6.082   1.389
21406WAT     H264461   3.335   6.136   1.253
21407WAT      O64462   6.020   6.179   2.181
21407WAT     H164463   6.098   6.125   2.214
21407WAT     H264464   5.940   6.119   2.172
21408WAT      O64465   6.793   6.636   1.663
21408WAT     H164466   6.819   6.688   1.744
21408WAT     H264467   6.797   6.695   1.583
21409WAT      O64468   6.805   7.207   6.043
21409WAT     H164469   6.890   7.224   6.093
21409WAT     H264470   6.790   7.280   5.977
21410WAT      O64471   0.702   1.181   3.881
21410WAT     H164472   0.746   1.229   3.957
21410WAT     H264473   0.768   1.171   3.806
21411WAT      O64474   9.734   2.349   2.148
21411WAT     H164475   9.674   2.313   2.220
21411WAT     H264476   9.764   2.274   2.089
21412WAT      O64477   4.025   8.795   4.800
21412WAT     H164478   3.929   8.782   4.777
21412WAT     H264479   4.081   8.788   4.718
21413WAT      O64480   4.731   0.646   2.510
21413WAT     H164481   4.781   0.706   2.572
21413WAT     H264482   4.744   0.551   2.537
21414WAT      O64483   1.696   0.921   4.697
21414WAT     H164484   1.719   0.976   4.617
21414WAT     H264485   1.622   0.858   4.673
21415WAT      O64486   3.782   6.104   8.322
21415WAT     H164487   3.784   6.147   8.412
21415WAT     H264488   3.831   6.162   8.257
21416WAT      O64489   2.069   1.711   3.288
21416WAT     H164490   2.022   1.626   3.309
21416WAT     H264491   2.166   1.693   3.272
21417WAT      O64492   5.162   3.915   7.581
21417WAT     H164493   5.126   3.878   7.667
21417WAT     H264494   5.261   3.906   7.580
21418WAT      O64495   8.124   5.610   4.579
21418WAT     H164496   8.218   5.637   4.560
21418WAT     H264497   8.122   5.515   4.609
21419WAT      O64498   0.986   2.053   5.310
21419WAT     H164499   1.057   1.999   5.355
21419WAT     H264500   0.918   2.082   5.377
21420WAT      O64501   8.758   5.565   5.037
21420WAT     H164502   8.670   5.523   5.059
21420WAT     H264503   8.743   5.658   5.005
21421WAT      O64504   1.616   9.696   0.583
21421WAT     H164505   1.535   9.693   0.525
21421WAT     H264506   1.698   9.706   0.526
21422WAT      O64507   7.018   7.028   5.530
21422WAT     H164508   6.971   7.041   5.442
21422WAT     H264509   6.956   7.052   5.605
21423WAT      O64510   1.393   2.807   2.576
21423WAT     H164511   1.413   2.752   2.657
21423WAT     H264512   1.435   2.898   2.587
21424WAT      O64513   4.800   6.711   6.590
21424WAT     H164514   4.878   6.662   6.629
21424WAT     H264515   4.725   6.711   6.657
21425WAT      O64516   7.293   9.250   2.005
21425WAT     H164517   7.242   9.174   2.046
21425WAT     H264518   7.388   9.221   1.990
21426WAT      O64519   6.138   9.170   5.998
21426WAT     H164520   6.228   9.203   5.972
21426WAT     H264521   6.069   9.239   5.977
21427WAT      O64522   2.425   5.191   3.618
21427WAT     H164523   2.342   5.207   3.672
21427WAT     H264524   2.469   5.107   3.649
21428WAT      O64525   5.987   2.083   6.333
21428WAT     H164526   5.938   2.094   6.246
21428WAT     H264527   6.055   2.010   6.324
21429WAT      O64528   7.289   5.100   7.228
21429WAT     H164529   7.351   5.155   7.284
21429WAT     H264530   7.330   5.010   7.212
21430WAT      O64531   3.426   9.299   1.141
21430WAT     H164532   3.467   9.321   1.230
21430WAT     H264533   3.498   9.270   1.077
21431WAT      O64534   6.827   3.768   4.330
21431WAT     H164535   6.891   3.695   4.305
21431WAT     H264536   6.746   3.763   4.271
21432WAT      O64537   0.616   1.244   8.250
21432WAT     H164538   0.540   1.182   8.267
21432WAT     H264539   0.584   1.323   8.197
21433WAT      O64540   6.517   2.361   3.935
21433WAT     H164541   6.484   2.378   4.027
21433WAT     H264542   6.504   2.444   3.879
21434WAT      O64543   2.579   8.516   5.075
21434WAT     H164544   2.547   8.580   5.005
21434WAT     H264545   2.638   8.564   5.140
21435WAT      O64546   5.866   3.121   5.291
21435WAT     H164547   5.942   3.062   5.265
21435WAT     H264548   5.863   3.200   5.229
21436WAT      O64549   2.260   0.683   5.897
21436WAT     H164550   2.198   0.604   5.890
21436WAT     H264551   2.230   0.754   5.833
21437WAT      O64552   4.955   9.727   0.256
21437WAT     H164553   4.942   9.796   0.327
21437WAT     H264554   4.927   9.637   0.290
21438WAT      O64555   8.243   4.748   7.420
21438WAT     H164556   8.250   4.770   7.323
21438WAT     H264557   8.170   4.803   7.461
21439WAT      O64558   0.971   2.823   1.347
21439WAT     H164559   0.987   2.845   1.444
21439WAT     H264560   1.056   2.789   1.307
21440WAT      O64561   0.206   9.060   7.799
21440WAT     H164562   0.294   9.013   7.798
21440WAT     H264563   0.191   9.099   7.890
21441WAT      O64564   6.690   4.811   4.578
21441WAT     H164565   6.771   4.774   4.533
21441WAT     H264566   6.653   4.744   4.642
21442WAT      O64567   4.764   1.321   3.018
21442WAT     H164568   4.789   1.404   2.969
21442WAT     H264569   4.665   1.309   3.015
21443WAT      O64570   3.285   7.914   9.286
21443WAT     H164571   3.260   7.851   9.360
21443WAT     H264572   3.346   7.985   9.322
21444WAT      O64573   1.619   9.287   8.612
21444WAT     H164574   1.598   9.369   8.666
21444WAT     H264575   1.559   9.283   8.532
21445WAT      O64576   1.805   1.121   2.168
21445WAT     H164577   1.775   1.175   2.247
21445WAT     H264578   1.876   1.172   2.119
21446WAT      O64579   5.704   9.236   6.813
21446WAT     H164580   5.746   9.148   6.789
21446WAT     H264581   5.605   9.225   6.819
21447WAT      O64582   5.133   5.323   8.956
21447WAT     H164583   5.035   5.316   8.970
21447WAT     H264584   5.177   5.345   9.043
21448WAT      O64585   6.735   9.708   9.581
21448WAT     H164586   6.743   9.610   9.560
21448WAT     H264587   6.822   9.741   9.616
21449WAT      O64588   7.478   9.559   9.136
21449WAT     H164589   7.503   9.612   9.217
21449WAT     H264590   7.531   9.591   9.057
21450WAT      O64591   5.073   3.855   6.531
21450WAT     H164592   5.102   3.847   6.436
21450WAT     H264593   5.148   3.894   6.586
21451WAT      O64594   8.450   4.527   6.303
21451WAT     H164595   8.472   4.452   6.366
21451WAT     H264596   8.351   4.543   6.303
21452WAT      O64597   5.665   4.925   2.847
21452WAT     H164598   5.637   4.835   2.879
21452WAT     H264599   5.750   4.951   2.892
21453WAT      O64600   6.877   3.206   8.005
21453WAT     H164601   6.920   3.246   8.086
21453WAT     H264602   6.884   3.107   8.010
21454WAT      O64603   7.003   6.750   3.583
21454WAT     H164604   7.041   6.745   3.491
21454WAT     H264605   7.040   6.830   3.631
21455WAT      O64606   7.301   3.036   0.174
21455WAT     H164607   7.363   2.985   0.114
21455WAT     H264608   7.320   3.011   0.269
21456WAT      O64609   9.421   6.466   6.369
21456WAT     H164610   9.506   6.415   6.362
21456WAT     H264611   9.356   6.416   6.427
21457WAT      O64612   1.790   2.261   3.008
21457WAT     H164613   1.812   2.165   2.992
21457WAT     H264614   1.811   2.314   2.926
21458WAT      O64615   0.929   1.061   4.480
21458WAT     H164616   0.916   1.153   4.444
21458WAT     H264617   0.960   1.000   4.406
21459WAT      O64618   8.245   0.260   6.104
21459WAT     H164619   8.330   0.226   6.145
21459WAT     H264620   8.169   0.240   6.164
21460WAT      O64621   2.748   2.226   1.953
21460WAT     H164622   2.686   2.282   1.898
21460WAT     H264623   2.828   2.202   1.899
21461WAT      O64624   5.640   6.807   5.792
21461WAT     H164625   5.687   6.812   5.704
21461WAT     H264626   5.552   6.855   5.786
21462WAT      O64627   9.790   7.579   3.052
21462WAT     H164628   9.871   7.632   3.028
21462WAT     H264629   9.769   7.515   2.977
21463WAT      O64630   9.648   8.008   5.279
21463WAT     H164631   9.650   7.912   5.251
21463WAT     H264632   9.643   8.067   5.198
21464WAT      O64633   4.118   7.980   4.407
21464WAT     H164634   4.031   7.939   4.435
21464WAT     H264635   4.131   8.067   4.456
21465WAT      O64636   1.122   2.562   8.437
21465WAT     H164637   1.221   2.577   8.427
21465WAT     H264638   1.083   2.639   8.489
21466WAT      O64639   6.915   7.934   8.039
21466WAT     H164640   6.961   7.847   8.025
21466WAT     H264641   6.824   7.918   8.076
21467WAT      O64642   6.289   6.644   6.024
21467WAT     H164643   6.195   6.612   6.012
21467WAT     H264644   6.326   6.677   5.937
21468WAT      O64645   0.552   1.738   1.710
21468WAT     H164646   0.554   1.685   1.625
21468WAT     H264647   0.605   1.692   1.780
21469WAT      O64648   4.654   8.996   5.054
21469WAT     H164649   4.653   8.901   5.024
21469WAT     H264650   4.565   9.038   5.038
21470WAT      O64651   7.387   0.547   3.914
21470WAT     H164652   7.452   0.505   3.850
21470WAT     H264653   7.436   0.614   3.971
21471WAT      O64654   9.505   0.437   5.272
21471WAT     H164655   9.444   0.423   5.194
21471WAT     H264656   9.598   0.451   5.239
21472WAT      O64657   0.289   5.645   0.538
21472WAT     H164658   0.293   5.743   0.558
21472WAT     H264659   0.211   5.626   0.479
21473WAT      O64660   8.234   4.348   4.552
21473WAT     H164661   8.310   4.306   4.601
21473WAT     H264662   8.151   4.342   4.608
21474WAT      O64663   4.038   2.267   9.542
21474WAT     H164664   4.101   2.199   9.505
21474WAT     H264665   4.083   2.357   9.545
21475WAT      O64666   1.148   3.491   9.268
21475WAT     H164667   1.176   3.395   9.271
21475WAT     H264668   1.186   3.540   9.346
21476WAT      O64669   8.945   1.141   4.703
21476WAT     H164670   9.004   1.220   4.683
21476WAT     H264671   8.966   1.067   4.639
21477WAT      O64672   2.377   2.695   5.073
21477WAT     H164673   2.349   2.701   5.168
21477WAT     H264674   2.404   2.786   5.040
21478WAT      O64675   3.628   4.375   0.405
21478WAT     H164676   3.720   4.388   0.367
21478WAT     H264677   3.583   4.463   0.415
21479WAT      O64678   0.247   9.712   5.099
21479WAT     H164679   0.244   9.612   5.108
21479WAT     H264680   0.156   9.750   5.115
21480WAT      O64681   2.595   6.897   9.183
21480WAT     H164682   2.650   6.836   9.125
21480WAT     H264683   2.528   6.842   9.233
21481WAT      O64684   7.182   8.267   1.630
21481WAT     H164685   7.116   8.284   1.703
21481WAT     H264686   7.274   8.288   1.662
21482WAT      O64687   2.810   4.788   5.055
21482WAT     H164688   2.729   4.747   5.096
21482WAT     H264689   2.879   4.803   5.126
21483WAT      O64690   7.130   4.019   0.224
21483WAT     H164691   7.161   4.105   0.265
21483WAT     H264692   7.088   4.037   0.135
21484WAT      O64693   7.278   9.126   5.027
21484WAT     H164694   7.214   9.202   5.010
21484WAT     H264695   7.354   9.159   5.082
21485WAT      O64696   0.833   8.658   0.644
21485WAT     H164697   0.745   8.612   0.640
21485WAT     H264698   0.822   8.747   0.690
21486WAT      O64699   2.123   9.764   1.697
21486WAT     H164700   2.085   9.673   1.679
21486WAT     H264701   2.098   9.793   1.790
21487WAT      O64702   2.482   3.213   0.661
21487WAT     H164703   2.435   3.301   0.667
21487WAT     H264704   2.505   3.181   0.753
21488WAT      O64705   7.080   6.736   4.546
21488WAT     H164706   7.011   6.789   4.594
21488WAT     H264707   7.040   6.650   4.514
21489WAT      O64708   7.590   6.741   2.291
21489WAT     H164709   7.680   6.732   2.249
21489WAT     H264710   7.567   6.656   2.339
21490WAT      O64711   1.740   0.123   8.049
21490WAT     H164712   1.834   0.152   8.066
21490WAT     H264713   1.740   0.049   7.981
21491WAT      O64714   1.561   0.126   2.281
21491WAT     H164715   1.470   0.160   2.261
21491WAT     H264716   1.611   0.112   2.195
21492WAT      O64717   9.621   7.696   7.819
21492WAT     H164718   9.545   7.675   7.757
21492WAT     H264719   9.672   7.775   7.783
21493WAT      O64720   4.344   9.038   7.775
21493WAT     H164721   4.316   8.942   7.777
21493WAT     H264722   4.371   9.063   7.682
21494WAT      O64723   1.029   4.680   8.081
21494WAT     H164724   1.094   4.614   8.043
21494WAT     H264725   0.937   4.640   8.081
21495WAT      O64726   7.660   6.994   2.391
21495WAT     H164727   7.619   6.904   2.374
21495WAT     H264728   7.601   7.065   2.352
21496WAT      O64729   0.510   4.847   1.720
21496WAT     H164730   0.542   4.752   1.716
21496WAT     H264731   0.572   4.901   1.777
21497WAT      O64732   9.632   1.497   8.948
21497WAT     H164733   9.674   1.561   8.884
21497WAT     H264734   9.568   1.438   8.899
21498WAT      O64735   1.899   1.219   3.788
21498WAT     H164736   1.806   1.196   3.817
21498WAT     H264737   1.913   1.188   3.694
21499WAT      O64738   4.105   7.472   8.439
21499WAT     H164739   4.149   7.464   8.528
21499WAT     H264740   4.067   7.564   8.428
21500WAT      O64741   2.341   2.935   1.312
21500WAT     H164742   2.357   3.027   1.348
21500WAT     H264743   2.289   2.881   1.378
21501WAT      O64744   5.110   1.941   2.373
21501WAT     H164745   5.089   1.885   2.293
21501WAT     H264746   5.032   1.999   2.395
21502WAT      O64747   4.555   5.680   4.373
21502WAT     H164748   4.614   5.750   4.333
21502WAT     H264749   4.609   5.624   4.437
21503WAT      O64750   3.629   9.322   7.720
21503WAT     H164751   3.612   9.225   7.739
21503WAT     H264752   3.563   9.355   7.653
21504WAT      O64753   1.558   6.419   8.099
21504WAT     H164754   1.618   6.459   8.168
21504WAT     H264755   1.463   6.426   8.129
21505WAT      O64756   6.678   4.787   8.760
21505WAT     H164757   6.618   4.862   8.790
21505WAT     H264758   6.631   4.735   8.689
21506WAT      O64759   2.774   0.872   4.518
21506WAT     H164760   2.825   0.831   4.594
21506WAT     H264761   2.689   0.912   4.552
21507WAT      O64762   4.089   0.650   7.750
21507WAT     H164763   3.999   0.648   7.705
21507WAT     H264764   4.157   0.687   7.686
21508WAT      O64765   2.769   7.550   4.885
21508WAT     H164766   2.795   7.521   4.793
21508WAT     H264767   2.790   7.647   4.896
21509WAT      O64768   7.542   3.837   0.504
21509WAT     H164769   7.483   3.906   0.462
21509WAT     H264770   7.581   3.779   0.433
21510WAT      O64771   6.317   4.162   1.456
21510WAT     H164772   6.336   4.089   1.521
21510WAT     H264773   6.220   4.185   1.460
21511WAT      O64774   7.639   2.900   2.581
21511WAT     H164775   7.595   2.836   2.643
21511WAT     H264776   7.676   2.850   2.503
21512WAT      O64777   5.961   3.282   4.524
21512WAT     H164778   5.890   3.217   4.498
21512WAT     H264779   5.988   3.266   4.619
21513WAT      O64780   2.166   0.210   5.805
21513WAT     H164781   2.249   0.217   5.749
21513WAT     H264782   2.178   0.139   5.874
21514WAT      O64783   0.816   6.421   4.711
21514WAT     H164784   0.759   6.497   4.743
21514WAT     H264785   0.796   6.402   4.615
21515WAT      O64786   3.459   0.734   5.955
21515WAT     H164787   3.400   0.662   5.920
21515WAT     H264788   3.490   0.792   5.880
21516WAT      O64789   0.487   9.552   8.852
21516WAT     H164790   0.553   9.552   8.927
21516WAT     H264791   0.426   9.631   8.862
21517WAT      O64792   8.022   1.789   3.948
21517WAT     H164793   7.934   1.774   3.993
21517WAT     H264794   8.076   1.705   3.951
21518WAT      O64795   5.270   3.157   0.699
21518WAT     H164796   5.320   3.211   0.768
21518WAT     H264797   5.213   3.089   0.745
21519WAT      O64798   8.134   8.393   2.398
21519WAT     H164799   8.208   8.413   2.334
21519WAT     H264800   8.172   8.370   2.487
21520WAT      O64801   2.927   2.004   8.974
21520WAT     H164802   2.903   1.917   8.933
21520WAT     H264803   2.980   1.988   9.058
21521WAT      O64804   7.757   7.823   0.339
21521WAT     H164805   7.820   7.746   0.341
21521WAT     H264806   7.763   7.874   0.425
21522WAT      O64807   8.780   4.566   8.854
21522WAT     H164808   8.873   4.595   8.875
21522WAT     H264809   8.716   4.612   8.916
21523WAT      O64810   7.392   4.125   6.149
21523WAT     H164811   7.304   4.079   6.162
21523WAT     H264812   7.449   4.072   6.087
21524WAT      O64813   8.352   5.318   5.218
21524WAT     H164814   8.356   5.318   5.318
21524WAT     H264815   8.263   5.354   5.188
21525WAT      O64816   1.549   3.548   9.666
21525WAT     H164817   1.609   3.480   9.624
21525WAT     H264818   1.590   3.639   9.657
21526WAT      O64819   5.147   5.131   2.395
21526WAT     H164820   5.128   5.194   2.471
21526WAT     H264821   5.077   5.059   2.393
21527WAT      O64822   7.281   5.403   7.169
21527WAT     H164823   7.345   5.470   7.133
21527WAT     H264824   7.322   5.355   7.246
21528WAT      O64825   3.715   8.972   8.018
21528WAT     H164826   3.750   9.028   7.943
21528WAT     H264827   3.703   9.028   8.099
21529WAT      O64828   8.827   4.700   0.970
21529WAT     H164829   8.764   4.648   0.912
21529WAT     H264830   8.844   4.650   1.055
21530WAT      O64831   9.821   8.318   0.924
21530WAT     H164832   9.918   8.316   0.897
21530WAT     H264833   9.780   8.229   0.905
21531WAT      O64834   5.107   5.371   5.772
21531WAT     H164835   5.057   5.323   5.700
21531WAT     H264836   5.087   5.469   5.767
21532WAT      O64837   7.649   1.888   4.371
21532WAT     H164838   7.559   1.889   4.329
21532WAT     H264839   7.714   1.842   4.310
21533WAT      O64840   5.179   1.037   3.176
21533WAT     H164841   5.183   1.129   3.137
21533WAT     H264842   5.100   1.030   3.237
21534WAT      O64843   7.665   7.918   6.046
21534WAT     H164844   7.633   7.937   6.139
21534WAT     H264845   7.658   7.820   6.028
21535WAT      O64846   5.134   1.490   9.510
21535WAT     H164847   5.161   1.415   9.451
21535WAT     H264848   5.168   1.576   9.472
21536WAT      O64849   6.951   4.032   1.593
21536WAT     H164850   6.945   4.033   1.693
21536WAT     H264851   7.025   3.971   1.565
21537WAT      O64852   3.833   4.243   0.935
21537WAT     H164853   3.927   4.208   0.942
21537WAT     H264854   3.809   4.290   1.021
21538WAT      O64855   6.387   5.482   7.169
21538WAT     H164856   6.417   5.388   7.154
21538WAT     H264857   6.467   5.541   7.178
21539WAT      O64858   4.033   5.930   8.522
21539WAT     H164859   3.976   5.888   8.452
21539WAT     H264860   4.071   6.016   8.487
21540WAT      O64861   4.045   8.894   7.643
21540WAT     H164862   4.016   8.810   7.597
21540WAT     H264863   4.056   8.967   7.576
21541WAT      O64864   7.727   0.099   7.175
21541WAT     H164865   7.669   0.026   7.138
21541WAT     H264866   7.706   0.112   7.271
21542WAT      O64867   0.872   9.544   4.863
21542WAT     H164868   0.870   9.495   4.776
21542WAT     H264869   0.967   9.565   4.887
21543WAT      O64870   3.142   1.111   2.068
21543WAT     H164871   3.201   1.190   2.080
21543WAT     H264872   3.124   1.097   1.971
21544WAT      O64873   8.903   2.530   4.180
21544WAT     H164874   8.973   2.598   4.159
21544WAT     H264875   8.910   2.454   4.115
21545WAT      O64876   0.531   5.436   1.505
21545WAT     H164877   0.631   5.423   1.500
21545WAT     H264878   0.504   5.449   1.600
21546WAT      O64879   0.834   7.088   1.261
21546WAT     H164880   0.782   7.138   1.331
21546WAT     H264881   0.875   7.007   1.302
21547WAT      O64882   2.605   6.717   0.861
21547WAT     H164883   2.537   6.720   0.935
21547WAT     H264884   2.681   6.778   0.884
21548WAT      O64885   0.619   2.931   6.054
21548WAT     H164886   0.640   2.982   5.970
21548WAT     H264887   0.612   2.995   6.131
21549WAT      O64888   0.073   6.413   7.007
21549WAT     H164889   0.005   6.457   7.065
21549WAT     H264890   0.028   6.340   6.954
21550WAT      O64891   6.071   2.808   7.213
21550WAT     H164892   6.066   2.761   7.125
21550WAT     H264893   6.031   2.899   7.205
21551WAT      O64894   0.378   6.124   7.251
21551WAT     H164895   0.407   6.164   7.338
21551WAT     H264896   0.367   6.197   7.183
21552WAT      O64897   5.815   8.239   5.141
21552WAT     H164898   5.756   8.164   5.110
21552WAT     H264899   5.787   8.268   5.232
21553WAT      O64900   2.731   7.531   8.305
21553WAT     H164901   2.702   7.623   8.278
21553WAT     H264902   2.656   7.467   8.289
21554WAT      O64903   3.935   5.231   9.659
21554WAT     H164904   3.844   5.189   9.652
21554WAT     H264905   3.976   5.206   9.747
21555WAT      O64906   4.160   1.576   4.769
21555WAT     H164907   4.207   1.513   4.830
21555WAT     H264908   4.089   1.527   4.718
21556WAT      O64909   0.456   4.410   5.824
21556WAT     H164910   0.479   4.504   5.803
21556WAT     H264911   0.535   4.364   5.865
21557WAT      O64912   7.297   8.381   0.250
21557WAT     H164913   7.385   8.390   0.296
21557WAT     H264914   7.227   8.429   0.304
21558WAT      O64915   0.868   4.601   0.079
21558WAT     H164916   0.779   4.628   0.116
21558WAT     H264917   0.855   4.537   0.003
21559WAT      O64918   3.621   2.615   3.910
21559WAT     H164919   3.536   2.644   3.866
21559WAT     H264920   3.664   2.693   3.955
21560WAT      O64921   8.856   0.950   5.377
21560WAT     H164922   8.928   0.998   5.327
21560WAT     H264923   8.843   0.859   5.336
21561WAT      O64924   5.631   8.956   4.111
21561WAT     H164925   5.720   8.984   4.076
21561WAT     H264926   5.641   8.920   4.204
21562WAT      O64927   2.749   4.481   9.126
21562WAT     H164928   2.760   4.532   9.211
21562WAT     H264929   2.839   4.451   9.093
21563WAT      O64930   8.575   2.187   9.612
21563WAT     H164931   8.647   2.131   9.572
21563WAT     H264932   8.554   2.153   9.704
21564WAT      O64933   5.292   4.181   5.412
21564WAT     H164934   5.215   4.218   5.464
21564WAT     H264935   5.275   4.192   5.314
21565WAT      O64936   5.454   3.397   6.452
21565WAT     H164937   5.418   3.485   6.421
21565WAT     H264938   5.427   3.325   6.387
21566WAT      O64939   7.304   2.567   7.537
21566WAT     H164940   7.249   2.575   7.454
21566WAT     H264941   7.370   2.642   7.540
21567WAT      O64942   3.477   3.209   4.680
21567WAT     H164943   3.402   3.271   4.661
21567WAT     H264944   3.545   3.255   4.738
21568WAT      O64945   1.232   5.476   0.548
21568WAT     H164946   1.298   5.441   0.616
21568WAT     H264947   1.154   5.516   0.596
21569WAT      O64948   3.020   5.713   9.618
21569WAT     H164949   2.955   5.763   9.676
21569WAT     H264950   3.102   5.769   9.604
21570WAT      O64951   7.762   5.118   2.172
21570WAT     H164952   7.846   5.142   2.220
21570WAT     H264953   7.704   5.198   2.164
21571WAT      O64954   8.157   4.182   2.854
21571WAT     H164955   8.082   4.137   2.903
21571WAT     H264956   8.238   4.185   2.911
21572WAT      O64957   0.535   0.404   8.592
21572WAT     H164958   0.622   0.442   8.621
21572WAT     H264959   0.477   0.389   8.672
21573WAT      O64960   0.339   3.268   7.873
21573WAT     H164961   0.393   3.315   7.943
21573WAT     H264962   0.380   3.179   7.852
21574WAT      O64963   3.520   6.354   0.640
21574WAT     H164964   3.605   6.390   0.601
21574WAT     H264965   3.442   6.392   0.592
21575WAT      O64966   2.663   1.247   7.466
21575WAT     H164967   2.571   1.279   7.485
21575WAT     H264968   2.730   1.317   7.491
21576WAT      O64969   5.584   0.649   2.518
21576WAT     H164970   5.663   0.590   2.503
21576WAT     H264971   5.597   0.700   2.603
21577WAT      O64972   3.607   2.222   4.685
21577WAT     H164973   3.704   2.224   4.663
21577WAT     H264974   3.560   2.298   4.640
21578WAT      O64975   3.347   0.324   8.991
21578WAT     H164976   3.440   0.336   8.956
21578WAT     H264977   3.349   0.325   9.091
21579WAT      O64978   3.852   9.273   1.972
21579WAT     H164979   3.881   9.225   1.889
21579WAT     H264980   3.878   9.220   2.053
21580WAT      O64981   8.189   9.110   7.495
21580WAT     H164982   8.147   9.026   7.460
21580WAT     H264983   8.228   9.093   7.585
21581WAT      O64984   0.382   5.725   7.100
21581WAT     H164985   0.348   5.724   7.194
21581WAT     H264986   0.481   5.735   7.100
21582WAT      O64987   0.158   9.366   8.173
21582WAT     H164988   0.243   9.379   8.225
21582WAT     H264989   0.145   9.269   8.154
21583WAT      O64990   1.045   9.095   6.155
21583WAT     H164991   1.030   9.145   6.240
21583WAT     H264992   1.141   9.067   6.150
21584WAT      O64993   2.388   9.200   0.801
21584WAT     H164994   2.346   9.144   0.872
21584WAT     H264995   2.486   9.181   0.797
21585WAT      O64996   4.022   5.928   9.813
21585WAT     H164997   4.049   5.841   9.855
21585WAT     H264998   3.928   5.950   9.839
21586WAT      O64999   6.610   4.739   0.962
21586WAT     H165000   6.627   4.825   0.913
21586WAT     H265001   6.656   4.664   0.914
21587WAT      O65002   7.974   6.124   9.785
21587WAT     H165003   7.990   6.193   9.855
21587WAT     H265004   7.925   6.165   9.708
21588WAT      O65005   3.082   8.328   0.550
21588WAT     H165006   3.046   8.396   0.614
21588WAT     H265007   3.175   8.352   0.525
21589WAT      O65008   5.030   4.338   3.103
21589WAT     H165009   5.103   4.304   3.162
21589WAT     H265010   5.032   4.290   3.016
21590WAT      O65011   4.582   1.377   7.458
21590WAT     H165012   4.491   1.400   7.423
21590WAT     H265013   4.633   1.461   7.476
21591WAT      O65014   4.847   3.408   3.840
21591WAT     H165015   4.763   3.462   3.844
21591WAT     H265016   4.877   3.387   3.933
21592WAT      O65017   2.498   1.081   8.117
21592WAT     H165018   2.413   1.092   8.167
21592WAT     H265019   2.543   0.997   8.145
21593WAT      O65020   8.758   2.610   9.643
21593WAT     H165021   8.683   2.544   9.630
21593WAT     H265022   8.842   2.561   9.663
21594WAT      O65023   6.186   5.668   9.355
21594WAT     H165024   6.160   5.623   9.441
21594WAT     H265025   6.161   5.765   9.360
21595WAT      O65026   7.447   3.806   9.363
21595WAT     H165027   7.394   3.804   9.448
21595WAT     H265028   7.539   3.841   9.383
21596WAT      O65029   2.890   6.033   9.480
21596WAT     H165030   2.850   5.987   9.401
21596WAT     H265031   2.979   6.072   9.454
21597WAT      O65032   2.738   3.320   5.721
21597WAT     H165033   2.685   3.237   5.703
21597WAT     H265034   2.835   3.303   5.699
21598WAT      O65035   8.701   3.392   5.445
21598WAT     H165036   8.627   3.349   5.394
21598WAT     H265037   8.693   3.369   5.542
21599WAT      O65038   8.307   3.340   7.632
21599WAT     H165039   8.300   3.244   7.604
21599WAT     H265040   8.394   3.355   7.679
21600WAT      O65041   5.227   6.474   6.276
21600WAT     H165042   5.230   6.414   6.356
21600WAT     H265043   5.294   6.444   6.209
21601WAT      O65044   9.541   2.132   5.854
21601WAT     H165045   9.563   2.228   5.874
21601WAT     H265046   9.569   2.075   5.931
21602WAT      O65047   2.478   1.646   5.847
21602WAT     H165048   2.390   1.598   5.844
21602WAT     H265049   2.513   1.645   5.941
21603WAT      O65050   4.321   3.522   9.673
21603WAT     H165051   4.373   3.607   9.687
21603WAT     H265052   4.323   3.497   9.577
21604WAT      O65053   2.911   6.083   0.544
21604WAT     H165054   2.870   6.132   0.621
21604WAT     H265055   2.959   6.003   0.578
21605WAT      O65056   7.451   7.153   2.220
21605WAT     H165057   7.484   7.183   2.130
21605WAT     H265058   7.377   7.214   2.250
21606WAT      O65059   4.916   7.552   3.033
21606WAT     H165060   4.821   7.522   3.033
21606WAT     H265061   4.957   7.536   2.943
21607WAT      O65062   3.314   3.375   4.929
21607WAT     H165063   3.390   3.433   4.958
21607WAT     H265064   3.303   3.382   4.830
21608WAT      O65065   4.409   0.970   1.280
21608WAT     H165066   4.439   0.882   1.316
21608WAT     H265067   4.312   0.984   1.302
21609WAT      O65068   5.497   7.476   7.398
21609WAT     H165069   5.400   7.497   7.392
21609WAT     H265070   5.516   7.391   7.348
21610WAT      O65071   4.041   3.416   6.900
21610WAT     H165072   3.944   3.402   6.882
21610WAT     H265073   4.063   3.383   6.992
21611WAT      O65074   1.794   1.983   5.092
21611WAT     H165075   1.795   1.887   5.123
21611WAT     H265076   1.749   1.989   5.003
21612WAT      O65077   5.912   8.968   7.306
21612WAT     H165078   5.888   9.061   7.333
21612WAT     H265079   5.875   8.904   7.373
21613WAT      O65080   7.095   5.893   1.663
21613WAT     H165081   7.155   5.969   1.639
21613WAT     H265082   7.078   5.837   1.582
21614WAT      O65083   6.021   4.018   2.062
21614WAT     H165084   6.090   3.946   2.060
21614WAT     H265085   6.009   4.057   1.971
21615WAT      O65086   0.786   0.663   6.386
21615WAT     H165087   0.687   0.657   6.371
21615WAT     H265088   0.806   0.734   6.453
21616WAT      O65089   6.819   2.403   4.266
21616WAT     H165090   6.917   2.410   4.285
21616WAT     H265091   6.793   2.474   4.201
21617WAT      O65092   7.264   3.901   7.059
21617WAT     H165093   7.266   3.805   7.086
21617WAT     H265094   7.195   3.950   7.113
21618WAT      O65095   8.079   6.379   5.105
21618WAT     H165096   8.140   6.305   5.134
21618WAT     H265097   8.057   6.437   5.183
21619WAT      O65098   6.802   8.279   9.773
21619WAT     H165099   6.853   8.206   9.729
21619WAT     H265100   6.736   8.318   9.708
21620WAT      O65101   3.868   3.628   4.869
21620WAT     H165102   3.932   3.684   4.817
21620WAT     H265103   3.776   3.637   4.829
21621WAT      O65104   2.726   9.444   7.864
21621WAT     H165105   2.732   9.523   7.926
21621WAT     H265106   2.632   9.434   7.831
21622WAT      O65107   5.142   7.849   6.119
21622WAT     H165108   5.174   7.905   6.043
21622WAT     H265109   5.218   7.797   6.157
21623WAT      O65110   9.471   3.221   0.503
21623WAT     H165111   9.568   3.196   0.498
21623WAT     H265112   9.462   3.320   0.497
21624WAT      O65113   8.567   6.041   4.572
21624WAT     H165114   8.564   6.125   4.627
21624WAT     H265115   8.497   6.046   4.501
21625WAT      O65116   4.914   4.579   1.797
21625WAT     H165117   4.866   4.618   1.876
21625WAT     H265118   4.979   4.646   1.761
21626WAT      O65119   1.095   9.692   2.351
21626WAT     H165120   1.182   9.702   2.302
21626WAT     H265121   1.107   9.721   2.446
21627WAT      O65122   2.160   8.227   8.307
21627WAT     H165123   2.073   8.182   8.323
21627WAT     H265124   2.149   8.297   8.236
21628WAT      O65125   1.123   2.461   5.372
21628WAT     H165126   1.208   2.491   5.329
21628WAT     H265127   1.053   2.448   5.302
21629WAT      O65128   6.343   5.559   1.256
21629WAT     H165129   6.427   5.608   1.234
21629WAT     H265130   6.340   5.541   1.355
21630WAT      O65131   2.651   0.733   1.059
21630WAT     H165132   2.636   0.761   1.154
21630WAT     H265133   2.586   0.780   0.999
21631WAT      O65134   8.882   3.656   5.729
21631WAT     H165135   8.968   3.689   5.767
21631WAT     H265136   8.861   3.706   5.645
21632WAT      O65137   4.893   6.439   5.042
21632WAT     H165138   4.941   6.392   5.116
21632WAT     H265139   4.903   6.386   4.958
21633WAT      O65140   4.826   3.229   1.914
21633WAT     H165141   4.856   3.200   1.823
21633WAT     H265142   4.893   3.294   1.951
21634WAT      O65143   1.152   1.610   5.708
21634WAT     H165144   1.099   1.650   5.782
21634WAT     H265145   1.249   1.617   5.729
21635WAT      O65146   9.131   8.664   4.542
21635WAT     H165147   9.061   8.714   4.593
21635WAT     H265148   9.087   8.601   4.478
21636WAT      O65149   6.963   3.985   3.642
21636WAT     H165150   7.040   3.944   3.593
21636WAT     H265151   6.881   3.980   3.585
21637WAT      O65152   7.733   7.980   8.479
21637WAT     H165153   7.650   7.987   8.535
21637WAT     H265154   7.709   7.993   8.383
21638WAT      O65155   0.956   7.582   8.322
21638WAT     H165156   1.005   7.591   8.235
21638WAT     H265157   0.900   7.499   8.320
21639WAT      O65158   3.003   0.895   2.621
21639WAT     H165159   3.070   0.956   2.664
21639WAT     H265160   2.959   0.943   2.545
21640WAT      O65161   7.516   4.283   4.808
21640WAT     H165162   7.616   4.280   4.817
21640WAT     H265163   7.487   4.376   4.785
21641WAT      O65164   8.273   1.895   3.874
21641WAT     H165165   8.310   1.861   3.960
21641WAT     H265166   8.325   1.974   3.843
21642WAT      O65167   5.088   5.676   8.823
21642WAT     H165168   5.122   5.636   8.908
21642WAT     H265169   4.993   5.704   8.835
21643WAT      O65170   1.556   9.735   2.589
21643WAT     H165171   1.617   9.812   2.567
21643WAT     H265172   1.558   9.718   2.687
21644WAT      O65173   0.198   9.611   3.011
21644WAT     H165174   0.287   9.567   3.002
21644WAT     H265175   0.132   9.562   2.954
21645WAT      O65176   0.379   7.042   8.467
21645WAT     H165177   0.406   7.043   8.563
21645WAT     H265178   0.410   6.956   8.425
21646WAT      O65179   3.024   1.266   5.448
21646WAT     H165180   2.978   1.340   5.399
21646WAT     H265181   2.967   1.235   5.524
21647WAT      O65182   8.558   3.403   2.755
21647WAT     H165183   8.553   3.319   2.702
21647WAT     H265184   8.517   3.389   2.845
21648WAT      O65185   1.431   2.449   2.275
21648WAT     H165186   1.489   2.386   2.325
21648WAT     H265187   1.360   2.398   2.226
21649WAT      O65188   2.993   6.653   6.316
21649WAT     H165189   3.003   6.715   6.238
21649WAT     H265190   2.976   6.705   6.399
21650WAT      O65191   5.684   2.443   4.590
21650WAT     H165192   5.613   2.382   4.553
21650WAT     H265193   5.661   2.538   4.568
21651WAT      O65194   5.979   3.888   4.745
21651WAT     H165195   5.922   3.851   4.671
21651WAT     H265196   5.955   3.983   4.761
21652WAT      O65197   5.005   0.871   1.886
21652WAT     H165198   5.096   0.842   1.856
21652WAT     H265199   4.943   0.875   1.807
21653WAT      O65200   2.687   5.182   8.159
21653WAT     H165201   2.625   5.251   8.122
21653WAT     H265202   2.741   5.142   8.085
21654WAT      O65203   8.440   2.083   7.149
21654WAT     H165204   8.443   2.052   7.054
21654WAT     H265205   8.378   2.160   7.157
21655WAT      O65206   8.800   1.574   6.962
21655WAT     H165207   8.815   1.562   6.864
21655WAT     H265208   8.739   1.652   6.978
21656WAT      O65209   3.776   2.191   1.901
21656WAT     H165210   3.870   2.209   1.930
21656WAT     H265211   3.715   2.201   1.979
21657WAT      O65212   9.081   6.259   7.033
21657WAT     H165213   9.105   6.168   7.065
21657WAT     H265214   8.983   6.275   7.047
21658WAT      O65215   7.348   1.043   0.896
21658WAT     H165216   7.445   1.064   0.885
21658WAT     H265217   7.323   0.965   0.839
21659WAT      O65218   6.007   5.294   8.668
21659WAT     H165219   5.989   5.211   8.615
21659WAT     H265220   5.981   5.279   8.763
21660WAT      O65221   0.799   4.693   2.158
21660WAT     H165222   0.732   4.661   2.226
21660WAT     H265223   0.802   4.629   2.082
21661WAT      O65224   8.033   8.783   0.479
21661WAT     H165225   8.071   8.746   0.563
21661WAT     H265226   8.107   8.815   0.420
21662WAT      O65227   9.035   7.583   1.131
21662WAT     H165228   8.984   7.658   1.088
21662WAT     H265229   9.121   7.568   1.082
21663WAT      O65230   0.377   1.331   7.277
21663WAT     H165231   0.290   1.341   7.229
21663WAT     H265232   0.452   1.331   7.212
21664WAT      O65233   2.259   8.663   7.638
21664WAT     H165234   2.200   8.706   7.571
21664WAT     H265235   2.355   8.671   7.609
21665WAT      O65236   4.655   1.526   9.399
21665WAT     H165237   4.679   1.509   9.303
21665WAT     H265238   4.739   1.539   9.452
21666WAT      O65239   2.673   9.687   0.015
21666WAT     H165240   2.742   9.740   0.066
21666WAT     H265241   2.715   9.650  -0.068
21667WAT      O65242   7.590   7.374   6.353
21667WAT     H165243   7.620   7.416   6.439
21667WAT     H265244   7.500   7.333   6.366
21668WAT      O65245   9.712   1.953   4.461
21668WAT     H165246   9.753   1.993   4.543
21668WAT     H265247   9.763   1.982   4.380
21669WAT      O65248   6.328   9.340   8.804
21669WAT     H165249   6.249   9.375   8.753
21669WAT     H265250   6.370   9.415   8.855
21670WAT      O65251   8.441   5.168   2.195
21670WAT     H165252   8.445   5.073   2.226
21670WAT     H265253   8.460   5.173   2.097
21671WAT      O65254   7.291   1.289   6.526
21671WAT     H165255   7.300   1.245   6.616
21671WAT     H265256   7.240   1.230   6.465
21672WAT      O65257   5.148   8.554   4.200
21672WAT     H165258   5.139   8.454   4.205
21672WAT     H265259   5.225   8.578   4.141
21673WAT      O65260   2.388   9.792   6.791
21673WAT     H165261   2.476   9.771   6.751
21673WAT     H265262   2.384   9.890   6.814
21674WAT      O65263   6.997   6.024   3.995
21674WAT     H165264   7.012   5.938   4.044
21674WAT     H265265   6.976   6.005   3.899
21675WAT      O65266   6.592   0.532   3.952
21675WAT     H165267   6.682   0.544   3.910
21675WAT     H265268   6.558   0.621   3.983
21676WAT      O65269   5.373   8.970   6.776
21676WAT     H165270   5.301   8.948   6.842
21676WAT     H265271   5.334   8.977   6.685
21677WAT      O65272   5.124   7.719   3.052
21677WAT     H165273   5.036   7.672   3.053
21677WAT     H265274   5.193   7.662   3.096
21678WAT      O65275   2.971   9.504   6.323
21678WAT     H165276   3.033   9.580   6.303
21678WAT     H265277   2.910   9.529   6.398
21679WAT      O65278   5.464   4.068   1.247
21679WAT     H165279   5.511   3.984   1.220
21679WAT     H265280   5.504   4.146   1.199
21680WAT      O65281   2.829   8.669   7.803
21680WAT     H165282   2.818   8.761   7.842
21680WAT     H265283   2.739   8.628   7.790
21681WAT      O65284   2.702   3.055   5.253
21681WAT     H165285   2.710   2.971   5.307
21681WAT     H265286   2.605   3.075   5.238
21682WAT      O65287   1.181   5.298   2.816
21682WAT     H165288   1.100   5.241   2.805
21682WAT     H265289   1.154   5.392   2.836
21683WAT      O65290   2.244   2.103   3.424
21683WAT     H165291   2.310   2.070   3.357
21683WAT     H265292   2.152   2.075   3.397
21684WAT      O65293   6.005   1.959   9.730
21684WAT     H165294   5.995   1.892   9.804
21684WAT     H265295   5.963   1.924   9.647
21685WAT      O65296   4.540   6.802   5.485
21685WAT     H165297   4.579   6.738   5.418
21685WAT     H265298   4.445   6.820   5.462
21686WAT      O65299   0.897   0.316   9.456
21686WAT     H165300   0.856   0.377   9.388
21686WAT     H265301   0.851   0.228   9.454
21687WAT      O65302   5.095   2.565   5.902
21687WAT     H165303   5.187   2.599   5.882
21687WAT     H265304   5.028   2.635   5.877
21688WAT      O65305   1.295   8.343   4.218
21688WAT     H165306   1.262   8.400   4.143
21688WAT     H265307   1.340   8.400   4.287
21689WAT      O65308   9.197   1.334   1.367
21689WAT     H165309   9.184   1.234   1.370
21689WAT     H265310   9.107   1.378   1.360
21690WAT      O65311   9.061   2.998   8.317
21690WAT     H165312   9.119   3.016   8.238
21690WAT     H265313   8.966   2.990   8.287
21691WAT      O65314   3.437   2.437   9.493
21691WAT     H165315   3.450   2.398   9.584
21691WAT     H265316   3.520   2.485   9.465
21692WAT      O65317   1.147   4.352   9.354
21692WAT     H165318   1.134   4.446   9.320
21692WAT     H265319   1.209   4.353   9.432
21693WAT      O65320   2.135   5.260   5.087
21693WAT     H165321   2.228   5.244   5.052
21693WAT     H265322   2.137   5.338   5.150
21694WAT      O65323   5.502   7.459   3.067
21694WAT     H165324   5.435   7.518   3.113
21694WAT     H265325   5.470   7.364   3.069
21695WAT      O65326   6.743   1.669   2.271
21695WAT     H165327   6.764   1.573   2.290
21695WAT     H265328   6.650   1.677   2.235
21696WAT      O65329   0.844   7.799   8.424
21696WAT     H165330   0.889   7.718   8.385
21696WAT     H265331   0.851   7.795   8.524
21697WAT      O65332   3.145   8.444   6.755
21697WAT     H165333   3.122   8.392   6.672
21697WAT     H265334   3.224   8.402   6.799
21698WAT      O65335   6.822   6.603   9.355
21698WAT     H165336   6.855   6.664   9.427
21698WAT     H265337   6.835   6.508   9.384
21699WAT      O65338   1.098   4.638   5.495
21699WAT     H165339   1.065   4.645   5.401
21699WAT     H265340   1.194   4.609   5.495
21700WAT      O65341   0.036   6.749   3.524
21700WAT     H165342   0.132   6.741   3.550
21700WAT     H265343  -0.017   6.780   3.603
21701WAT      O65344   5.482   8.117   3.298
21701WAT     H165345   5.546   8.086   3.368
21701WAT     H265346   5.408   8.169   3.341
21702WAT      O65347   4.857   8.352   0.549
21702WAT     H165348   4.807   8.285   0.494
21702WAT     H265349   4.931   8.306   0.599
21703WAT      O65350   2.722   8.577   1.133
21703WAT     H165351   2.721   8.588   1.034
21703WAT     H265352   2.802   8.623   1.171
21704WAT      O65353   9.251   0.036   4.624
21704WAT     H165354   9.225   0.013   4.717
21704WAT     H265355   9.237  -0.044   4.565
21705WAT      O65356   4.828   1.998   3.517
21705WAT     H165357   4.824   2.036   3.610
21705WAT     H265358   4.827   1.898   3.522
21706WAT      O65359   9.670   9.464   8.026
21706WAT     H165360   9.649   9.373   7.988
21706WAT     H265361   9.722   9.453   8.110
21707WAT      O65362   9.873   8.993   7.655
21707WAT     H165363   9.956   9.027   7.698
21707WAT     H265364   9.802   8.980   7.724
21708WAT      O65365   8.623   8.154   8.056
21708WAT     H165366   8.532   8.115   8.067
21708WAT     H265367   8.687   8.108   8.117
21709WAT      O65368   9.541   5.783   7.214
21709WAT     H165369   9.584   5.779   7.124
21709WAT     H265370   9.483   5.702   7.226
21710WAT      O65371   5.611   4.662   2.892
21710WAT     H165372   5.517   4.640   2.867
21710WAT     H265373   5.653   4.585   2.939
21711WAT      O65374   8.063   4.367   2.401
21711WAT     H165375   8.096   4.350   2.494
21711WAT     H265376   8.028   4.461   2.396
21712WAT      O65377   4.724   9.700   4.323
21712WAT     H165378   4.665   9.776   4.350
21712WAT     H265379   4.774   9.724   4.240
21713WAT      O65380   0.320   2.085   8.909
21713WAT     H165381   0.283   2.036   8.830
21713WAT     H265382   0.297   2.182   8.900
21714WAT      O65383   5.231   6.983   2.902
21714WAT     H165384   5.325   6.969   2.870
21714WAT     H265385   5.232   6.995   3.002
21715WAT      O65386   5.278   6.993   0.540
21715WAT     H165387   5.179   6.993   0.549
21715WAT     H265388   5.303   6.994   0.443
21716WAT      O65389   2.624   6.169   8.665
21716WAT     H165390   2.542   6.199   8.715
21716WAT     H265391   2.606   6.079   8.624
21717WAT      O65392   4.955   6.273   9.578
21717WAT     H165393   4.988   6.192   9.530
21717WAT     H265394   4.913   6.335   9.512
21718WAT      O65395   7.854   2.452   9.209
21718WAT     H165396   7.907   2.524   9.253
21718WAT     H265397   7.914   2.395   9.153
21719WAT      O65398   6.666   7.304   0.747
21719WAT     H165399   6.751   7.286   0.797
21719WAT     H265400   6.670   7.259   0.658
21720WAT      O65401   9.661   2.029   8.682
21720WAT     H165402   9.738   2.037   8.746
21720WAT     H265403   9.613   2.116   8.678
21721WAT      O65404   5.294   3.774   1.164
21721WAT     H165405   5.366   3.825   1.212
21721WAT     H265406   5.302   3.792   1.066
21722WAT      O65407   0.150   0.534   0.396
21722WAT     H165408   0.191   0.449   0.431
21722WAT     H265409   0.222   0.590   0.355
21723WAT      O65410   4.014   7.973   6.586
21723WAT     H165411   3.972   8.058   6.554
21723WAT     H265412   4.114   7.983   6.583
21724WAT      O65413   0.616   2.995   0.949
21724WAT     H165414   0.620   2.908   0.901
21724WAT     H265415   0.520   3.023   0.960
21725WAT      O65416   5.694   0.214   4.544
21725WAT     H165417   5.622   0.259   4.492
21725WAT     H265418   5.730   0.277   4.613
21726WAT      O65419   1.742   1.604   8.397
21726WAT     H165420   1.643   1.599   8.407
21726WAT     H265421   1.765   1.649   8.311
21727WAT      O65422   8.885   7.279   0.209
21727WAT     H165423   8.874   7.181   0.192
21727WAT     H265424   8.978   7.297   0.243
21728WAT      O65425   5.441   3.916   7.256
21728WAT     H165426   5.527   3.915   7.205
21728WAT     H265427   5.395   4.003   7.240
21729WAT      O65428   2.827   5.676   4.007
21729WAT     H165429   2.926   5.658   4.014
21729WAT     H265430   2.789   5.684   4.099
21730WAT      O65431   0.186   2.544   4.502
21730WAT     H165432   0.093   2.512   4.517
21730WAT     H265433   0.210   2.613   4.570
21731WAT      O65434   8.133   4.162   6.159
21731WAT     H165435   8.218   4.197   6.121
21731WAT     H265436   8.133   4.173   6.258
21732WAT      O65437   7.267   1.390   4.070
21732WAT     H165438   7.336   1.348   4.010
21732WAT     H265439   7.179   1.345   4.055
21733WAT      O65440   4.371   1.656   2.114
21733WAT     H165441   4.314   1.737   2.100
21733WAT     H265442   4.352   1.616   2.203
21734WAT      O65443   6.221   1.016   6.583
21734WAT     H165444   6.293   1.081   6.561
21734WAT     H265445   6.223   0.996   6.681
21735WAT      O65446   4.595   8.751   4.961
21735WAT     H165447   4.513   8.734   4.908
21735WAT     H265448   4.672   8.769   4.899
21736WAT      O65449   9.538   0.884   5.072
21736WAT     H165450   9.489   0.796   5.069
21736WAT     H265451   9.607   0.882   5.144
21737WAT      O65452   7.095   7.165   2.750
21737WAT     H165453   7.097   7.256   2.790
21737WAT     H265454   7.187   7.140   2.717
21738WAT      O65455   1.386   1.288   5.522
21738WAT     H165456   1.287   1.282   5.533
21738WAT     H265457   1.430   1.212   5.570
21739WAT      O65458   3.141   7.252   9.054
21739WAT     H165459   3.142   7.294   9.145
21739WAT     H265460   3.153   7.153   9.063
21740WAT      O65461   1.796   0.874   4.196
21740WAT     H165462   1.749   0.794   4.159
21740WAT     H265463   1.732   0.952   4.198
21741WAT      O65464   8.993   0.309   8.634
21741WAT     H165465   8.897   0.284   8.620
21741WAT     H265466   9.011   0.396   8.589
21742WAT      O65467   6.082   7.160   6.006
21742WAT     H165468   6.068   7.124   6.098
21742WAT     H265469   6.100   7.084   5.943
21743WAT      O65470   6.695   1.077   8.523
21743WAT     H165471   6.761   1.076   8.447
21743WAT     H265472   6.698   0.989   8.570
21744WAT      O65473   0.832   7.390   5.135
21744WAT     H165474   0.754   7.438   5.095
21744WAT     H265475   0.877   7.450   5.202
21745WAT      O65476   8.045   7.472   2.088
21745WAT     H165477   8.126   7.441   2.039
21745WAT     H265478   8.019   7.404   2.156
21746WAT      O65479   5.633   1.098   1.037
21746WAT     H165480   5.649   1.196   1.022
21746WAT     H265481   5.633   1.079   1.135
21747WAT      O65482   8.292   9.358   3.018
21747WAT     H165483   8.303   9.260   3.036
21747WAT     H265484   8.196   9.377   2.996
21748WAT      O65485   2.933   1.112   2.447
21748WAT     H165486   3.024   1.152   2.463
21748WAT     H265487   2.916   1.105   2.349
21749WAT      O65488   6.021   6.828   5.660
21749WAT     H165489   6.105   6.828   5.606
21749WAT     H265490   5.942   6.812   5.601
21750WAT      O65491   5.251   9.100   1.322
21750WAT     H165492   5.153   9.102   1.301
21750WAT     H265493   5.300   9.156   1.255
21751WAT      O65494   3.090   6.125   3.325
21751WAT     H165495   3.105   6.217   3.360
21751WAT     H265496   3.099   6.059   3.400
21752WAT      O65497   4.653   2.176   0.836
21752WAT     H165498   4.561   2.139   0.845
21752WAT     H265499   4.660   2.261   0.889
21753WAT      O65500   8.929   1.089   9.537
21753WAT     H165501   8.971   0.999   9.528
21753WAT     H265502   8.900   1.103   9.631
21754WAT      O65503   1.797   0.426   1.285
21754WAT     H165504   1.870   0.405   1.351
21754WAT     H265505   1.720   0.469   1.334
21755WAT      O65506   7.060   8.998   5.470
21755WAT     H165507   7.008   9.028   5.550
21755WAT     H265508   7.128   9.068   5.447
21756WAT      O65509   2.090   5.173   7.137
21756WAT     H165510   2.111   5.199   7.043
21756WAT     H265511   2.027   5.095   7.136
21757WAT      O65512   8.260   5.498   8.359
21757WAT     H165513   8.322   5.438   8.309
21757WAT     H265514   8.228   5.571   8.299
21758WAT      O65515   7.668   0.962   6.776
21758WAT     H165516   7.615   1.022   6.836
21758WAT     H265517   7.734   1.016   6.724
21759WAT      O65518   8.849   4.604   4.294
21759WAT     H165519   8.848   4.594   4.194
21759WAT     H265520   8.832   4.515   4.336
21760WAT      O65521   8.047   5.360   6.709
21760WAT     H165522   8.107   5.315   6.643
21760WAT     H265523   8.098   5.376   6.794
21761WAT      O65524   5.669   4.218   5.807
21761WAT     H165525   5.736   4.292   5.814
21761WAT     H265526   5.640   4.191   5.899
21762WAT      O65527   6.884   7.883   7.416
21762WAT     H165528   6.924   7.972   7.439
21762WAT     H265529   6.878   7.826   7.498
21763WAT      O65530   8.844   2.370   5.511
21763WAT     H165531   8.874   2.313   5.587
21763WAT     H265532   8.822   2.462   5.545
21764WAT      O65533   3.681   1.148   6.032
21764WAT     H165534   3.714   1.055   6.015
21764WAT     H265535   3.736   1.191   6.104
21765WAT      O65536   4.655   2.256   8.247
21765WAT     H165537   4.601   2.211   8.318
21765WAT     H265538   4.692   2.342   8.283
21766WAT      O65539   7.873   2.128   7.661
21766WAT     H165540   7.936   2.058   7.628
21766WAT     H265541   7.792   2.130   7.603
21767WAT      O65542   0.661   3.675   6.890
21767WAT     H165543   0.632   3.721   6.974
21767WAT     H265544   0.759   3.691   6.876
21768WAT      O65545   2.823   5.091   6.177
21768WAT     H165546   2.881   5.123   6.102
21768WAT     H265547   2.822   4.991   6.178
21769WAT      O65548   6.142   5.276   2.147
21769WAT     H165549   6.217   5.302   2.086
21769WAT     H265550   6.152   5.323   2.234
21770WAT      O65551   8.177   0.698   4.772
21770WAT     H165552   8.213   0.779   4.725
21770WAT     H265553   8.220   0.616   4.735
21771WAT      O65554   4.579   7.441   1.652
21771WAT     H165555   4.642   7.396   1.589
21771WAT     H265556   4.525   7.372   1.700
21772WAT      O65557   3.600   6.340   4.545
21772WAT     H165558   3.670   6.364   4.612
21772WAT     H265559   3.569   6.246   4.560
21773WAT      O65560   4.048   0.125   0.782
21773WAT     H165561   3.976   0.172   0.832
21773WAT     H265562   4.079   0.045   0.835
21774WAT      O65563   6.926   0.320   1.633
21774WAT     H165564   6.940   0.241   1.573
21774WAT     H265565   7.007   0.378   1.632
21775WAT      O65566   4.848   9.410   3.445
21775WAT     H165567   4.862   9.509   3.447
21775WAT     H265568   4.923   9.364   3.492
21776WAT      O65569   4.670   8.974   0.634
21776WAT     H165570   4.651   9.069   0.657
21776WAT     H265571   4.587   8.932   0.595
21777WAT      O65572   2.305   4.040   5.481
21777WAT     H165573   2.216   4.006   5.452
21777WAT     H265574   2.331   4.119   5.426
21778WAT      O65575   4.674   2.380   6.997
21778WAT     H165576   4.772   2.362   7.006
21778WAT     H265577   4.645   2.361   6.904
21779WAT      O65578   0.529   4.105   8.410
21779WAT     H165579   0.514   4.188   8.356
21779WAT     H265580   0.619   4.110   8.453
21780WAT      O65581   3.436   6.104   2.664
21780WAT     H165582   3.472   6.195   2.681
21780WAT     H265583   3.495   6.035   2.707
21781WAT      O65584   8.332   8.589   0.642
21781WAT     H165585   8.239   8.619   0.620
21781WAT     H265586   8.369   8.537   0.565
21782WAT      O65587   8.170   1.448   8.358
21782WAT     H165588   8.189   1.368   8.300
21782WAT     H265589   8.206   1.530   8.313
21783WAT      O65590   3.784   9.710   2.768
21783WAT     H165591   3.825   9.694   2.857
21783WAT     H265592   3.729   9.794   2.771
21784WAT      O65593   6.153   4.898   3.356
21784WAT     H165594   6.065   4.880   3.312
21784WAT     H265595   6.160   4.996   3.378
21785WAT      O65596   4.374   4.663   6.986
21785WAT     H165597   4.333   4.651   7.077
21785WAT     H265598   4.388   4.574   6.943
21786WAT      O65599   4.969   8.934   4.089
21786WAT     H165600   4.886   8.885   4.115
21786WAT     H265601   5.040   8.919   4.158
21787WAT      O65602   8.982   3.857   6.955
21787WAT     H165603   9.056   3.811   7.004
21787WAT     H265604   8.928   3.911   7.019
21788WAT      O65605   3.960   7.821   1.080
21788WAT     H165606   3.978   7.917   1.101
21788WAT     H265607   3.881   7.814   1.020
21789WAT      O65608   4.983   1.829   6.527
21789WAT     H165609   4.996   1.816   6.625
21789WAT     H265610   4.948   1.745   6.486
21790WAT      O65611   1.129   1.334   8.052
21790WAT     H165612   1.049   1.298   8.002
21790WAT     H265613   1.105   1.345   8.148
21791WAT      O65614   8.514   3.822   1.078
21791WAT     H165615   8.510   3.762   0.997
21791WAT     H265616   8.571   3.779   1.148
21792WAT      O65617   4.317   7.229   4.047
21792WAT     H165618   4.362   7.168   4.112
21792WAT     H265619   4.316   7.187   3.957
21793WAT      O65620   5.394   2.531   0.297
21793WAT     H165621   5.419   2.440   0.331
21793WAT     H265622   5.365   2.588   0.374
21794WAT      O65623   6.327   8.038   9.025
21794WAT     H165624   6.325   8.128   9.068
21794WAT     H265625   6.240   7.991   9.042
21795WAT      O65626   1.108   2.170   0.877
21795WAT     H165627   1.159   2.188   0.961
21795WAT     H265628   1.074   2.256   0.839
21796WAT      O65629   1.282   8.972   4.389
21796WAT     H165630   1.378   8.983   4.365
21796WAT     H265631   1.238   8.911   4.322
21797WAT      O65632   0.240   5.532   2.545
21797WAT     H165633   0.326   5.560   2.586
21797WAT     H265634   0.197   5.462   2.602
21798WAT      O65635   7.387   3.422   6.617
21798WAT     H165636   7.416   3.364   6.693
21798WAT     H265637   7.450   3.499   6.609
21799WAT      O65638   5.332   3.409   5.256
21799WAT     H165639   5.408   3.470   5.277
21799WAT     H265640   5.366   3.327   5.209
21800WAT      O65641   7.340   7.741   6.955
21800WAT     H165642   7.360   7.687   7.036
21800WAT     H265643   7.422   7.791   6.927
21801WAT      O65644   8.925   5.342   8.566
21801WAT     H165645   8.984   5.317   8.490
21801WAT     H265646   8.830   5.343   8.535
21802WAT      O65647   5.398   0.946   5.188
21802WAT     H165648   5.347   1.032   5.176
21802WAT     H265649   5.434   0.917   5.099
21803WAT      O65650   6.503   1.400   4.286
21803WAT     H165651   6.558   1.435   4.210
21803WAT     H265652   6.481   1.474   4.350
21804WAT      O65653   8.780   5.386   5.286
21804WAT     H165654   8.837   5.429   5.216
21804WAT     H265655   8.775   5.447   5.366
21805WAT      O65656   0.044   2.700   9.258
21805WAT     H165657   0.100   2.773   9.219
21805WAT     H265658  -0.051   2.730   9.262
21806WAT      O65659   3.136   6.869   5.686
21806WAT     H165660   3.097   6.830   5.603
21806WAT     H265661   3.074   6.937   5.725
21807WAT      O65662   4.119   6.854   7.518
21807WAT     H165663   4.030   6.825   7.482
21807WAT     H265664   4.190   6.833   7.450
21808WAT      O65665   0.250   6.960   8.182
21808WAT     H165666   0.267   6.872   8.227
21808WAT     H265667   0.177   7.009   8.230
21809WAT      O65668   5.041   8.893   0.548
21809WAT     H165669   5.101   8.865   0.474
21809WAT     H265670   5.037   8.821   0.617
21810WAT      O65671   9.108   3.177   2.349
21810WAT     H165672   9.199   3.163   2.390
21810WAT     H265673   9.075   3.091   2.311
21811WAT      O65674   4.030   8.175   9.431
21811WAT     H165675   4.041   8.075   9.425
21811WAT     H265676   4.010   8.200   9.526
21812WAT      O65677   6.211   8.500   5.933
21812WAT     H165678   6.207   8.593   5.968
21812WAT     H265679   6.306   8.474   5.915
21813WAT      O65680   7.680   8.338   0.130
21813WAT     H165681   7.744   8.413   0.118
21813WAT     H265682   7.617   8.335   0.053
21814WAT      O65683   1.533   4.933   6.572
21814WAT     H165684   1.435   4.935   6.592
21814WAT     H265685   1.548   4.937   6.473
21815WAT      O65686   6.796   5.801   5.732
21815WAT     H165687   6.742   5.855   5.668
21815WAT     H265688   6.833   5.861   5.803
21816WAT      O65689   2.742   1.039   1.216
21816WAT     H165690   2.695   1.091   1.144
21816WAT     H265691   2.681   0.967   1.250
21817WAT      O65692   8.030   5.533   7.105
21817WAT     H165693   8.055   5.587   7.025
21817WAT     H265694   8.040   5.589   7.187
21818WAT      O65695   4.580   5.536   2.322
21818WAT     H165696   4.492   5.584   2.316
21818WAT     H265697   4.576   5.467   2.394
21819WAT      O65698   3.946   1.402   1.274
21819WAT     H165699   3.944   1.479   1.209
21819WAT     H265700   4.013   1.421   1.346
21820WAT      O65701   9.772   5.001   2.322
21820WAT     H165702   9.847   4.944   2.290
21820WAT     H265703   9.719   5.035   2.244
21821WAT      O65704   2.076   5.743   8.966
21821WAT     H165705   2.068   5.755   9.065
21821WAT     H265706   2.124   5.822   8.927
21822WAT      O65707   1.822   3.272   4.294
21822WAT     H165708   1.896   3.329   4.258
21822WAT     H265709   1.749   3.265   4.226
21823WAT      O65710   0.166   1.343   8.979
21823WAT     H165711   0.172   1.435   9.019
21823WAT     H265712   0.138   1.350   8.883
21824WAT      O65713   8.366   2.629   0.463
21824WAT     H165714   8.457   2.663   0.485
21824WAT     H265715   8.363   2.600   0.367
21825WAT      O65716   8.394   9.634   5.642
21825WAT     H165717   8.344   9.600   5.721
21825WAT     H265718   8.364   9.586   5.560
21826WAT      O65719   7.918   5.561   6.542
21826WAT     H165720   7.929   5.471   6.585
21826WAT     H265721   7.931   5.554   6.444
21827WAT      O65722   4.135   4.341   3.545
21827WAT     H165723   4.049   4.357   3.593
21827WAT     H265724   4.184   4.427   3.533
21828WAT      O65725   5.550   6.293   6.694
21828WAT     H165726   5.622   6.232   6.660
21828WAT     H265727   5.545   6.286   6.794
21829WAT      O65728   2.034   1.471   0.019
21829WAT     H165729   1.945   1.430   0.003
21829WAT     H265730   2.082   1.484  -0.067
21830WAT      O65731   3.933   0.234   2.209
21830WAT     H165732   3.955   0.137   2.197
21830WAT     H265733   3.860   0.259   2.145
21831WAT      O65734   4.616   9.506   0.950
21831WAT     H165735   4.592   9.596   0.913
21831WAT     H265736   4.697   9.514   1.008
21832WAT      O65737   3.208   6.134   4.885
21832WAT     H165738   3.175   6.203   4.821
21832WAT     H265739   3.305   6.115   4.868
21833WAT      O65740   7.911   8.210   1.031
21833WAT     H165741   7.924   8.177   1.125
21833WAT     H265742   7.882   8.305   1.033
21834WAT      O65743   1.951   7.448   7.487
21834WAT     H165744   1.906   7.374   7.538
21834WAT     H265745   1.909   7.457   7.397
21835WAT      O65746   0.648   9.728   4.873
21835WAT     H165747   0.632   9.751   4.777
21835WAT     H265748   0.732   9.675   4.882
21836WAT      O65749   1.625   1.994   9.683
21836WAT     H165750   1.551   2.061   9.687
21836WAT     H265751   1.653   1.971   9.776
21837WAT      O65752   6.924   4.814   1.023
21837WAT     H165753   6.889   4.746   1.087
21837WAT     H265754   6.993   4.771   0.964
21838WAT      O65755   0.585   5.877   7.345
21838WAT     H165756   0.608   5.819   7.267
21838WAT     H265757   0.555   5.967   7.313
21839WAT      O65758   5.351   5.268   1.561
21839WAT     H165759   5.267   5.256   1.509
21839WAT     H265760   5.343   5.218   1.648
21840WAT      O65761   1.846   6.465   1.790
21840WAT     H165762   1.862   6.507   1.700
21840WAT     H265763   1.932   6.465   1.842
21841WAT      O65764   2.392   7.588   3.170
21841WAT     H165765   2.362   7.633   3.254
21841WAT     H265766   2.339   7.624   3.093
21842WAT      O65767   8.959   8.746   0.020
21842WAT     H165768   8.982   8.650   0.010
21842WAT     H265769   8.867   8.755   0.059
21843WAT      O65770   6.553   2.784   8.470
21843WAT     H165771   6.465   2.815   8.435
21843WAT     H265772   6.569   2.689   8.441
21844WAT      O65773   3.856   2.399   7.889
21844WAT     H165774   3.778   2.454   7.920
21844WAT     H265775   3.923   2.459   7.846
21845WAT      O65776   3.112   6.238   1.437
21845WAT     H165777   3.194   6.187   1.410
21845WAT     H265778   3.062   6.186   1.506
21846WAT      O65779   1.333   1.381   1.013
21846WAT     H165780   1.285   1.417   1.093
21846WAT     H265781   1.397   1.311   1.042
21847WAT      O65782   8.673   6.751   1.420
21847WAT     H165783   8.768   6.779   1.433
21847WAT     H265784   8.622   6.763   1.505
21848WAT      O65785   7.640   7.083   3.448
21848WAT     H165786   7.656   6.987   3.426
21848WAT     H265787   7.626   7.135   3.364
21849WAT      O65788   3.295   5.914   0.735
21849WAT     H165789   3.312   5.964   0.820
21849WAT     H265790   3.373   5.854   0.716
21850WAT      O65791   8.605   4.961   6.816
21850WAT     H165792   8.607   4.905   6.898
21850WAT     H265793   8.519   5.012   6.812
21851WAT      O65794   3.163   7.991   8.213
21851WAT     H165795   3.159   8.077   8.263
21851WAT     H265796   3.111   7.999   8.128
21852WAT      O65797   3.479   6.874   1.219
21852WAT     H165798   3.456   6.781   1.245
21852WAT     H265799   3.479   6.932   1.300
21853WAT      O65800   3.207   8.928   9.554
21853WAT     H165801   3.111   8.923   9.583
21853WAT     H265802   3.211   8.952   9.457
21854WAT      O65803   8.734   0.911   7.453
21854WAT     H165804   8.801   0.934   7.523
21854WAT     H265805   8.643   0.905   7.495
21855WAT      O65806   5.204   1.359   3.883
21855WAT     H165807   5.159   1.347   3.794
21855WAT     H265808   5.296   1.322   3.879
21856WAT      O65809   2.474   3.208   1.577
21856WAT     H165810   2.499   3.158   1.660
21856WAT     H265811   2.377   3.194   1.557
21857WAT      O65812   3.971   1.621   2.876
21857WAT     H165813   4.048   1.592   2.819
21857WAT     H265814   3.926   1.699   2.833
21858WAT      O65815   4.431   2.722   9.011
21858WAT     H165816   4.514   2.766   9.046
21858WAT     H265817   4.353   2.746   9.068
21859WAT      O65818   1.120   1.949   5.991
21859WAT     H165819   1.188   1.960   5.918
21859WAT     H265820   1.068   2.034   6.002
21860WAT      O65821   1.040   1.852   5.114
21860WAT     H165822   1.016   1.927   5.177
21860WAT     H265823   1.133   1.821   5.134
21861WAT      O65824   5.711   8.343   1.090
21861WAT     H165825   5.663   8.279   1.150
21861WAT     H265826   5.645   8.388   1.029
21862WAT      O65827   1.266   0.867   7.137
21862WAT     H165828   1.271   0.809   7.217
21862WAT     H265829   1.295   0.960   7.160
21863WAT      O65830   8.206   1.484   9.713
21863WAT     H165831   8.289   1.476   9.769
21863WAT     H265832   8.182   1.581   9.703
21864WAT      O65833   6.005   0.263   8.436
21864WAT     H165834   5.919   0.265   8.385
21864WAT     H265835   6.070   0.203   8.390
21865WAT      O65836   3.168   2.391   7.166
21865WAT     H165837   3.094   2.327   7.148
21865WAT     H265838   3.155   2.474   7.112
21866WAT      O65839   9.011   3.566   3.683
21866WAT     H165840   8.968   3.490   3.732
21866WAT     H265841   8.997   3.554   3.585
21867WAT      O65842   7.485   8.659   4.769
21867WAT     H165843   7.579   8.629   4.750
21867WAT     H265844   7.436   8.585   4.815
21868WAT      O65845   5.509   5.619   7.066
21868WAT     H165846   5.608   5.605   7.063
21868WAT     H265847   5.463   5.530   7.065
21869WAT      O65848   2.915   5.418   1.222
21869WAT     H165849   3.009   5.409   1.191
21869WAT     H265850   2.891   5.515   1.230
21870WAT      O65851   7.165   4.890   4.804
21870WAT     H165852   7.065   4.896   4.793
21870WAT     H265853   7.190   4.796   4.828
21871WAT      O65854   6.636   1.989   3.575
21871WAT     H165855   6.647   1.904   3.628
21871WAT     H265856   6.714   2.001   3.515
21872WAT      O65857   8.252   0.741   0.502
21872WAT     H165858   8.251   0.784   0.412
21872WAT     H265859   8.303   0.798   0.566
21873WAT      O65860   2.511   3.082   5.946
21873WAT     H165861   2.517   3.018   5.870
21873WAT     H265862   2.474   3.036   6.027
21874WAT      O65863   1.165   8.056   6.624
21874WAT     H165864   1.173   8.153   6.598
21874WAT     H265865   1.115   8.048   6.710
21875WAT      O65866   8.345   0.981   5.886
21875WAT     H165867   8.274   1.021   5.829
21875WAT     H265868   8.417   0.941   5.828
21876WAT      O65869   9.289   7.698   6.492
21876WAT     H165870   9.232   7.711   6.572
21876WAT     H265871   9.234   7.708   6.409
21877WAT      O65872   3.889   3.672   4.174
21877WAT     H165873   3.891   3.750   4.237
21877WAT     H265874   3.971   3.616   4.186
21878WAT      O65875   0.168   6.840   7.169
21878WAT     H165876   0.250   6.787   7.195
21878WAT     H265877   0.090   6.808   7.223
21879WAT      O65878   1.425   8.492   1.210
21879WAT     H165879   1.331   8.514   1.183
21879WAT     H265880   1.478   8.468   1.129
21880WAT      O65881   0.586   2.547   9.358
21880WAT     H165882   0.616   2.460   9.320
21880WAT     H265883   0.582   2.541   9.458
21881WAT      O65884   6.659   7.654   7.887
21881WAT     H165885   6.708   7.637   7.801
21881WAT     H265886   6.637   7.566   7.930
21882WAT      O65887   1.882   0.027   9.652
21882WAT     H165888   1.959  -0.007   9.706
21882WAT     H265889   1.803   0.043   9.712
21883WAT      O65890   2.586   4.680   3.263
21883WAT     H165891   2.589   4.739   3.344
21883WAT     H265892   2.494   4.682   3.224
21884WAT      O65893   2.383   2.472   6.266
21884WAT     H165894   2.330   2.556   6.270
21884WAT     H265895   2.322   2.394   6.254
21885WAT      O65896   2.980   2.642   4.689
21885WAT     H165897   3.014   2.736   4.695
21885WAT     H265898   2.963   2.606   4.781
21886WAT      O65899   8.326   2.511   0.709
21886WAT     H165900   8.334   2.582   0.778
21886WAT     H265901   8.369   2.541   0.624
21887WAT      O65902   7.806   6.380   6.916
21887WAT     H165903   7.880   6.315   6.935
21887WAT     H265904   7.743   6.341   6.849
21888WAT      O65905   5.085   6.995   5.991
21888WAT     H165906   5.078   6.924   6.061
21888WAT     H265907   5.007   7.057   5.998
21889WAT      O65908   6.956   1.252   4.432
21889WAT     H165909   6.941   1.233   4.335
21889WAT     H265910   6.979   1.349   4.444
21890WAT      O65911   6.683   2.990   6.184
21890WAT     H165912   6.745   2.928   6.134
21890WAT     H265913   6.636   2.939   6.256
21891WAT      O65914   4.825   5.238   2.421
21891WAT     H165915   4.836   5.142   2.396
21891WAT     H265916   4.899   5.265   2.482
21892WAT      O65917   0.700   1.306   8.674
21892WAT     H165918   0.606   1.332   8.694
21892WAT     H265919   0.707   1.207   8.669
21893WAT      O65920   8.608   9.806   1.552
21893WAT     H165921   8.604   9.887   1.494
21893WAT     H265922   8.583   9.725   1.498
21894WAT      O65923   2.436   5.938   2.783
21894WAT     H165924   2.444   5.839   2.790
21894WAT     H265925   2.437   5.965   2.687
21895WAT      O65926   7.299   3.490   5.371
21895WAT     H165927   7.345   3.579   5.377
21895WAT     H265928   7.204   3.504   5.342
21896WAT      O65929   4.918   7.835   7.629
21896WAT     H165930   4.893   7.922   7.586
21896WAT     H265931   4.901   7.841   7.727
21897WAT      O65932   0.469   6.955   7.781
21897WAT     H165933   0.521   7.019   7.836
21897WAT     H265934   0.474   6.864   7.821
21898WAT      O65935   6.240   6.530   5.449
21898WAT     H165936   6.333   6.535   5.485
21898WAT     H265937   6.193   6.451   5.488
21899WAT      O65938   8.591   4.750   0.690
21899WAT     H165939   8.552   4.841   0.702
21899WAT     H265940   8.660   4.753   0.617
21900WAT      O65941   4.588   5.960   1.389
21900WAT     H165942   4.515   6.024   1.413
21900WAT     H265943   4.674   6.010   1.378
21901WAT      O65944   1.041   5.600   9.052
21901WAT     H165945   1.004   5.638   8.967
21901WAT     H265946   1.038   5.669   9.124
21902WAT      O65947   9.261   6.906   5.307
21902WAT     H165948   9.303   6.934   5.394
21902WAT     H265949   9.239   6.987   5.252
21903WAT      O65950   8.989   9.219   1.112
21903WAT     H165951   9.076   9.212   1.064
21903WAT     H265952   8.921   9.260   1.052
21904WAT      O65953   4.421   3.521   6.029
21904WAT     H165954   4.505   3.491   6.074
21904WAT     H265955   4.431   3.616   6.000
21905WAT      O65956   6.320   2.787   1.518
21905WAT     H165957   6.330   2.886   1.529
21905WAT     H265958   6.391   2.753   1.456
21906WAT      O65959   1.310   0.064   7.691
21906WAT     H165960   1.257   0.028   7.614
21906WAT     H265961   1.275   0.025   7.776
21907WAT      O65962   3.385   4.995   3.747
21907WAT     H165963   3.391   4.913   3.690
21907WAT     H265964   3.467   5.051   3.734
21908WAT      O65965   1.369   9.253   4.704
21908WAT     H165966   1.294   9.262   4.639
21908WAT     H265967   1.332   9.234   4.795
21909WAT      O65968   9.357   7.204   2.344
21909WAT     H165969   9.409   7.122   2.320
21909WAT     H265970   9.260   7.189   2.327
21910WAT      O65971   9.821   2.929   0.334
21910WAT     H165972   9.878   3.004   0.301
21910WAT     H265973   9.870   2.843   0.323
21911WAT      O65974   8.085   1.695   3.019
21911WAT     H165975   8.018   1.766   3.040
21911WAT     H265976   8.176   1.724   3.048
21912WAT      O65977   1.044   4.997   4.895
21912WAT     H165978   1.131   4.971   4.853
21912WAT     H265979   1.009   5.080   4.852
21913WAT      O65980   4.094   4.709   5.396
21913WAT     H165981   4.147   4.777   5.445
21913WAT     H265982   4.150   4.627   5.380
21914WAT      O65983   1.073   6.583   6.981
21914WAT     H165984   1.128   6.598   6.899
21914WAT     H265985   1.062   6.484   6.995
21915WAT      O65986   9.092   6.065   3.103
21915WAT     H165987   9.182   6.108   3.107
21915WAT     H265988   9.100   5.976   3.058
21916WAT      O65989   0.570   7.381   0.720
21916WAT     H165990   0.489   7.351   0.770
21916WAT     H265991   0.545   7.456   0.658
21917WAT      O65992   6.196   7.299   9.198
21917WAT     H165993   6.185   7.233   9.272
21917WAT     H265994   6.124   7.286   9.130
21918WAT      O65995   7.681   2.406   8.381
21918WAT     H165996   7.619   2.346   8.431
21918WAT     H265997   7.656   2.408   8.284
21919WAT      O65998   7.292   9.006   0.446
21919WAT     H165999   7.292   9.105   0.430
21919WAT     H266000   7.289   8.958   0.359
21920WAT      O66001   0.265   6.388   3.402
21920WAT     H166002   0.277   6.357   3.496
21920WAT     H266003   0.345   6.439   3.373
21921WAT      O66004   6.448   8.601   1.521
21921WAT     H166005   6.483   8.653   1.443
21921WAT     H266006   6.364   8.555   1.495
21922WAT      O66007   0.646   1.010   7.066
21922WAT     H166008   0.682   1.091   7.112
21922WAT     H266009   0.550   0.997   7.091
21923WAT      O66010   5.103   0.194   8.011
21923WAT     H166011   5.125   0.205   8.108
21923WAT     H266012   5.005   0.206   7.997
21924WAT      O66013   5.668   0.058   9.081
21924WAT     H166014   5.679   0.006   9.165
21924WAT     H266015   5.653  -0.006   9.005
21925WAT      O66016   0.114   6.160   9.080
21925WAT     H166017   0.201   6.202   9.107
21925WAT     H266018   0.048   6.169   9.154
21926WAT      O66019   3.840   1.636   3.697
21926WAT     H166020   3.867   1.661   3.790
21926WAT     H266021   3.886   1.696   3.632
21927WAT      O66022   8.421   2.323   8.412
21927WAT     H166023   8.471   2.410   8.417
21927WAT     H266024   8.475   2.255   8.364
21928WAT      O66025   7.952   1.369   9.048
21928WAT     H166026   7.951   1.281   9.095
21928WAT     H266027   7.954   1.354   8.949
21929WAT      O66028   7.421   0.284   6.085
21929WAT     H166029   7.498   0.342   6.059
21929WAT     H266030   7.390   0.231   6.006
21930WAT      O66031   6.674   7.973   7.268
21930WAT     H166032   6.756   7.969   7.326
21930WAT     H266033   6.699   8.008   7.178
21931WAT      O66034   0.767   6.768   3.558
21931WAT     H166035   0.821   6.852   3.557
21931WAT     H266036   0.827   6.690   3.577
21932WAT      O66037   1.075   4.659   9.809
21932WAT     H166038   1.099   4.570   9.770
21932WAT     H266039   1.002   4.647   9.876
21933WAT      O66040   1.774   6.394   0.165
21933WAT     H166041   1.771   6.305   0.119
21933WAT     H266042   1.778   6.466   0.096
21934WAT      O66043   3.499   7.275   2.360
21934WAT     H166044   3.430   7.243   2.295
21934WAT     H266045   3.563   7.335   2.313
21935WAT      O66046   5.395   0.890   5.970
21935WAT     H166047   5.387   0.792   5.950
21935WAT     H266048   5.304   0.932   5.966
21936WAT      O66049   5.141   3.852   2.082
21936WAT     H166050   5.145   3.900   2.169
21936WAT     H266051   5.232   3.846   2.042
21937WAT      O66052   9.068   4.050   1.969
21937WAT     H166053   9.132   4.105   2.024
21937WAT     H266054   9.005   4.003   2.030
21938WAT      O66055   9.657   3.935   8.693
21938WAT     H166056   9.634   3.984   8.777
21938WAT     H266057   9.700   3.999   8.628
21939WAT      O66058   1.252   5.242   6.232
21939WAT     H166059   1.273   5.145   6.216
21939WAT     H266060   1.164   5.264   6.191
21940WAT      O66061   1.439   0.566   2.212
21940WAT     H166062   1.353   0.614   2.231
21940WAT     H266063   1.418   0.478   2.169
21941WAT      O66064   0.152   8.517   8.576
21941WAT     H166065   0.096   8.451   8.526
21941WAT     H266066   0.224   8.552   8.516
21942WAT      O66067   3.802   6.583   4.715
21942WAT     H166068   3.830   6.592   4.620
21942WAT     H266069   3.770   6.671   4.749
21943WAT      O66070   3.623   0.351   8.949
21943WAT     H166071   3.630   0.381   9.044
21943WAT     H266072   3.649   0.426   8.888
21944WAT      O66073   0.525   8.255   6.469
21944WAT     H166074   0.544   8.352   6.451
21944WAT     H266075   0.590   8.199   6.419
21945WAT      O66076   4.792   4.111   1.597
21945WAT     H166077   4.790   4.206   1.564
21945WAT     H266078   4.710   4.093   1.652
21946WAT      O66079   1.095   7.538   1.815
21946WAT     H166080   1.075   7.615   1.875
21946WAT     H266081   1.073   7.563   1.720
21947WAT      O66082   7.420   9.214   7.385
21947WAT     H166083   7.481   9.137   7.367
21947WAT     H266084   7.430   9.243   7.480
21948WAT      O66085   9.121   2.015   6.760
21948WAT     H166086   9.043   2.053   6.811
21948WAT     H266087   9.136   1.920   6.788
21949WAT      O66088   5.290   5.404   5.474
21949WAT     H166089   5.250   5.377   5.561
21949WAT     H266090   5.352   5.481   5.488
21950WAT      O66091   3.331   5.700   7.024
21950WAT     H166092   3.296   5.607   7.011
21950WAT     H266093   3.359   5.712   7.119
21951WAT      O66094   0.479   6.500   8.657
21951WAT     H166095   0.390   6.455   8.651
21951WAT     H266096   0.533   6.477   8.577
21952WAT      O66097   2.732   2.666   9.805
21952WAT     H166098   2.669   2.728   9.759
21952WAT     H266099   2.753   2.701   9.896
21953WAT      O66100   0.872   6.166   4.834
21953WAT     H166101   0.785   6.133   4.870
21953WAT     H266102   0.863   6.262   4.808
21954WAT      O66103   5.665   6.537   6.668
21954WAT     H166104   5.621   6.453   6.699
21954WAT     H266105   5.707   6.522   6.579
21955WAT      O66106   5.934   6.220   4.790
21955WAT     H166107   6.004   6.161   4.750
21955WAT     H266108   5.976   6.278   4.859
21956WAT      O66109   4.106   3.062   1.099
21956WAT     H166110   4.189   3.034   1.051
21956WAT     H266111   4.043   3.106   1.034
21957WAT      O66112   1.624   0.707   2.019
21957WAT     H166113   1.572   0.704   1.933
21957WAT     H266114   1.590   0.636   2.081
21958WAT      O66115   9.062   7.250   2.804
21958WAT     H166116   9.079   7.345   2.779
21958WAT     H266117   8.967   7.238   2.831
21959WAT      O66118   9.660   5.528   3.663
21959WAT     H166119   9.747   5.560   3.625
21959WAT     H266120   9.673   5.439   3.706
21960WAT      O66121   3.503   3.764   3.128
21960WAT     H166122   3.530   3.813   3.044
21960WAT     H266123   3.505   3.666   3.111
21961WAT      O66124   2.904   1.373   9.704
21961WAT     H166125   2.975   1.441   9.686
21961WAT     H266126   2.820   1.397   9.656
21962WAT      O66127   0.469   2.201   2.089
21962WAT     H166128   0.544   2.204   2.023
21962WAT     H266129   0.463   2.108   2.127
21963WAT      O66130   2.140   5.471   6.316
21963WAT     H166131   2.119   5.564   6.345
21963WAT     H266132   2.237   5.463   6.297
21964WAT      O66133   8.633   3.830   6.616
21964WAT     H166134   8.658   3.839   6.712
21964WAT     H266135   8.699   3.880   6.559
21965WAT      O66136   0.829   3.038   6.640
21965WAT     H166137   0.802   3.128   6.605
21965WAT     H266138   0.924   3.041   6.670
21966WAT      O66139   0.661   5.065   7.386
21966WAT     H166140   0.607   5.060   7.470
21966WAT     H266141   0.709   5.153   7.381
21967WAT      O66142   5.880   7.069   0.187
21967WAT     H166143   5.923   6.992   0.139
21967WAT     H266144   5.944   7.108   0.253
21968WAT      O66145   0.395   4.996   1.507
21968WAT     H166146   0.433   4.943   1.583
21968WAT     H266147   0.378   5.090   1.538
21969WAT      O66148   5.654   7.396   1.312
21969WAT     H166149   5.567   7.441   1.334
21969WAT     H266150   5.644   7.297   1.322
21970WAT      O66151   6.361   6.310   2.804
21970WAT     H166152   6.445   6.258   2.817
21970WAT     H266153   6.349   6.332   2.707
21971WAT      O66154   2.543   3.149   1.830
21971WAT     H166155   2.627   3.202   1.819
21971WAT     H266156   2.494   3.180   1.912
21972WAT      O66157   0.807   3.102   4.949
21972WAT     H166158   0.841   3.010   4.930
21972WAT     H266159   0.867   3.147   5.015
21973WAT      O66160   5.834   7.502   4.102
21973WAT     H166161   5.780   7.585   4.112
21973WAT     H266162   5.816   7.440   4.179
21974WAT      O66163   4.315   0.803   9.008
21974WAT     H166164   4.359   0.732   8.954
21974WAT     H266165   4.224   0.821   8.971
21975WAT      O66166   2.706   6.227   0.079
21975WAT     H166167   2.683   6.130   0.081
21975WAT     H266168   2.631   6.281   0.117
21976WAT      O66169   4.647   2.240   7.269
21976WAT     H166170   4.611   2.276   7.183
21976WAT     H266171   4.638   2.310   7.341
21977WAT      O66172   9.052   0.614   1.018
21977WAT     H166173   9.076   0.530   1.067
21977WAT     H266174   9.024   0.684   1.084
21978WAT      O66175   1.749   8.624   4.641
21978WAT     H166176   1.797   8.712   4.640
21978WAT     H266177   1.693   8.618   4.723
21979WAT      O66178   7.346   5.052   2.159
21979WAT     H166179   7.342   5.004   2.247
21979WAT     H266180   7.256   5.090   2.138
21980WAT      O66181   3.639   0.753   0.696
21980WAT     H166182   3.568   0.684   0.713
21980WAT     H266183   3.608   0.815   0.624
21981WAT      O66184   1.036   2.068   7.146
21981WAT     H166185   1.131   2.038   7.155
21981WAT     H266186   1.017   2.091   7.051
21982WAT      O66187   7.596   0.946   9.615
21982WAT     H166188   7.519   0.895   9.577
21982WAT     H266189   7.667   0.956   9.545
21983WAT      O66190   3.428   4.422   7.230
21983WAT     H166191   3.481   4.343   7.197
21983WAT     H266192   3.436   4.497   7.164
21984WAT      O66193   9.282   1.345   8.195
21984WAT     H166194   9.247   1.431   8.233
21984WAT     H266195   9.382   1.347   8.195
21985WAT      O66196   6.304   9.632   5.497
21985WAT     H166197   6.329   9.572   5.573
21985WAT     H266198   6.249   9.582   5.431
21986WAT      O66199   0.449   5.960   5.178
21986WAT     H166200   0.407   6.050   5.194
21986WAT     H266201   0.406   5.917   5.099
21987WAT      O66202   1.639   6.590   1.911
21987WAT     H166203   1.611   6.508   1.960
21987WAT     H266204   1.707   6.566   1.842
21988WAT      O66205   0.766   1.777   6.555
21988WAT     H166206   0.831   1.785   6.479
21988WAT     H266207   0.710   1.696   6.542
21989WAT      O66208   3.173   3.585   3.732
21989WAT     H166209   3.251   3.641   3.704
21989WAT     H266210   3.095   3.644   3.754
21990WAT      O66211   2.358   4.696   7.573
21990WAT     H166212   2.310   4.773   7.532
21990WAT     H266213   2.298   4.651   7.640
21991WAT      O66214   4.060   6.568   4.843
21991WAT     H166215   4.117   6.513   4.781
21991WAT     H266216   3.968   6.577   4.804
21992WAT      O66217   8.381   5.703   9.498
21992WAT     H166218   8.431   5.733   9.579
21992WAT     H266219   8.358   5.782   9.441
21993WAT      O66220   2.818   6.469   0.014
21993WAT     H166221   2.764   6.550   0.036
21993WAT     H266222   2.791   6.393   0.073
21994WAT      O66223   9.655   6.126   7.500
21994WAT     H166224   9.753   6.112   7.505
21994WAT     H266225   9.635   6.224   7.514
21995WAT      O66226   8.373   4.925   1.000
21995WAT     H166227   8.423   4.854   1.050
21995WAT     H266228   8.275   4.906   1.006
21996WAT      O66229   4.017   3.935   0.689
21996WAT     H166230   3.962   4.018   0.693
21996WAT     H266231   4.097   3.952   0.631
21997WAT      O66232   9.256   2.851   9.450
21997WAT     H166233   9.267   2.765   9.499
21997WAT     H266234   9.180   2.903   9.490
21998WAT      O66235   8.045   7.739   1.854
21998WAT     H166236   8.002   7.799   1.922
21998WAT     H266237   8.037   7.644   1.884
21999WAT      O66238   0.114   4.063   8.346
21999WAT     H166239   0.065   4.047   8.260
21999WAT     H266240   0.182   4.135   8.333
22000WAT      O66241   4.399   7.283   1.777
22000WAT     H166242   4.367   7.239   1.861
22000WAT     H266243   4.383   7.222   1.699
22001WAT      O66244   1.816   0.534   1.043
22001WAT     H166245   1.741   0.570   0.989
22001WAT     H266246   1.781   0.467   1.109
22002WAT      O66247   9.091   8.121   3.334
22002WAT     H166248   9.013   8.183   3.342
22002WAT     H266249   9.066   8.031   3.372
22003WAT      O66250   9.409   8.285   7.380
22003WAT     H166251   9.356   8.269   7.463
22003WAT     H266252   9.467   8.365   7.392
22004WAT      O66253   1.532   5.915   5.384
22004WAT     H166254   1.578   5.963   5.459
22004WAT     H266255   1.441   5.955   5.370
22005WAT      O66256   3.506   5.123   4.875
22005WAT     H166257   3.555   5.037   4.858
22005WAT     H266258   3.539   5.193   4.812
22006WAT      O66259   2.323   7.778   9.573
22006WAT     H166260   2.366   7.867   9.553
22006WAT     H266261   2.284   7.780   9.665
22007WAT      O66262   7.150   9.733   0.556
22007WAT     H166263   7.240   9.695   0.535
22007WAT     H266264   7.094   9.663   0.602
22008WAT      O66265   5.025   8.361   1.794
22008WAT     H166266   5.076   8.440   1.831
22008WAT     H266267   4.981   8.387   1.709
22009WAT      O66268   1.821   4.758   3.321
22009WAT     H166269   1.754   4.694   3.283
22009WAT     H266270   1.776   4.822   3.383
22010WAT      O66271   7.699   2.667   6.396
22010WAT     H166272   7.682   2.633   6.304
22010WAT     H266273   7.711   2.591   6.459
22011WAT      O66274   0.505   1.329   2.696
22011WAT     H166275   0.541   1.418   2.725
22011WAT     H266276   0.406   1.325   2.712
22012WAT      O66277   6.264   5.739   2.207
22012WAT     H166278   6.342   5.728   2.145
22012WAT     H266279   6.297   5.744   2.301
22013WAT      O66280   1.151   8.357   6.500
22013WAT     H166281   1.229   8.417   6.519
22013WAT     H266282   1.076   8.378   6.562
22014WAT      O66283   6.049   5.849   8.962
22014WAT     H166284   5.999   5.792   9.028
22014WAT     H266285   6.144   5.818   8.956
22015WAT      O66286   4.488   3.962   4.944
22015WAT     H166287   4.509   3.985   5.038
22015WAT     H266288   4.438   4.037   4.901
22016WAT      O66289   0.380   2.790   4.562
22016WAT     H166290   0.362   2.767   4.466
22016WAT     H266291   0.411   2.884   4.568
22017WAT      O66292   8.874   9.392   0.916
22017WAT     H166293   8.819   9.313   0.892
22017WAT     H266294   8.837   9.473   0.871
22018WAT      O66295   0.153   3.196   9.447
22018WAT     H166296   0.248   3.211   9.476
22018WAT     H266297   0.099   3.167   9.526
22019WAT      O66298   9.605   4.966   4.069
22019WAT     H166299   9.551   5.050   4.061
22019WAT     H266300   9.610   4.920   3.981
22020WAT      O66301   4.752   3.691   7.402
22020WAT     H166302   4.845   3.727   7.396
22020WAT     H266303   4.733   3.634   7.322
22021WAT      O66304   5.132   4.204   9.681
22021WAT     H166305   5.139   4.277   9.749
22021WAT     H266306   5.197   4.221   9.607
22022WAT      O66307   4.136   6.870   0.114
22022WAT     H166308   4.117   6.861   0.017
22022WAT     H266309   4.151   6.967   0.137
22023WAT      O66310   4.544   1.023   4.135
22023WAT     H166311   4.616   1.004   4.068
22023WAT     H266312   4.468   1.069   4.090
22024WAT      O66313   4.617   5.743   6.950
22024WAT     H166314   4.531   5.778   6.987
22024WAT     H266315   4.678   5.820   6.928
22025WAT      O66316   3.535   5.388   6.842
22025WAT     H166317   3.605   5.452   6.871
22025WAT     H266318   3.533   5.383   6.742
22026WAT      O66319   5.363   8.043   2.345
22026WAT     H166320   5.413   7.963   2.312
22026WAT     H266321   5.271   8.016   2.372
22027WAT      O66322   8.467   2.476   2.575
22027WAT     H166323   8.385   2.466   2.518
22027WAT     H266324   8.536   2.527   2.524
22028WAT      O66325   0.589   0.584   7.828
22028WAT     H166326   0.564   0.676   7.797
22028WAT     H266327   0.544   0.565   7.915
22029WAT      O66328   0.209   9.837   0.492
22029WAT     H166329   0.243   9.743   0.493
22029WAT     H266330   0.124   9.841   0.439
22030WAT      O66331   6.733   0.359   6.801
22030WAT     H166332   6.676   0.316   6.731
22030WAT     H266333   6.829   0.345   6.780
22031WAT      O66334   3.882   8.020   9.011
22031WAT     H166335   3.851   7.928   9.034
22031WAT     H266336   3.870   8.081   9.089
22032WAT      O66337   0.156   7.149   9.375
22032WAT     H166338   0.207   7.134   9.290
22032WAT     H266339   0.142   7.247   9.388
22033WAT      O66340   7.061   8.635   4.085
22033WAT     H166341   7.076   8.536   4.077
22033WAT     H266342   7.131   8.675   4.143
22034WAT      O66343   1.496   9.090   0.628
22034WAT     H166344   1.524   9.181   0.596
22034WAT     H266345   1.571   9.049   0.680
22035WAT      O66346   0.143   7.872   1.969
22035WAT     H166347   0.048   7.899   1.949
22035WAT     H266348   0.146   7.826   2.058
22036WAT      O66349   4.020   5.247   2.827
22036WAT     H166350   3.979   5.331   2.792
22036WAT     H266351   4.054   5.262   2.919
22037WAT      O66352   0.192   0.706   4.754
22037WAT     H166353   0.184   0.784   4.691
22037WAT     H266354   0.180   0.738   4.848
22038WAT      O66355   6.046   4.007   6.873
22038WAT     H166356   6.069   4.104   6.862
22038WAT     H266357   5.958   3.989   6.831
22039WAT      O66358   9.567   9.680   7.703
22039WAT     H166359   9.472   9.652   7.717
22039WAT     H266360   9.606   9.711   7.790
22040WAT      O66361   5.600   0.805   0.610
22040WAT     H166362   5.612   0.888   0.665
22040WAT     H266363   5.686   0.754   0.609
22041WAT      O66364   3.329   9.487   5.310
22041WAT     H166365   3.411   9.542   5.298
22041WAT     H266366   3.287   9.508   5.399
22042WAT      O66367   0.909   0.633   1.057
22042WAT     H166368   0.835   0.584   1.104
22042WAT     H266369   0.975   0.567   1.020
22043WAT      O66370   6.537   3.909   3.450
22043WAT     H166371   6.550   3.810   3.450
22043WAT     H266372   6.538   3.942   3.356
22044WAT      O66373   4.744   0.040   1.624
22044WAT     H166374   4.648   0.066   1.618
22044WAT     H266375   4.753  -0.059   1.609
22045WAT      O66376   9.770   0.771   4.330
22045WAT     H166377   9.846   0.732   4.383
22045WAT     H266378   9.691   0.710   4.337
22046WAT      O66379   4.483   3.749   2.012
22046WAT     H166380   4.443   3.718   2.098
22046WAT     H266381   4.533   3.674   1.969
22047WAT      O66382   2.107   2.249   3.848
22047WAT     H166383   2.047   2.242   3.768
22047WAT     H266384   2.143   2.159   3.870
22048WAT      O66385   6.207   9.792   1.205
22048WAT     H166386   6.139   9.773   1.276
22048WAT     H266387   6.252   9.879   1.224
22049WAT      O66388   6.570   0.890   2.071
22049WAT     H166389   6.648   0.867   2.012
22049WAT     H266390   6.485   0.862   2.025
22050WAT      O66391   7.365   1.750   2.972
22050WAT     H166392   7.447   1.787   3.016
22050WAT     H266393   7.372   1.650   2.967
22051WAT      O66394   5.686   4.280   4.992
22051WAT     H166395   5.715   4.374   4.973
22051WAT     H266396   5.766   4.224   5.012
22052WAT      O66397   7.701   5.262   5.483
22052WAT     H166398   7.637   5.338   5.470
22052WAT     H266399   7.692   5.227   5.576
22053WAT      O66400   5.485   1.916   4.750
22053WAT     H166401   5.559   1.952   4.807
22053WAT     H266402   5.397   1.941   4.790
22054WAT      O66403   7.710   0.980   1.968
22054WAT     H166404   7.635   0.914   1.977
22054WAT     H266405   7.776   0.946   1.901
22055WAT      O66406   3.558   0.717   1.476
22055WAT     H166407   3.566   0.795   1.415
22055WAT     H266408   3.467   0.677   1.468
22056WAT      O66409   4.334   1.827   3.858
22056WAT     H166410   4.404   1.817   3.787
22056WAT     H266411   4.281   1.910   3.840
22057WAT      O66412   6.749   2.037   1.114
22057WAT     H166413   6.743   2.061   1.211
22057WAT     H266414   6.793   1.948   1.104
22058WAT      O66415   4.321   9.190   3.156
22058WAT     H166416   4.332   9.110   3.215
22058WAT     H266417   4.262   9.166   3.079
22059WAT      O66418   4.068   2.479   8.891
22059WAT     H166419   4.100   2.543   8.821
22059WAT     H266420   4.084   2.385   8.862
22060WAT      O66421   8.901   2.237   4.076
22060WAT     H166422   8.872   2.221   4.170
22060WAT     H266423   9.000   2.227   4.069
22061WAT      O66424   5.826   5.318   3.122
22061WAT     H166425   5.764   5.371   3.064
22061WAT     H266426   5.833   5.225   3.086
22062WAT      O66427   6.378   6.074   3.306
22062WAT     H166428   6.283   6.042   3.310
22062WAT     H266429   6.399   6.127   3.388
22063WAT      O66430   0.892   0.816   1.267
22063WAT     H166431   0.806   0.839   1.312
22063WAT     H266432   0.874   0.752   1.192
22064WAT      O66433   5.940   3.296   0.332
22064WAT     H166434   5.921   3.211   0.284
22064WAT     H266435   5.959   3.368   0.265
22065WAT      O66436   1.405   1.897   3.752
22065WAT     H166437   1.344   1.874   3.676
22065WAT     H266438   1.488   1.939   3.715
22066WAT      O66439   0.302   6.953   7.574
22066WAT     H166440   0.268   7.043   7.548
22066WAT     H266441   0.373   6.963   7.644
22067WAT      O66442   4.999   0.579   3.633
22067WAT     H166443   5.073   0.547   3.573
22067WAT     H266444   5.039   0.616   3.717
22068WAT      O66445   4.484   3.999   6.674
22068WAT     H166446   4.551   3.993   6.749
22068WAT     H266447   4.511   4.072   6.611
22069WAT      O66448   4.673   0.031   9.339
22069WAT     H166449   4.713   0.123   9.335
22069WAT     H266450   4.733  -0.034   9.293
22070WAT      O66451   9.170   7.578   9.276
22070WAT     H166452   9.173   7.480   9.297
22070WAT     H266453   9.238   7.626   9.332
22071WAT      O66454   1.760   7.194   2.106
22071WAT     H166455   1.829   7.159   2.170
22071WAT     H266456   1.672   7.151   2.125
22072WAT      O66457   8.405   9.740   7.645
22072WAT     H166458   8.491   9.790   7.646
22072WAT     H266459   8.369   9.734   7.739
22073WAT      O66460   3.855   8.405   0.154
22073WAT     H166461   3.765   8.424   0.113
22073WAT     H266462   3.914   8.485   0.143
22074WAT      O66463   3.417   8.275   4.225
22074WAT     H166464   3.333   8.280   4.279
22074WAT     H266465   3.432   8.180   4.196
22075WAT      O66466   0.395   8.358   2.332
22075WAT     H166467   0.338   8.380   2.252
22075WAT     H266468   0.419   8.261   2.329
22076WAT      O66469   1.805   7.541   2.934
22076WAT     H166470   1.734   7.607   2.960
22076WAT     H266471   1.796   7.459   2.991
22077WAT      O66472   8.464   1.773   8.533
22077WAT     H166473   8.397   1.699   8.535
22077WAT     H266474   8.454   1.826   8.449
22078WAT      O66475   0.652   5.490   9.171
22078WAT     H166476   0.716   5.414   9.155
22078WAT     H266477   0.628   5.533   9.084
22079WAT      O66478   9.804   6.639   5.860
22079WAT     H166479   9.823   6.694   5.779
22079WAT     H266480   9.747   6.691   5.924
22080WAT      O66481   9.323   3.585   3.088
22080WAT     H166482   9.343   3.591   2.990
22080WAT     H266483   9.269   3.664   3.116
22081WAT      O66484   8.092   1.170   7.375
22081WAT     H166485   8.033   1.251   7.376
22081WAT     H266486   8.187   1.199   7.360
22082WAT      O66487   8.128   6.711   2.085
22082WAT     H166488   8.124   6.709   1.985
22082WAT     H266489   8.064   6.780   2.119
22083WAT      O66490   8.724   3.368   4.459
22083WAT     H166491   8.806   3.393   4.511
22083WAT     H266492   8.719   3.423   4.376
22084WAT      O66493   4.598   5.418   3.335
22084WAT     H166494   4.680   5.412   3.393
22084WAT     H266495   4.603   5.348   3.264
22085WAT      O66496   6.481   4.588   7.189
22085WAT     H166497   6.412   4.536   7.139
22085WAT     H266498   6.486   4.681   7.152
22086WAT      O66499   2.191   4.623   3.090
22086WAT     H166500   2.263   4.688   3.115
22086WAT     H266501   2.124   4.617   3.163
22087WAT      O66502   7.943   0.289   6.772
22087WAT     H166503   7.982   0.267   6.682
22087WAT     H266504   8.016   0.288   6.841
22088WAT      O66505   7.489   6.154   1.542
22088WAT     H166506   7.538   6.132   1.458
22088WAT     H266507   7.529   6.104   1.619
22089WAT      O66508   4.786   2.618   0.140
22089WAT     H166509   4.805   2.612   0.042
22089WAT     H266510   4.706   2.563   0.162
22090WAT      O66511   7.078   7.323   2.452
22090WAT     H166512   6.979   7.336   2.455
22090WAT     H266513   7.109   7.280   2.537
22091WAT      O66514   3.944   9.490   1.719
22091WAT     H166515   3.915   9.394   1.711
22091WAT     H266516   3.873   9.549   1.679
22092WAT      O66517   5.425   0.516   5.014
22092WAT     H166518   5.409   0.556   5.104
22092WAT     H266519   5.395   0.420   5.015
22093WAT      O66520   2.409   7.977   2.213
22093WAT     H166521   2.437   7.934   2.299
22093WAT     H266522   2.484   7.972   2.147
22094WAT      O66523   4.977   3.541   2.994
22094WAT     H166524   4.895   3.492   2.966
22094WAT     H266525   5.018   3.496   3.073
22095WAT      O66526   8.234   0.210   2.757
22095WAT     H166527   8.275   0.119   2.748
22095WAT     H266528   8.286   0.275   2.702
22096WAT      O66529   6.726   2.063   8.418
22096WAT     H166530   6.700   2.134   8.483
22096WAT     H266531   6.664   2.065   8.340
22097WAT      O66532   2.806   5.379   3.643
22097WAT     H166533   2.854   5.294   3.666
22097WAT     H266534   2.813   5.394   3.544
22098WAT      O66535   5.603   6.733   2.306
22098WAT     H166536   5.691   6.740   2.257
22098WAT     H266537   5.581   6.822   2.346
22099WAT      O66538   5.704   8.231   7.105
22099WAT     H166539   5.690   8.298   7.032
22099WAT     H266540   5.638   8.156   7.095
22100WAT      O66541   5.407   8.823   3.847
22100WAT     H166542   5.379   8.910   3.889
22100WAT     H266543   5.442   8.841   3.755
22101WAT      O66544   0.244   2.579   5.215
22101WAT     H166545   0.312   2.507   5.213
22101WAT     H266546   0.275   2.656   5.159
22102WAT      O66547   8.018   3.335   8.400
22102WAT     H166548   8.001   3.369   8.493
22102WAT     H266549   7.933   3.296   8.364
22103WAT      O66550   2.399   4.776   2.107
22103WAT     H166551   2.446   4.726   2.180
22103WAT     H266552   2.314   4.814   2.143
22104WAT      O66553   3.733   6.135   7.926
22104WAT     H166554   3.785   6.179   7.999
22104WAT     H266555   3.651   6.188   7.907
22105WAT      O66556   9.510   3.443   9.525
22105WAT     H166557   9.514   3.398   9.614
22105WAT     H266558   9.602   3.463   9.493
22106WAT      O66559   7.189   7.349   5.085
22106WAT     H166560   7.248   7.278   5.124
22106WAT     H266561   7.116   7.371   5.150
22107WAT      O66562   0.625   9.184   9.395
22107WAT     H166563   0.707   9.232   9.428
22107WAT     H266564   0.639   9.157   9.300
22108WAT      O66565   5.090   2.969   7.783
22108WAT     H166566   5.014   3.024   7.816
22108WAT     H266567   5.097   2.977   7.684
22109WAT      O66568   2.008   7.526   9.765
22109WAT     H166569   2.076   7.588   9.804
22109WAT     H266570   2.010   7.532   9.665
22110WAT      O66571   7.833   8.281   1.477
22110WAT     H166572   7.809   8.223   1.398
22110WAT     H266573   7.864   8.370   1.444
22111WAT      O66574   6.589   8.649   6.002
22111WAT     H166575   6.554   8.558   5.977
22111WAT     H266576   6.648   8.683   5.929
22112WAT      O66577   7.446   6.522   3.989
22112WAT     H166578   7.364   6.576   3.975
22112WAT     H266579   7.437   6.469   4.074
22113WAT      O66580   1.309   9.234   2.860
22113WAT     H166581   1.350   9.144   2.845
22113WAT     H266582   1.336   9.295   2.786
22114WAT      O66583   6.490   1.309   2.337
22114WAT     H166584   6.414   1.370   2.317
22114WAT     H266585   6.465   1.247   2.411
22115WAT      O66586   6.992   7.591   9.393
22115WAT     H166587   7.037   7.515   9.347
22115WAT     H266588   7.026   7.599   9.487
22116WAT      O66589   8.125   0.846   2.550
22116WAT     H166590   8.085   0.863   2.459
22116WAT     H266591   8.052   0.850   2.619
22117WAT      O66592   6.305   6.467   0.713
22117WAT     H166593   6.305   6.394   0.644
22117WAT     H266594   6.344   6.550   0.674
22118WAT      O66595   7.036   2.504   2.426
22118WAT     H166596   7.061   2.595   2.457
22118WAT     H266597   7.119   2.452   2.405
22119WAT      O66598   4.408   7.011   9.583
22119WAT     H166599   4.428   6.913   9.588
22119WAT     H266600   4.362   7.031   9.497
22120WAT      O66601   9.525   6.663   4.481
22120WAT     H166602   9.433   6.678   4.516
22120WAT     H266603   9.567   6.588   4.532
22121WAT      O66604   7.569   8.521   2.170
22121WAT     H166605   7.568   8.435   2.222
22121WAT     H266606   7.643   8.579   2.203
22122WAT      O66607   2.101   4.250   1.629
22122WAT     H166608   2.051   4.221   1.548
22122WAT     H266609   2.036   4.283   1.698
22123WAT      O66610   0.476   5.568   4.264
22123WAT     H166611   0.462   5.500   4.192
22123WAT     H266612   0.461   5.660   4.227
22124WAT      O66613   6.708   7.852   9.042
22124WAT     H166614   6.651   7.772   9.061
22124WAT     H266615   6.679   7.896   8.957
22125WAT      O66616   5.022   6.997   0.544
22125WAT     H166617   4.996   7.073   0.484
22125WAT     H266618   4.940   6.954   0.580
22126WAT      O66619   6.263   5.522   0.687
22126WAT     H166620   6.163   5.529   0.687
22126WAT     H266621   6.289   5.426   0.692
22127WAT      O66622   1.681   2.033   7.523
22127WAT     H166623   1.715   1.939   7.529
22127WAT     H266624   1.743   2.094   7.573
22128WAT      O66625   4.200   6.630   8.487
22128WAT     H166626   4.111   6.673   8.472
22128WAT     H266627   4.214   6.558   8.418
22129WAT      O66628   6.569   8.524   5.231
22129WAT     H166629   6.566   8.458   5.306
22129WAT     H266630   6.617   8.606   5.262
22130WAT      O66631   3.224   8.061   7.558
22130WAT     H166632   3.185   8.079   7.648
22130WAT     H266633   3.154   8.074   7.488
22131WAT      O66634   2.311   4.661   6.007
22131WAT     H166635   2.241   4.620   5.949
22131WAT     H266636   2.295   4.760   6.012
22132WAT      O66637   0.213   0.822   6.322
22132WAT     H166638   0.304   0.854   6.347
22132WAT     H266639   0.214   0.722   6.313
22133WAT      O66640   8.195   2.652   3.968
22133WAT     H166641   8.110   2.694   3.936
22133WAT     H266642   8.228   2.700   4.049
22134WAT      O66643   2.109   8.511   0.205
22134WAT     H166644   2.185   8.446   0.199
22134WAT     H266645   2.053   8.489   0.285
22135WAT      O66646   6.481   1.531   9.118
22135WAT     H166647   6.521   1.507   9.207
22135WAT     H266648   6.529   1.610   9.080
22136WAT      O66649   4.804   8.423   2.137
22136WAT     H166650   4.777   8.361   2.063
22136WAT     H266651   4.736   8.418   2.210
22137WAT      O66652   8.778   1.609   6.696
22137WAT     H166653   8.699   1.554   6.723
22137WAT     H266654   8.760   1.705   6.717
22138WAT      O66655   4.868   4.847   5.224
22138WAT     H166656   4.870   4.936   5.269
22138WAT     H266657   4.858   4.860   5.125
22139WAT      O66658   7.786   9.062   0.333
22139WAT     H166659   7.810   9.107   0.418
22139WAT     H266660   7.687   9.069   0.318
22140WAT      O66661   6.643   9.092   0.383
22140WAT     H166662   6.622   9.161   0.313
22140WAT     H266663   6.643   9.001   0.342
22141WAT      O66664   4.533   7.035   0.380
22141WAT     H166665   4.616   7.090   0.364
22141WAT     H266666   4.470   7.087   0.439
22142WAT      O66667   4.636   7.899   5.753
22142WAT     H166668   4.735   7.889   5.739
22142WAT     H266669   4.611   7.853   5.838
22143WAT      O66670   8.605   2.782   3.527
22143WAT     H166671   8.622   2.807   3.622
22143WAT     H266672   8.679   2.722   3.495
22144WAT      O66673   9.039   4.800   4.357
22144WAT     H166674   9.123   4.757   4.390
22144WAT     H266675   8.971   4.730   4.335
22145WAT      O66676   6.727   8.297   5.340
22145WAT     H166677   6.759   8.232   5.409
22145WAT     H266678   6.792   8.299   5.264
22146WAT      O66679   8.583   3.770   0.139
22146WAT     H166680   8.626   3.707   0.204
22146WAT     H266681   8.546   3.849   0.189
22147WAT      O66682   3.378   0.611   5.207
22147WAT     H166683   3.380   0.614   5.107
22147WAT     H266684   3.461   0.653   5.243
22148WAT      O66685   6.593   7.190   5.557
22148WAT     H166686   6.508   7.174   5.607
22148WAT     H266687   6.653   7.250   5.610
22149WAT      O66688   9.731   9.591   6.895
22149WAT     H166689   9.784   9.594   6.979
22149WAT     H266690   9.665   9.667   6.895
22150WAT      O66691   3.168   8.870   5.468
22150WAT     H166692   3.228   8.917   5.403
22150WAT     H266693   3.212   8.868   5.558
22151WAT      O66694   8.964   0.525   9.004
22151WAT     H166695   8.936   0.440   8.960
22151WAT     H266696   9.055   0.514   9.043
22152WAT      O66697   7.110   7.163   9.086
22152WAT     H166698   7.036   7.102   9.114
22152WAT     H266699   7.073   7.254   9.068
22153WAT      O66700   7.337   8.990   7.743
22153WAT     H166701   7.304   8.908   7.698
22153WAT     H266702   7.279   9.068   7.718
22154WAT      O66703   8.765   9.464   6.765
22154WAT     H166704   8.753   9.454   6.864
22154WAT     H266705   8.682   9.436   6.718
22155WAT      O66706   0.820   8.561   7.277
22155WAT     H166707   0.796   8.587   7.371
22155WAT     H266708   0.768   8.617   7.213
22156WAT      O66709   6.583   0.469   1.553
22156WAT     H166710   6.679   0.476   1.525
22156WAT     H266711   6.573   0.507   1.645
22157WAT      O66712   0.698   0.676   9.508
22157WAT     H166713   0.619   0.721   9.548
22157WAT     H266714   0.738   0.734   9.438
22158WAT      O66715   2.018   7.385   2.855
22158WAT     H166716   2.002   7.311   2.790
22158WAT     H266717   1.938   7.445   2.859
22159WAT      O66718   5.952   3.286   8.740
22159WAT     H166719   5.865   3.263   8.784
22159WAT     H266720   5.973   3.219   8.670
22160WAT      O66721   9.848   7.309   7.407
22160WAT     H166722   9.920   7.374   7.381
22160WAT     H266723   9.818   7.258   7.327
22161WAT      O66724   3.550   6.347   9.437
22161WAT     H166725   3.595   6.293   9.507
22161WAT     H266726   3.459   6.374   9.469
22162WAT      O66727   5.113   0.801   5.612
22162WAT     H166728   5.015   0.797   5.631
22162WAT     H266729   5.155   0.713   5.633
22163WAT      O66730   6.280   3.116   7.361
22163WAT     H166731   6.283   3.047   7.289
22163WAT     H266732   6.206   3.180   7.343
22164WAT      O66733   1.446   6.798   8.714
22164WAT     H166734   1.430   6.785   8.617
22164WAT     H266735   1.382   6.867   8.749
22165WAT      O66736   3.001   0.620   1.521
22165WAT     H166737   2.972   0.621   1.616
22165WAT     H266738   3.061   0.698   1.503
22166WAT      O66739   4.168   1.836   0.520
22166WAT     H166740   4.095   1.905   0.522
22166WAT     H266741   4.180   1.797   0.611
22167WAT      O66742   4.694   3.244   7.153
22167WAT     H166743   4.759   3.173   7.125
22167WAT     H266744   4.676   3.305   7.076
22168WAT      O66745   7.225   6.409   9.166
22168WAT     H166746   7.141   6.400   9.220
22168WAT     H266747   7.250   6.319   9.129
22169WAT      O66748   2.494   5.127   0.575
22169WAT     H166749   2.554   5.124   0.495
22169WAT     H266750   2.488   5.221   0.608
22170WAT      O66751   5.656   8.183   6.714
22170WAT     H166752   5.675   8.091   6.748
22170WAT     H266753   5.728   8.210   6.649
22171WAT      O66754   9.493   5.121   5.812
22171WAT     H166755   9.554   5.189   5.771
22171WAT     H266756   9.521   5.104   5.907
22172WAT      O66757   9.325   5.763   4.057
22172WAT     H166758   9.282   5.680   4.022
22172WAT     H266759   9.412   5.777   4.010
22173WAT      O66760   8.671   8.901   1.650
22173WAT     H166761   8.705   8.950   1.730
22173WAT     H266762   8.688   8.803   1.660
22174WAT      O66763   8.390   9.312   8.949
22174WAT     H166764   8.409   9.214   8.957
22174WAT     H266765   8.371   9.349   9.040
22175WAT      O66766   3.986   1.160   8.155
22175WAT     H166767   4.001   1.061   8.158
22175WAT     H266768   4.042   1.204   8.225
22176WAT      O66769   5.165   7.326   4.353
22176WAT     H166770   5.229   7.300   4.425
22176WAT     H266771   5.089   7.262   4.351
22177WAT      O66772   1.957   2.794   0.925
22177WAT     H166773   1.982   2.758   1.015
22177WAT     H266774   1.893   2.870   0.936
22178WAT      O66775   5.103   7.174   4.995
22178WAT     H166776   5.184   7.125   4.961
22178WAT     H266777   5.128   7.224   5.078
22179WAT      O66778   3.719   0.013   6.168
22179WAT     H166779   3.761  -0.077   6.165
22179WAT     H266780   3.619   0.004   6.167
22180WAT      O66781   4.816   3.096   4.859
22180WAT     H166782   4.754   3.018   4.866
22180WAT     H266783   4.823   3.142   4.948
22181WAT      O66784   4.011   9.104   1.323
22181WAT     H166785   4.078   9.108   1.249
22181WAT     H266786   4.004   9.009   1.356
22182WAT      O66787   1.349   7.474   0.831
22182WAT     H166788   1.329   7.390   0.780
22182WAT     H266789   1.319   7.462   0.926
22183WAT      O66790   2.437   6.845   8.270
22183WAT     H166791   2.521   6.869   8.319
22183WAT     H266792   2.369   6.813   8.336
22184WAT      O66793   9.430   1.982   0.963
22184WAT     H166794   9.471   1.890   0.965
22184WAT     H266795   9.368   1.989   0.885
22185WAT      O66796   4.624   8.978   7.395
22185WAT     H166797   4.710   8.932   7.416
22185WAT     H266798   4.560   8.913   7.355
22186WAT      O66799   3.574   2.592   3.428
22186WAT     H166800   3.619   2.608   3.341
22186WAT     H266801   3.643   2.573   3.499
22187WAT      O66802   1.637   4.095   2.002
22187WAT     H166803   1.707   4.165   2.014
22187WAT     H266804   1.674   4.021   1.946
22188WAT      O66805   9.593   8.547   5.653
22188WAT     H166806   9.550   8.608   5.587
22188WAT     H266807   9.638   8.600   5.724
22189WAT      O66808   9.145   7.610   8.245
22189WAT     H166809   9.173   7.592   8.339
22189WAT     H266810   9.202   7.683   8.206
22190WAT      O66811   8.345   0.483   4.030
22190WAT     H166812   8.314   0.459   4.122
22190WAT     H266813   8.276   0.456   3.963
22191WAT      O66814   4.226   8.054   2.884
22191WAT     H166815   4.149   8.098   2.839
22191WAT     H266816   4.306   8.114   2.878
22192WAT      O66817   2.613   6.260   0.536
22192WAT     H166818   2.673   6.237   0.612
22192WAT     H266819   2.668   6.285   0.456
22193WAT      O66820   4.107   2.351   3.746
22193WAT     H166821   4.033   2.287   3.725
22193WAT     H266822   4.140   2.335   3.839
22194WAT      O66823   5.595   0.344   3.618
22194WAT     H166824   5.513   0.303   3.658
22194WAT     H266825   5.667   0.275   3.612
22195WAT      O66826   0.440   0.170   9.841
22195WAT     H166827   0.486   0.242   9.893
22195WAT     H266828   0.346   0.197   9.823
22196WAT      O66829   2.589   1.671   1.967
22196WAT     H166830   2.527   1.605   1.925
22196WAT     H266831   2.665   1.623   2.011
22197WAT      O66832   5.016   7.659   6.429
22197WAT     H166833   4.983   7.718   6.503
22197WAT     H266834   4.937   7.618   6.382
22198WAT      O66835   4.328   5.232   3.602
22198WAT     H166836   4.411   5.259   3.649
22198WAT     H266837   4.352   5.197   3.511
22199WAT      O66838   1.979   0.200   7.792
22199WAT     H166839   1.991   0.191   7.891
22199WAT     H266840   1.947   0.112   7.755
22200WAT      O66841   2.242   2.023   3.918
22200WAT     H166842   2.335   2.023   3.883
22200WAT     H266843   2.191   1.947   3.879
22201WAT      O66844   7.586   7.627   8.176
22201WAT     H166845   7.622   7.576   8.098
22201WAT     H266846   7.525   7.700   8.142
22202WAT      O66847   1.706   9.817   5.594
22202WAT     H166848   1.789   9.852   5.551
22202WAT     H266849   1.689   9.724   5.562
22203WAT      O66850   1.376   1.414   9.478
22203WAT     H166851   1.321   1.494   9.455
22203WAT     H266852   1.441   1.395   9.405
22204WAT      O66853   8.377   0.168   7.793
22204WAT     H166854   8.395   0.104   7.719
22204WAT     H266855   8.294   0.220   7.773
22205WAT      O66856   3.737   7.381   5.901
22205WAT     H166857   3.767   7.302   5.847
22205WAT     H266858   3.663   7.428   5.852
22206WAT      O66859   0.958   8.781   4.388
22206WAT     H166860   0.946   8.872   4.428
22206WAT     H266861   0.873   8.729   4.397
22207WAT      O66862   7.900   0.670   0.418
22207WAT     H166863   7.981   0.617   0.444
22207WAT     H266864   7.835   0.668   0.494
22208WAT      O66865   5.297   2.694   0.511
22208WAT     H166866   5.351   2.778   0.503
22208WAT     H266867   5.293   2.666   0.607
22209WAT      O66868   6.941   6.117   9.720
22209WAT     H166869   6.981   6.029   9.747
22209WAT     H266870   6.979   6.190   9.776
22210WAT      O66871   9.368   5.676   7.498
22210WAT     H166872   9.416   5.589   7.493
22210WAT     H266873   9.433   5.751   7.495
22211WAT      O66874   6.368   5.014   5.650
22211WAT     H166875   6.401   5.065   5.730
22211WAT     H266876   6.291   5.062   5.610
22212WAT      O66877   6.015   9.360   0.850
22212WAT     H166878   5.941   9.402   0.799
22212WAT     H266879   5.982   9.276   0.894
22213WAT      O66880   0.301   3.338   2.150
22213WAT     H166881   0.332   3.420   2.199
22213WAT     H266882   0.246   3.367   2.071
22214WAT      O66883   7.535   5.941   6.062
22214WAT     H166884   7.458   5.877   6.055
22214WAT     H266885   7.574   5.935   6.153
22215WAT      O66886   2.039   6.521   6.779
22215WAT     H166887   2.072   6.446   6.723
22215WAT     H266888   1.946   6.500   6.811
22216WAT      O66889   1.566   2.363   7.669
22216WAT     H166890   1.521   2.293   7.614
22216WAT     H266891   1.637   2.322   7.725
22217WAT      O66892   3.950   1.947   8.832
22217WAT     H166893   3.893   1.894   8.769
22217WAT     H266894   3.948   1.905   8.922
22218WAT      O66895   1.855   1.655   4.905
22218WAT     H166896   1.939   1.709   4.914
22218WAT     H266897   1.878   1.559   4.894
22219WAT      O66898   0.427   4.348   0.863
22219WAT     H166899   0.458   4.330   0.770
22219WAT     H266900   0.485   4.418   0.905
22220WAT      O66901   6.581   5.155   7.645
22220WAT     H166902   6.598   5.230   7.580
22220WAT     H266903   6.662   5.143   7.703
22221WAT      O66904   4.273   7.800   6.996
22221WAT     H166905   4.180   7.771   7.019
22221WAT     H266906   4.314   7.733   6.935
22222WAT      O66907   5.428   2.379   6.572
22222WAT     H166908   5.416   2.475   6.598
22222WAT     H266909   5.449   2.324   6.653
22223WAT      O66910   9.244   0.179   9.561
22223WAT     H166911   9.297   0.240   9.502
22223WAT     H266912   9.166   0.144   9.509
22224WAT      O66913   1.768   9.648   9.510
22224WAT     H166914   1.830   9.715   9.552
22224WAT     H266915   1.821   9.572   9.473
22225WAT      O66916   4.273   8.662   0.055
22225WAT     H166917   4.288   8.759   0.077
22225WAT     H266918   4.307   8.643  -0.037
22226WAT      O66919   2.878   7.815   3.049
22226WAT     H166920   2.779   7.808   3.037
22226WAT     H266921   2.903   7.910   3.068
22227WAT      O66922   8.828   7.536   2.549
22227WAT     H166923   8.777   7.504   2.629
22227WAT     H266924   8.764   7.560   2.476
22228WAT      O66925   1.580   2.757   4.986
22228WAT     H166926   1.670   2.753   4.941
22228WAT     H266927   1.590   2.729   5.081
22229WAT      O66928   3.897   9.061   2.569
22229WAT     H166929   3.938   9.058   2.660
22229WAT     H266930   3.959   9.106   2.506
22230WAT      O66931   5.561   1.599   0.118
22230WAT     H166932   5.634   1.558   0.064
22230WAT     H266933   5.476   1.599   0.065
22231WAT      O66934   1.469   4.737   0.170
22231WAT     H166935   1.487   4.646   0.132
22231WAT     H266936   1.551   4.770   0.216
22232WAT      O66937   2.209   1.432   8.890
22232WAT     H166938   2.269   1.354   8.903
22232WAT     H266939   2.139   1.409   8.822
22233WAT      O66940   7.268   7.679   8.703
22233WAT     H166941   7.251   7.772   8.671
22233WAT     H266942   7.346   7.641   8.652
22234WAT      O66943   2.256   9.198   4.053
22234WAT     H166944   2.257   9.101   4.077
22234WAT     H266945   2.167   9.237   4.074
22235WAT      O66946   8.920   7.835   1.552
22235WAT     H166947   8.947   7.882   1.636
22235WAT     H266948   8.841   7.776   1.571
22236WAT      O66949   7.184   1.105   3.231
22236WAT     H166950   7.152   1.011   3.244
22236WAT     H266951   7.240   1.132   3.310
22237WAT      O66952   9.617   7.415   1.678
22237WAT     H166953   9.657   7.373   1.760
22237WAT     H266954   9.607   7.345   1.607
22238WAT      O66955   7.580   1.594   5.771
22238WAT     H166956   7.508   1.662   5.757
22238WAT     H266957   7.669   1.639   5.775
22239WAT      O66958   4.698   3.164   2.956
22239WAT     H166959   4.656   3.109   3.028
22239WAT     H266960   4.708   3.109   2.873
22240WAT      O66961   9.840   9.125   1.060
22240WAT     H166962   9.870   9.109   0.966
22240WAT     H266963   9.822   9.222   1.073
22241WAT      O66964   9.552   2.975   1.137
22241WAT     H166965   9.611   2.960   1.217
22241WAT     H266966   9.476   3.035   1.161
22242WAT      O66967   8.890   2.485   7.400
22242WAT     H166968   8.857   2.425   7.327
22242WAT     H266969   8.988   2.503   7.385
22243WAT      O66970   4.899   7.360   3.919
22243WAT     H166971   4.921   7.411   4.002
22243WAT     H266972   4.970   7.374   3.851
22244WAT      O66973   7.584   3.292   1.800
22244WAT     H166974   7.663   3.232   1.798
22244WAT     H266975   7.613   3.385   1.820
22245WAT      O66976   2.401   5.671   5.815
22245WAT     H166977   2.380   5.685   5.912
22245WAT     H266978   2.500   5.671   5.803
22246WAT      O66979   1.052   0.936   1.739
22246WAT     H166980   0.986   0.904   1.807
22246WAT     H266981   1.024   0.906   1.648
22247WAT      O66982   2.973   8.747   6.663
22247WAT     H166983   3.020   8.835   6.667
22247WAT     H266984   2.986   8.698   6.749
22248WAT      O66985   3.555   5.014   3.330
22248WAT     H166986   3.457   4.999   3.317
22248WAT     H266987   3.594   4.935   3.378
22249WAT      O66988   0.300   0.766   1.848
22249WAT     H166989   0.330   0.853   1.808
22249WAT     H266990   0.376   0.701   1.847
22250WAT      O66991   3.215   8.503   8.135
22250WAT     H166992   3.249   8.563   8.063
22250WAT     H266993   3.285   8.434   8.155
22251WAT      O66994   2.557   5.673   7.377
22251WAT     H166995   2.641   5.655   7.327
22251WAT     H266996   2.512   5.755   7.340
22252WAT      O66997   4.956   7.799   4.032
22252WAT     H166998   4.961   7.757   3.942
22252WAT     H266999   4.930   7.731   4.100
22253WAT      O67000   8.546   0.235   5.433
22253WAT     H167001   8.550   0.162   5.501
22253WAT     H267002   8.534   0.195   5.342
22254WAT      O67003   2.884   9.022   7.000
22254WAT     H167004   2.930   8.941   7.036
22254WAT     H267005   2.796   8.996   6.962
22255WAT      O67006   7.169   7.445   5.927
22255WAT     H167007   7.164   7.376   5.855
22255WAT     H267008   7.126   7.529   5.896
22256WAT      O67009   9.791   9.779   3.997
22256WAT     H167010   9.830   9.715   3.931
22256WAT     H267011   9.836   9.868   3.989
22257WAT      O67012   4.665   2.897   4.113
22257WAT     H167013   4.585   2.871   4.168
22257WAT     H267014   4.703   2.815   4.070
22258WAT      O67015   9.801   6.345   5.834
22258WAT     H167016   9.805   6.445   5.830
22258WAT     H267017   9.865   6.306   5.769
22259WAT      O67018   0.972   6.764   4.396
22259WAT     H167019   1.052   6.705   4.380
22259WAT     H267020   0.903   6.746   4.327
22260WAT      O67021   2.853   8.523   0.038
22260WAT     H167022   2.765   8.506   0.083
22260WAT     H267023   2.914   8.446   0.056
22261WAT      O67024   1.240   3.641   6.076
22261WAT     H167025   1.151   3.598   6.088
22261WAT     H267026   1.238   3.733   6.114
22262WAT      O67027   7.688   5.583   5.306
22262WAT     H167028   7.741   5.556   5.225
22262WAT     H267029   7.622   5.511   5.328
22263WAT      O67030   7.807   0.298   8.873
22263WAT     H167031   7.709   0.282   8.877
22263WAT     H267032   7.856   0.211   8.883
22264WAT      O67033   5.451   6.361   6.445
22264WAT     H167034   5.441   6.458   6.425
22264WAT     H267035   5.457   6.347   6.544
22265WAT      O67036   0.245   5.684   7.348
22265WAT     H167037   0.223   5.683   7.446
22265WAT     H267038   0.169   5.646   7.296
22266WAT      O67039   7.253   7.964   8.647
22266WAT     H167040   7.327   8.027   8.670
22266WAT     H267041   7.206   7.996   8.564
22267WAT      O67042   8.888   4.426   1.919
22267WAT     H167043   8.848   4.468   2.000
22267WAT     H267044   8.849   4.334   1.906
22268WAT      O67045   9.882   7.755   5.647
22268WAT     H167046   9.923   7.673   5.687
22268WAT     H267047   9.866   7.739   5.549
22269WAT      O67048   3.351   8.403   3.718
22269WAT     H167049   3.384   8.389   3.811
22269WAT     H267050   3.428   8.417   3.657
22270WAT      O67051   2.945   8.562   6.325
22270WAT     H167052   3.031   8.613   6.336
22270WAT     H267053   2.868   8.622   6.344
22271WAT      O67054   0.448   3.143   0.659
22271WAT     H167055   0.414   3.051   0.677
22271WAT     H267056   0.548   3.140   0.650
22272WAT      O67057   1.815   6.390   8.201
22272WAT     H167058   1.838   6.293   8.206
22272WAT     H267059   1.899   6.443   8.187
22273WAT      O67060   1.372   6.639   1.868
22273WAT     H167061   1.462   6.643   1.910
22273WAT     H267062   1.376   6.679   1.776
22274WAT      O67063   8.543   9.805   3.401
22274WAT     H167064   8.634   9.806   3.361
22274WAT     H267065   8.510   9.711   3.406
22275WAT      O67066   7.309   4.023   9.258
22275WAT     H167067   7.360   3.937   9.266
22275WAT     H267068   7.236   4.013   9.191
22276WAT      O67069   0.248   3.592   5.770
22276WAT     H167070   0.246   3.670   5.708
22276WAT     H267071   0.307   3.612   5.848
22277WAT      O67072   5.729   8.984   2.577
22277WAT     H167073   5.807   8.923   2.590
22277WAT     H267074   5.716   9.001   2.480
22278WAT      O67075   1.679   5.714   5.640
22278WAT     H167076   1.692   5.810   5.612
22278WAT     H267077   1.605   5.709   5.707
22279WAT      O67078   6.998   5.623   1.911
22279WAT     H167079   7.083   5.676   1.902
22279WAT     H267080   6.991   5.559   1.835
22280WAT      O67081   6.910   5.997   8.089
22280WAT     H167082   6.882   6.087   8.122
22280WAT     H267083   6.899   5.992   7.990
22281WAT      O67084   0.028   8.368   9.460
22281WAT     H167085   0.007   8.315   9.378
22281WAT     H267086  -0.047   8.430   9.480
22282WAT      O67087   8.996   4.614   6.869
22282WAT     H167088   9.013   4.695   6.926
22282WAT     H267089   8.906   4.577   6.889
22283WAT      O67090   9.806   8.639   4.463
22283WAT     H167091   9.738   8.712   4.466
22283WAT     H267092   9.892   8.675   4.425
22284WAT      O67093   8.505   0.475   5.592
22284WAT     H167094   8.515   0.401   5.526
22284WAT     H267095   8.585   0.478   5.652
22285WAT      O67096   0.343   4.420   5.234
22285WAT     H167097   0.428   4.429   5.286
22285WAT     H267098   0.274   4.376   5.292
22286WAT      O67099   9.002   0.014   6.747
22286WAT     H167100   8.998   0.112   6.728
22286WAT     H267101   9.092  -0.008   6.785
22287WAT      O67102   6.832   6.966   8.569
22287WAT     H167103   6.810   6.915   8.652
22287WAT     H267104   6.854   7.061   8.593
22288WAT      O67105   9.737   5.692   2.406
22288WAT     H167106   9.794   5.772   2.422
22288WAT     H267107   9.702   5.693   2.313
22289WAT      O67108   3.096   6.953   8.413
22289WAT     H167109   3.158   6.999   8.349
22289WAT     H267110   3.148   6.916   8.489
22290WAT      O67111   7.448   9.601   3.300
22290WAT     H167112   7.397   9.534   3.354
22290WAT     H267113   7.509   9.654   3.359
22291WAT      O67114   9.207   2.058   7.925
22291WAT     H167115   9.290   2.034   7.874
22291WAT     H267116   9.131   2.068   7.862
22292WAT      O67117   1.735   0.417   3.743
22292WAT     H167118   1.802   0.488   3.765
22292WAT     H267119   1.779   0.327   3.749
22293WAT      O67120   7.223   8.782   4.823
22293WAT     H167121   7.314   8.763   4.786
22293WAT     H267122   7.161   8.807   4.749
22294WAT      O67123   2.091   8.751   1.596
22294WAT     H167124   2.013   8.747   1.659
22294WAT     H267125   2.083   8.833   1.539
22295WAT      O67126   2.257   3.284   1.965
22295WAT     H167127   2.196   3.299   1.888
22295WAT     H267128   2.204   3.275   2.049
22296WAT      O67129   2.706   0.097   4.612
22296WAT     H167130   2.771   0.037   4.564
22296WAT     H267131   2.699   0.068   4.707
22297WAT      O67132   9.701   2.728   4.337
22297WAT     H167133   9.704   2.798   4.409
22297WAT     H267134   9.792   2.687   4.328
22298WAT      O67135   4.373   5.558   7.289
22298WAT     H167136   4.444   5.493   7.316
22298WAT     H267137   4.295   5.550   7.352
22299WAT      O67138   3.247   3.664   1.839
22299WAT     H167139   3.196   3.675   1.924
22299WAT     H267140   3.343   3.644   1.860
22300WAT      O67141   3.993   1.169   1.958
22300WAT     H167142   4.069   1.233   1.962
22300WAT     H267143   3.989   1.128   1.867
22301WAT      O67144   6.334   2.604   9.762
22301WAT     H167145   6.297   2.564   9.678
22301WAT     H267146   6.357   2.700   9.745
22302WAT      O67147   6.900   4.923   5.564
22302WAT     H167148   6.903   4.963   5.656
22302WAT     H267149   6.928   4.827   5.569
22303WAT      O67150   3.461   0.897   3.744
22303WAT     H167151   3.498   0.805   3.759
22303WAT     H267152   3.505   0.962   3.805
22304WAT      O67153   9.084   7.196   1.065
22304WAT     H167154   9.171   7.233   1.031
22304WAT     H267155   9.037   7.148   0.991
22305WAT      O67156   9.532   7.060   2.197
22305WAT     H167157   9.557   6.964   2.183
22305WAT     H267158   9.496   7.098   2.111
22306WAT      O67159   4.196   1.471   6.915
22306WAT     H167160   4.263   1.515   6.856
22306WAT     H267161   4.181   1.377   6.884
22307WAT      O67162   9.589   7.294   1.433
22307WAT     H167163   9.509   7.290   1.374
22307WAT     H267164   9.642   7.376   1.412
22308WAT      O67165   5.476   7.634   7.820
22308WAT     H167166   5.519   7.551   7.783
22308WAT     H267167   5.511   7.714   7.771
22309WAT      O67168   0.921   6.226   3.738
22309WAT     H167169   0.942   6.132   3.767
22309WAT     H267170   0.828   6.249   3.765
22310WAT      O67171   4.872   6.821   4.734
22310WAT     H167172   4.834   6.826   4.641
22310WAT     H267173   4.925   6.903   4.753
22311WAT      O67174   9.420   6.112   9.449
22311WAT     H167175   9.494   6.108   9.516
22311WAT     H267176   9.332   6.116   9.497
22312WAT      O67177   8.020   1.139   9.166
22312WAT     H167178   8.058   1.148   9.258
22312WAT     H267179   8.087   1.093   9.107
22313WAT      O67180   9.657   2.862   2.206
22313WAT     H167181   9.574   2.809   2.218
22313WAT     H267182   9.736   2.801   2.200
22314WAT      O67183   8.310   2.839   7.993
22314WAT     H167184   8.215   2.810   8.002
22314WAT     H267185   8.355   2.831   8.082
22315WAT      O67186   5.636   8.092   9.168
22315WAT     H167187   5.567   8.022   9.189
22315WAT     H267188   5.684   8.067   9.084
22316WAT      O67189   0.030   2.496   2.662
22316WAT     H167190  -0.034   2.437   2.613
22316WAT     H267191   0.123   2.481   2.627
22317WAT      O67192   5.348   5.564   6.371
22317WAT     H167193   5.429   5.623   6.364
22317WAT     H267194   5.372   5.481   6.420
22318WAT      O67195   1.267   0.834   3.185
22318WAT     H167196   1.309   0.782   3.110
22318WAT     H267197   1.322   0.914   3.205
22319WAT      O67198   8.855   8.783   1.245
22319WAT     H167199   8.891   8.693   1.268
22319WAT     H267200   8.928   8.839   1.205
22320WAT      O67201   8.082   0.928   0.024
22320WAT     H167202   8.025   0.988   0.080
22320WAT     H267203   8.030   0.899  -0.057
22321WAT      O67204   1.701   1.862   8.726
22321WAT     H167205   1.776   1.926   8.711
22321WAT     H267206   1.621   1.891   8.673
22322WAT      O67207   6.660   6.516   5.945
22322WAT     H167208   6.584   6.485   6.001
22322WAT     H267209   6.675   6.451   5.871
22323WAT      O67210   3.369   8.471   3.346
22323WAT     H167211   3.433   8.430   3.410
22323WAT     H267212   3.410   8.475   3.255
22324WAT      O67213   1.058   4.101   1.411
22324WAT     H167214   1.021   4.164   1.479
22324WAT     H267215   1.078   4.150   1.327
22325WAT      O67216   0.688   3.497   9.019
22325WAT     H167217   0.690   3.474   8.922
22325WAT     H267218   0.654   3.590   9.031
22326WAT      O67219   0.150   0.998   5.737
22326WAT     H167220   0.198   0.939   5.802
22326WAT     H267221   0.215   1.034   5.671
22327WAT      O67222   6.138   2.466  -0.004
22327WAT     H167223   6.143   2.433   0.090
22327WAT     H267224   6.214   2.529  -0.021
22328WAT      O67225   6.102   3.044   3.332
22328WAT     H167226   6.019   3.075   3.379
22328WAT     H267227   6.079   2.969   3.271
22329WAT      O67228   3.052   7.290   7.631
22329WAT     H167229   3.114   7.365   7.607
22329WAT     H267230   3.030   7.296   7.728
22330WAT      O67231   3.860   6.991   7.329
22330WAT     H167232   3.872   6.892   7.327
22330WAT     H267233   3.764   7.014   7.309
22331WAT      O67234   7.798   5.989   3.353
22331WAT     H167235   7.742   6.036   3.285
22331WAT     H267236   7.824   5.899   3.319
22332WAT      O67237   1.220   1.981   2.602
22332WAT     H167238   1.317   1.994   2.580
22332WAT     H267239   1.189   2.054   2.662
22333WAT      O67240   5.897   3.781   4.484
22333WAT     H167241   5.967   3.710   4.483
22333WAT     H267242   5.811   3.744   4.520
22334WAT      O67243   3.326   7.362   1.595
22334WAT     H167244   3.341   7.283   1.536
22334WAT     H267245   3.290   7.438   1.541
22335WAT      O67246   8.563   0.655   8.770
22335WAT     H167247   8.525   0.738   8.729
22335WAT     H267248   8.620   0.680   8.849
22336WAT      O67249   8.811   0.714   5.249
22336WAT     H167250   8.748   0.672   5.183
22336WAT     H267251   8.903   0.677   5.237
22337WAT      O67252   0.919   1.177   6.651
22337WAT     H167253   0.852   1.247   6.674
22337WAT     H267254   0.896   1.092   6.698
22338WAT      O67255   7.586   6.865   6.659
22338WAT     H167256   7.666   6.846   6.717
22338WAT     H267257   7.596   6.956   6.618
22339WAT      O67258   6.422   1.247   7.868
22339WAT     H167259   6.473   1.314   7.815
22339WAT     H267260   6.451   1.155   7.842
22340WAT      O67261   1.691   7.707   4.119
22340WAT     H167262   1.600   7.727   4.082
22340WAT     H267263   1.736   7.792   4.143
22341WAT      O67264   4.414   1.468   5.361
22341WAT     H167265   4.343   1.426   5.417
22341WAT     H267266   4.385   1.560   5.334
22342WAT      O67267   3.344   5.746   2.886
22342WAT     H167268   3.413   5.680   2.913
22342WAT     H267269   3.287   5.708   2.814
22343WAT      O67270   9.481   2.754   0.982
22343WAT     H167271   9.560   2.695   0.966
22343WAT     H267272   9.512   2.841   1.021
22344WAT      O67273   1.912   1.177   1.412
22344WAT     H167274   1.979   1.243   1.445
22344WAT     H267275   1.954   1.087   1.403
22345WAT      O67276   0.616   5.446   2.095
22345WAT     H167277   0.698   5.485   2.136
22345WAT     H267278   0.574   5.382   2.159
22346WAT      O67279   4.023   7.012   1.006
22346WAT     H167280   3.929   7.033   1.031
22346WAT     H267281   4.081   7.092   1.024
22347WAT      O67282   2.996   4.356   9.075
22347WAT     H167283   3.068   4.363   9.143
22347WAT     H267284   3.019   4.283   9.010
22348WAT      O67285   5.999   8.532   1.497
22348WAT     H167286   5.921   8.501   1.441
22348WAT     H267287   5.992   8.630   1.514
22349WAT      O67288   3.280   9.016   2.062
22349WAT     H167289   3.235   9.105   2.064
22349WAT     H267290   3.285   8.979   2.154
22350WAT      O67291   6.176   0.197   2.290
22350WAT     H167292   6.141   0.152   2.208
22350WAT     H267293   6.100   0.233   2.344
22351WAT      O67294   4.792   2.342   9.866
22351WAT     H167295   4.877   2.341   9.919
22351WAT     H267296   4.809   2.301   9.776
22352WAT      O67297   8.271   6.491   0.100
22352WAT     H167298   8.235   6.398   0.114
22352WAT     H267299   8.271   6.512   0.002
22353WAT      O67300   3.554   0.189   8.578
22353WAT     H167301   3.586   0.136   8.656
22353WAT     H267302   3.631   0.237   8.536
22354WAT      O67303   8.086   8.249   8.584
22354WAT     H167304   8.068   8.157   8.550
22354WAT     H267305   8.095   8.312   8.507
22355WAT      O67306   0.203   5.805   5.738
22355WAT     H167307   0.146   5.726   5.716
22355WAT     H267308   0.156   5.862   5.805
22356WAT      O67309   3.238   8.244   2.791
22356WAT     H167310   3.209   8.301   2.714
22356WAT     H267311   3.301   8.173   2.758
22357WAT      O67312   8.230   0.336   4.260
22357WAT     H167313   8.242   0.303   4.354
22357WAT     H267314   8.211   0.258   4.200
22358WAT      O67315   3.274   0.854   7.555
22358WAT     H167316   3.229   0.896   7.634
22358WAT     H267317   3.206   0.804   7.501
22359WAT      O67318   5.703   8.099   1.798
22359WAT     H167319   5.640   8.030   1.762
22359WAT     H267320   5.676   8.124   1.891
22360WAT      O67321   2.428   4.997   2.956
22360WAT     H167322   2.484   4.924   2.918
22360WAT     H267323   2.400   5.060   2.883
22361WAT      O67324   1.626   6.513   2.447
22361WAT     H167325   1.613   6.612   2.452
22361WAT     H267326   1.724   6.492   2.440
22362WAT      O67327   0.195   8.652   8.196
22362WAT     H167328   0.196   8.553   8.184
22362WAT     H267329   0.102   8.683   8.216
22363WAT      O67330   0.797   5.079   0.890
22363WAT     H167331   0.765   5.149   0.954
22363WAT     H267332   0.735   5.000   0.893
22364WAT      O67333   0.268   6.127   2.641
22364WAT     H167334   0.209   6.185   2.696
22364WAT     H267335   0.265   6.033   2.675
22365WAT      O67336   5.812   6.289   1.291
22365WAT     H167337   5.759   6.306   1.208
22365WAT     H267338   5.752   6.257   1.363
22366WAT      O67339   8.228   8.839   8.270
22366WAT     H167340   8.282   8.807   8.348
22366WAT     H267341   8.174   8.763   8.234
22367WAT      O67342   8.242   9.661   9.234
22367WAT     H167343   8.278   9.717   9.160
22367WAT     H267344   8.289   9.685   9.320
22368WAT      O67345   0.631   5.960   8.172
22368WAT     H167346   0.575   6.012   8.107
22368WAT     H267347   0.573   5.931   8.248
22369WAT      O67348   4.722   5.061   1.535
22369WAT     H167349   4.762   5.118   1.606
22369WAT     H267350   4.625   5.046   1.554
22370WAT      O67351   7.807   0.919   4.059
22370WAT     H167352   7.828   0.828   4.096
22370WAT     H267353   7.815   0.916   3.959
22371WAT      O67354   6.545   3.095   9.743
22371WAT     H167355   6.611   3.060   9.676
22371WAT     H267356   6.571   3.064   9.834
22372WAT      O67357   7.320   6.250   0.148
22372WAT     H167358   7.297   6.199   0.230
22372WAT     H267359   7.292   6.345   0.157
22373WAT      O67360   4.651   5.040   8.406
22373WAT     H167361   4.556   5.038   8.374
22373WAT     H267362   4.709   5.080   8.335
22374WAT      O67363   9.013   4.106   3.059
22374WAT     H167364   9.044   4.019   3.096
22374WAT     H267365   9.085   4.175   3.068
22375WAT      O67366   5.752   9.078   5.336
22375WAT     H167367   5.705   9.098   5.251
22375WAT     H267368   5.779   8.981   5.337
22376WAT      O67369   8.204   8.242   0.873
22376WAT     H167370   8.174   8.195   0.957
22376WAT     H267371   8.232   8.335   0.896
22377WAT      O67372   8.176   0.124   0.421
22377WAT     H167373   8.147   0.032   0.396
22377WAT     H267374   8.141   0.147   0.512
22378WAT      O67375   4.260   0.661   1.104
22378WAT     H167376   4.351   0.688   1.074
22378WAT     H267377   4.191   0.710   1.050
22379WAT      O67378   5.486   7.118   0.696
22379WAT     H167379   5.442   7.054   0.633
22379WAT     H267380   5.423   7.139   0.771
22380WAT      O67381   4.759   9.340   8.055
22380WAT     H167382   4.673   9.361   8.103
22380WAT     H267383   4.804   9.264   8.101
22381WAT      O67384   1.219   4.082   4.387
22381WAT     H167385   1.201   4.180   4.389
22381WAT     H267386   1.291   4.063   4.320
22382WAT      O67387   3.114   7.679   8.834
22382WAT     H167388   3.151   7.658   8.743
22382WAT     H267389   3.061   7.763   8.830
22383WAT      O67390   2.916   4.794   8.443
22383WAT     H167391   2.908   4.724   8.372
22383WAT     H267392   2.944   4.752   8.529
22384WAT      O67393   7.861   8.718   6.023
22384WAT     H167394   7.940   8.662   5.996
22384WAT     H267395   7.782   8.692   5.967
22385WAT      O67396   3.847   2.779   5.775
22385WAT     H167397   3.859   2.715   5.851
22385WAT     H267398   3.827   2.728   5.691
22386WAT      O67399   3.719   7.805   0.941
22386WAT     H167400   3.676   7.895   0.934
22386WAT     H267401   3.649   7.734   0.940
22387WAT      O67402   2.763   0.195   2.536
22387WAT     H167403   2.726   0.259   2.468
22387WAT     H267404   2.801   0.247   2.613
22388WAT      O67405   2.595   2.850   9.667
22388WAT     H167406   2.582   2.948   9.651
22388WAT     H267407   2.506   2.806   9.679
22389WAT      O67408   8.655   9.718   4.118
22389WAT     H167409   8.638   9.734   4.020
22389WAT     H267410   8.716   9.639   4.128
22390WAT      O67411   3.983   8.177   8.813
22390WAT     H167412   3.978   8.274   8.837
22390WAT     H267413   3.951   8.123   8.891
22391WAT      O67414   8.659   6.315   6.915
22391WAT     H167415   8.584   6.321   6.850
22391WAT     H267416   8.737   6.268   6.873
22392WAT      O67417   3.405   5.935   6.681
22392WAT     H167418   3.375   5.950   6.775
22392WAT     H267419   3.357   5.999   6.620
22393WAT      O67420   9.604   6.978   7.092
22393WAT     H167421   9.616   6.944   7.185
22393WAT     H267422   9.538   7.053   7.092
22394WAT      O67423   0.673   7.902   5.607
22394WAT     H167424   0.756   7.923   5.659
22394WAT     H267425   0.680   7.942   5.516
22395WAT      O67426   2.881   4.506   3.634
22395WAT     H167427   2.875   4.424   3.577
22395WAT     H267428   2.923   4.580   3.581
22396WAT      O67429   6.658   6.942   3.047
22396WAT     H167430   6.585   6.968   2.984
22396WAT     H267431   6.728   6.890   2.997
22397WAT      O67432   6.622   5.881   9.491
22397WAT     H167433   6.653   5.839   9.406
22397WAT     H267434   6.665   5.835   9.569
22398WAT      O67435   0.354   7.640   3.684
22398WAT     H167436   0.268   7.685   3.659
22398WAT     H267437   0.340   7.541   3.685
22399WAT      O67438   5.916   2.909   7.968
22399WAT     H167439   5.857   2.828   7.975
22399WAT     H267440   6.011   2.880   7.960
22400WAT      O67441   0.949   7.480   0.597
22400WAT     H167442   0.858   7.449   0.569
22400WAT     H267443   1.018   7.431   0.544
22401WAT      O67444   4.506   9.221   5.178
22401WAT     H167445   4.527   9.244   5.273
22401WAT     H267446   4.455   9.136   5.174
22402WAT      O67447   6.104   1.884   4.839
22402WAT     H167448   6.102   1.983   4.856
22402WAT     H267449   6.183   1.843   4.885
22403WAT      O67450   9.516   9.793   4.043
22403WAT     H167451   9.477   9.883   4.064
22403WAT     H267452   9.616   9.800   4.040
22404WAT      O67453   2.921   8.253   9.266
22404WAT     H167454   3.014   8.257   9.305
22404WAT     H267455   2.859   8.216   9.335
22405WAT      O67456   3.812   7.880   1.737
22405WAT     H167457   3.823   7.931   1.822
22405WAT     H267458   3.793   7.944   1.662
22406WAT      O67459   3.548   9.394   9.279
22406WAT     H167460   3.496   9.386   9.194
22406WAT     H267461   3.634   9.344   9.271
22407WAT      O67462   8.385   5.560   6.049
22407WAT     H167463   8.389   5.642   6.107
22407WAT     H267464   8.477   5.538   6.018
22408WAT      O67465   9.456   1.372   5.541
22408WAT     H167466   9.475   1.282   5.501
22408WAT     H267467   9.422   1.434   5.470
22409WAT      O67468   6.130   3.469   3.269
22409WAT     H167469   6.130   3.551   3.212
22409WAT     H267470   6.090   3.392   3.218
22410WAT      O67471   8.536   8.029   8.816
22410WAT     H167472   8.462   7.985   8.767
22410WAT     H267473   8.501   8.071   8.900
22411WAT      O67474   7.158   3.897   6.800
22411WAT     H167475   7.202   3.830   6.741
22411WAT     H267476   7.212   3.910   6.883
22412WAT      O67477   5.949   0.322   5.846
22412WAT     H167478   6.029   0.262   5.836
22412WAT     H267479   5.896   0.293   5.925
22413WAT      O67480   1.554   4.080   2.740
22413WAT     H167481   1.579   4.000   2.685
22413WAT     H267482   1.489   4.136   2.689
22414WAT      O67483   2.556   1.313   1.354
22414WAT     H167484   2.568   1.406   1.319
22414WAT     H267485   2.639   1.286   1.404
22415WAT      O67486   4.566   9.109   4.479
22415WAT     H167487   4.493   9.137   4.416
22415WAT     H267488   4.575   9.176   4.552
22416WAT      O67489   3.265   6.431   8.478
22416WAT     H167490   3.326   6.360   8.445
22416WAT     H267491   3.178   6.425   8.430
22417WAT      O67492   9.122   5.780   8.139
22417WAT     H167493   9.061   5.772   8.060
22417WAT     H267494   9.191   5.850   8.120
22418WAT      O67495   7.246   4.671   3.488
22418WAT     H167496   7.178   4.603   3.458
22418WAT     H267497   7.241   4.681   3.587
22419WAT      O67498   1.291   3.122   6.340
22419WAT     H167499   1.284   3.193   6.409
22419WAT     H267500   1.242   3.040   6.371
22420WAT      O67501   8.659   5.707   3.282
22420WAT     H167502   8.611   5.633   3.236
22420WAT     H267503   8.638   5.705   3.380
22421WAT      O67504   6.663   8.947   0.041
22421WAT     H167505   6.675   9.047   0.042
22421WAT     H267506   6.645   8.915   0.133
22422WAT      O67507   1.748   7.016   6.607
22422WAT     H167508   1.781   7.062   6.689
22422WAT     H267509   1.763   6.917   6.615
22423WAT      O67510   5.871   4.820   4.187
22423WAT     H167511   5.854   4.917   4.169
22423WAT     H267512   5.957   4.809   4.235
22424WAT      O67513   1.339   3.015   4.592
22424WAT     H167514   1.254   3.013   4.645
22424WAT     H267515   1.350   3.105   4.551
22425WAT      O67516   7.742   6.309   5.450
22425WAT     H167517   7.693   6.222   5.456
22425WAT     H267518   7.810   6.303   5.377
22426WAT      O67519   7.302   4.154   4.932
22426WAT     H167520   7.290   4.061   4.896
22426WAT     H267521   7.379   4.198   4.884
22427WAT      O67522   7.068   8.606   9.685
22427WAT     H167523   7.108   8.681   9.632
22427WAT     H267524   7.128   8.584   9.762
22428WAT      O67525   6.924   5.535   1.551
22428WAT     H167526   6.869   5.575   1.624
22428WAT     H267527   6.863   5.501   1.479
22429WAT      O67528   0.192   6.824   8.587
22429WAT     H167529   0.259   6.812   8.514
22429WAT     H267530   0.141   6.739   8.600
22430WAT      O67531   1.438   0.109   3.799
22430WAT     H167532   1.456   0.203   3.771
22430WAT     H267533   1.340   0.095   3.810
22431WAT      O67534   6.286   0.313   8.203
22431WAT     H167535   6.264   0.223   8.241
22431WAT     H267536   6.321   0.372   8.275
22432WAT      O67537   8.465   9.105   5.441
22432WAT     H167538   8.373   9.131   5.411
22432WAT     H267539   8.467   9.099   5.541
22433WAT      O67540   0.808   4.475   9.357
22433WAT     H167541   0.722   4.477   9.307
22433WAT     H267542   0.819   4.386   9.401
22434WAT      O67543   4.389   3.628   0.940
22434WAT     H167544   4.426   3.580   1.020
22434WAT     H267545   4.363   3.721   0.966
22435WAT      O67546   8.164   6.263   0.199
22435WAT     H167547   8.221   6.187   0.168
22435WAT     H267548   8.088   6.227   0.253
22436WAT      O67549   5.302   3.698   9.135
22436WAT     H167550   5.247   3.675   9.216
22436WAT     H267551   5.393   3.657   9.145
22437WAT      O67552   9.705   2.740   0.163
22437WAT     H167553   9.776   2.811   0.158
22437WAT     H267554   9.622   2.774   0.119
22438WAT      O67555   5.978   6.350   9.412
22438WAT     H167556   5.905   6.296   9.369
22438WAT     H267557   5.941   6.400   9.491
22439WAT      O67558   8.169   9.537   7.778
22439WAT     H167559   8.180   9.563   7.682
22439WAT     H267560   8.208   9.607   7.837
22440WAT      O67561   5.540   0.421   9.787
22440WAT     H167562   5.599   0.491   9.747
22440WAT     H267563   5.594   0.360   9.844
22441WAT      O67564   1.973   3.784   0.169
22441WAT     H167565   1.885   3.826   0.191
22441WAT     H267566   2.001   3.812   0.077
22442WAT      O67567   4.876   7.081   5.360
22442WAT     H167568   4.914   6.996   5.322
22442WAT     H267569   4.810   7.059   5.432
22443WAT      O67570   9.884   6.904   4.103
22443WAT     H167571   9.885   6.958   4.019
22443WAT     H267572   9.886   6.807   4.080
22444WAT      O67573   8.721   7.382   4.775
22444WAT     H167574   8.742   7.348   4.867
22444WAT     H267575   8.783   7.338   4.709
22445WAT      O67576   6.179   6.886   0.267
22445WAT     H167577   6.143   6.851   0.354
22445WAT     H267578   6.167   6.985   0.264
22446WAT      O67579   1.373   6.657   1.194
22446WAT     H167580   1.424   6.585   1.147
22446WAT     H267581   1.403   6.746   1.162
22447WAT      O67582   8.397   1.456   7.576
22447WAT     H167583   8.421   1.524   7.645
22447WAT     H267584   8.393   1.501   7.486
22448WAT      O67585   0.364   0.475   4.158
22448WAT     H167586   0.340   0.517   4.071
22448WAT     H267587   0.363   0.375   4.148
22449WAT      O67588   5.521   5.518   5.242
22449WAT     H167589   5.475   5.590   5.294
22449WAT     H267590   5.456   5.475   5.180
22450WAT      O67591   9.308   5.673   2.801
22450WAT     H167592   9.362   5.625   2.870
22450WAT     H267593   9.348   5.763   2.784
22451WAT      O67594   1.406   2.854   3.033
22451WAT     H167595   1.441   2.947   3.043
22451WAT     H267596   1.446   2.811   2.952
22452WAT      O67597   6.224   1.941   9.024
22452WAT     H167598   6.248   1.846   9.045
22452WAT     H267599   6.172   1.980   9.100
22453WAT      O67600   8.681   7.584   6.048
22453WAT     H167601   8.611   7.529   6.003
22453WAT     H267602   8.716   7.653   5.984
22454WAT      O67603   5.894   4.341   1.994
22454WAT     H167604   5.965   4.383   2.050
22454WAT     H267605   5.930   4.324   1.903
22455WAT      O67606   1.276   3.781   2.728
22455WAT     H167607   1.256   3.872   2.763
22455WAT     H267608   1.260   3.779   2.629
22456WAT      O67609   9.293   9.099   3.502
22456WAT     H167610   9.378   9.093   3.450
22456WAT     H267611   9.288   9.024   3.568
22457WAT      O67612   0.945   3.978   3.098
22457WAT     H167613   1.013   4.051   3.102
22457WAT     H267614   0.992   3.889   3.104
22458WAT      O67615   0.810   0.253   6.128
22458WAT     H167616   0.803   0.316   6.051
22458WAT     H267617   0.754   0.172   6.109
22459WAT      O67618   1.411   5.218   5.119
22459WAT     H167619   1.428   5.285   5.047
22459WAT     H267620   1.347   5.256   5.186
22460WAT      O67621   9.494   5.549   7.808
22460WAT     H167622   9.524   5.551   7.904
22460WAT     H267623   9.425   5.478   7.796
22461WAT      O67624   6.327   4.978   2.372
22461WAT     H167625   6.369   5.012   2.288
22461WAT     H267626   6.250   4.919   2.349
22462WAT      O67627   5.488   0.579   0.717
22462WAT     H167628   5.509   0.490   0.676
22462WAT     H267629   5.522   0.651   0.657
22463WAT      O67630   5.988   3.456   0.596
22463WAT     H167631   5.913   3.521   0.600
22463WAT     H267632   5.974   3.392   0.520
22464WAT      O67633   1.304   5.369   7.647
22464WAT     H167634   1.312   5.364   7.747
22464WAT     H267635   1.344   5.455   7.615
22465WAT      O67636   2.225   7.265   0.841
22465WAT     H167637   2.147   7.221   0.886
22465WAT     H267638   2.282   7.310   0.909
22466WAT      O67639   3.067   6.341   5.953
22466WAT     H167640   3.132   6.270   5.982
22466WAT     H267641   3.004   6.362   6.028
22467WAT      O67642   5.444   1.706   5.358
22467WAT     H167643   5.521   1.656   5.318
22467WAT     H267644   5.464   1.727   5.454
22468WAT      O67645   2.866   7.813   0.689
22468WAT     H167646   2.899   7.722   0.712
22468WAT     H267647   2.767   7.812   0.684
22469WAT      O67648   2.793   2.630   3.271
22469WAT     H167649   2.788   2.711   3.329
22469WAT     H267650   2.778   2.655   3.176
22470WAT      O67651   1.665   2.534   6.264
22470WAT     H167652   1.684   2.464   6.195
22470WAT     H267653   1.744   2.595   6.273
22471WAT      O67654   2.454   7.607   5.243
22471WAT     H167655   2.473   7.684   5.183
22471WAT     H267656   2.463   7.521   5.192
22472WAT      O67657   9.624   4.983   0.246
22472WAT     H167658   9.542   5.039   0.235
22472WAT     H267659   9.661   4.996   0.338
22473WAT      O67660   2.605   0.519   5.900
22473WAT     H167661   2.540   0.504   5.825
22473WAT     H267662   2.561   0.573   5.972
22474WAT      O67663   1.475   9.474   4.820
22474WAT     H167664   1.561   9.506   4.780
22474WAT     H267665   1.451   9.386   4.780
22475WAT      O67666   0.793   7.582   4.268
22475WAT     H167667   0.709   7.609   4.221
22475WAT     H267668   0.774   7.503   4.327
22476WAT      O67669   3.344   9.155   3.812
22476WAT     H167670   3.414   9.128   3.879
22476WAT     H267671   3.341   9.255   3.806
22477WAT      O67672   8.876   2.737   6.254
22477WAT     H167673   8.807   2.781   6.197
22477WAT     H267674   8.838   2.655   6.296
22478WAT      O67675   9.868   7.849   7.984
22478WAT     H167676   9.867   7.749   7.972
22478WAT     H267677   9.950   7.887   7.942
22479WAT      O67678   3.021   3.447   4.906
22479WAT     H167679   3.118   3.424   4.914
22479WAT     H267680   2.967   3.363   4.911
22480WAT      O67681   9.758   3.238   8.464
22480WAT     H167682   9.770   3.278   8.555
22480WAT     H267683   9.669   3.192   8.460
22481WAT      O67684   6.115   5.800   9.701
22481WAT     H167685   6.178   5.819   9.625
22481WAT     H267686   6.155   5.835   9.786
22482WAT      O67687   4.601   1.462   8.356
22482WAT     H167688   4.626   1.441   8.450
22482WAT     H267689   4.601   1.561   8.342
22483WAT      O67690   8.113   0.324   8.596
22483WAT     H167691   8.060   0.239   8.594
22483WAT     H267692   8.061   0.396   8.641
22484WAT      O67693   4.102   8.332   4.207
22484WAT     H167694   4.003   8.341   4.194
22484WAT     H267695   4.133   8.246   4.167
22485WAT      O67696   0.343   5.933   0.556
22485WAT     H167697   0.323   5.995   0.632
22485WAT     H267698   0.419   5.971   0.502
22486WAT      O67699   5.029   3.888   0.301
22486WAT     H167700   5.064   3.858   0.212
22486WAT     H267701   5.077   3.840   0.374
22487WAT      O67702   4.858   4.704   8.995
22487WAT     H167703   4.867   4.606   9.011
22487WAT     H267704   4.943   4.739   8.957
22488WAT      O67705   9.030   1.291   9.406
22488WAT     H167706   9.004   1.205   9.449
22488WAT     H267707   8.968   1.363   9.437
22489WAT      O67708   0.275   4.528   4.601
22489WAT     H167709   0.341   4.577   4.658
22489WAT     H267710   0.308   4.435   4.585
22490WAT      O67711   1.850   4.058   3.291
22490WAT     H167712   1.826   4.053   3.193
22490WAT     H267713   1.811   3.979   3.338
22491WAT      O67714   1.932   7.051   7.179
22491WAT     H167715   2.028   7.027   7.171
22491WAT     H267716   1.890   6.998   7.252
22492WAT      O67717   7.599   5.142   9.156
22492WAT     H167718   7.562   5.051   9.135
22492WAT     H267719   7.614   5.150   9.254
22493WAT      O67720   1.773   7.921   0.830
22493WAT     H167721   1.689   7.887   0.786
22493WAT     H267722   1.748   7.977   0.909
22494WAT      O67723   2.484   6.901   2.732
22494WAT     H167724   2.546   6.979   2.744
22494WAT     H267725   2.438   6.882   2.818
22495WAT      O67726   2.425   2.425   1.543
22495WAT     H167727   2.443   2.523   1.553
22495WAT     H267728   2.328   2.411   1.523
22496WAT      O67729   5.032   0.484   1.937
22496WAT     H167730   5.100   0.440   1.996
22496WAT     H267731   4.941   0.461   1.971
22497WAT      O67732   6.605   6.117   6.373
22497WAT     H167733   6.690   6.065   6.371
22497WAT     H267734   6.539   6.071   6.433
22498WAT      O67735   1.451   2.932   8.614
22498WAT     H167736   1.522   2.900   8.550
22498WAT     H267737   1.436   2.863   8.685
22499WAT      O67738   8.629   3.340   0.168
22499WAT     H167739   8.592   3.271   0.229
22499WAT     H267740   8.626   3.430   0.212
22500WAT      O67741   1.189   0.112   1.596
22500WAT     H167742   1.130   0.101   1.676
22500WAT     H267743   1.259   0.181   1.616
22501WAT      O67744   7.940   8.162   6.293
22501WAT     H167745   7.961   8.077   6.244
22501WAT     H267746   7.988   8.238   6.248
22502WAT      O67747   2.252   6.673   6.740
22502WAT     H167748   2.169   6.619   6.749
22502WAT     H267749   2.327   6.629   6.791
22503WAT      O67750   5.689   7.307   0.978
22503WAT     H167751   5.750   7.281   0.904
22503WAT     H267752   5.729   7.277   1.065
22504WAT      O67753   6.028   9.742   9.726
22504WAT     H167754   6.065   9.724   9.817
22504WAT     H267755   6.026   9.657   9.674
22505WAT      O67756   4.431   4.410   6.135
22505WAT     H167757   4.347   4.415   6.190
22505WAT     H267758   4.500   4.358   6.185
22506WAT      O67759   5.743   5.128   9.721
22506WAT     H167760   5.841   5.119   9.704
22506WAT     H267761   5.728   5.173   9.809
22507WAT      O67762   9.152   0.253   5.726
22507WAT     H167763   9.114   0.345   5.723
22507WAT     H267764   9.146   0.211   5.635
22508WAT      O67765   1.137   1.228   6.798
22508WAT     H167766   1.051   1.205   6.752
22508WAT     H267767   1.213   1.215   6.735
22509WAT      O67768   9.856   6.978   6.363
22509WAT     H167769   9.924   6.929   6.416
22509WAT     H267770   9.901   7.021   6.284
22510WAT      O67771   7.007   6.269   5.754
22510WAT     H167772   6.955   6.349   5.723
22510WAT     H267773   6.987   6.192   5.693
22511WAT      O67774   7.850   7.623   1.001
22511WAT     H167775   7.842   7.645   0.904
22511WAT     H267776   7.805   7.695   1.055
22512WAT      O67777   1.403   6.187   0.467
22512WAT     H167778   1.362   6.277   0.452
22512WAT     H267779   1.376   6.125   0.393
22513WAT      O67780   5.760   4.977   7.483
22513WAT     H167781   5.777   5.037   7.562
22513WAT     H267782   5.790   5.023   7.399
22514WAT      O67783   8.481   3.302   5.287
22514WAT     H167784   8.433   3.223   5.326
22514WAT     H267785   8.426   3.342   5.214
22515WAT      O67786   0.545   7.075   6.201
22515WAT     H167787   0.517   7.171   6.196
22515WAT     H267788   0.468   7.017   6.173
22516WAT      O67789   8.009   0.428   4.103
22516WAT     H167790   8.034   0.415   4.199
22516WAT     H267791   8.056   0.360   4.046
22517WAT      O67792   5.549   9.554   6.830
22517WAT     H167793   5.488   9.564   6.752
22517WAT     H267794   5.587   9.461   6.831
22518WAT      O67795   5.375   9.060   6.127
22518WAT     H167796   5.311   9.000   6.175
22518WAT     H267797   5.348   9.067   6.030
22519WAT      O67798   6.838   1.791   1.058
22519WAT     H167799   6.915   1.805   1.121
22519WAT     H267800   6.873   1.755   0.971
22520WAT      O67801   4.329   6.900   0.887
22520WAT     H167802   4.378   6.917   0.972
22520WAT     H267803   4.330   6.802   0.867
22521WAT      O67804   3.414   5.953   3.025
22521WAT     H167805   3.486   6.016   2.998
22521WAT     H267806   3.398   5.888   2.951
22522WAT      O67807   2.391   8.759   3.167
22522WAT     H167808   2.482   8.755   3.126
22522WAT     H267809   2.397   8.802   3.257
22523WAT      O67810   1.451   5.781   6.374
22523WAT     H167811   1.444   5.881   6.378
22523WAT     H267812   1.447   5.744   6.467
22524WAT      O67813   5.297   2.854   3.344
22524WAT     H167814   5.203   2.857   3.378
22524WAT     H267815   5.339   2.767   3.368
22525WAT      O67816   5.062   2.816   9.242
22525WAT     H167817   5.001   2.895   9.245
22525WAT     H267818   5.066   2.773   9.333
22526WAT      O67819   5.473   1.700   6.265
22526WAT     H167820   5.411   1.779   6.268
22526WAT     H267821   5.563   1.728   6.297
22527WAT      O67822   5.630   8.539   8.946
22527WAT     H167823   5.712   8.484   8.963
22527WAT     H267824   5.612   8.541   8.848
22528WAT      O67825   5.031   3.138   6.650
22528WAT     H167826   5.124   3.109   6.674
22528WAT     H267827   4.974   3.057   6.636
22529WAT      O67828   5.414   8.096   7.566
22529WAT     H167829   5.356   8.154   7.507
22529WAT     H267830   5.438   8.147   7.649
22530WAT      O67831   1.906   9.257   2.568
22530WAT     H167832   1.846   9.333   2.542
22530WAT     H267833   1.991   9.262   2.514
22531WAT      O67834   1.390   7.107   5.350
22531WAT     H167835   1.439   7.080   5.433
22531WAT     H267836   1.309   7.050   5.340
22532WAT      O67837   2.404   1.878   3.706
22532WAT     H167838   2.436   1.789   3.740
22532WAT     H267839   2.479   1.925   3.660
22533WAT      O67840   5.707   9.050   6.173
22533WAT     H167841   5.643   9.120   6.141
22533WAT     H267842   5.657   8.964   6.186
22534WAT      O67843   5.339   7.770   0.149
22534WAT     H167844   5.354   7.703   0.221
22534WAT     H267845   5.331   7.724   0.060
22535WAT      O67846   2.898   3.929   6.872
22535WAT     H167847   2.963   3.931   6.949
22535WAT     H267848   2.899   4.018   6.826
22536WAT      O67849   9.640   2.756   9.201
22536WAT     H167850   9.575   2.828   9.225
22536WAT     H267851   9.590   2.676   9.168
22537WAT      O67852   3.847   5.656   0.190
22537WAT     H167853   3.866   5.560   0.209
22537WAT     H267854   3.908   5.688   0.118
22538WAT      O67855   7.398   8.500   7.417
22538WAT     H167856   7.317   8.457   7.456
22538WAT     H267857   7.421   8.456   7.330
22539WAT      O67858   1.074   9.376   7.390
22539WAT     H167859   1.078   9.324   7.305
22539WAT     H267860   0.981   9.375   7.425
22540WAT      O67861   2.542   4.106   9.485
22540WAT     H167862   2.524   4.185   9.426
22540WAT     H267863   2.631   4.066   9.462
22541WAT      O67864   4.444   8.493   9.230
22541WAT     H167865   4.523   8.472   9.174
22541WAT     H267866   4.423   8.414   9.289
22542WAT      O67867   0.705   8.066   1.830
22542WAT     H167868   0.624   8.046   1.885
22542WAT     H267869   0.748   8.150   1.863
22543WAT      O67870   7.941   4.403   5.865
22543WAT     H167871   8.014   4.346   5.829
22543WAT     H267872   7.884   4.349   5.928
22544WAT      O67873   2.397   8.348   6.351
22544WAT     H167874   2.414   8.287   6.428
22544WAT     H267875   2.298   8.360   6.339
22545WAT      O67876   3.877   8.347   7.300
22545WAT     H167877   3.830   8.259   7.305
22545WAT     H267878   3.891   8.372   7.204
22546WAT      O67879   5.097   0.060   0.834
22546WAT     H167880   5.168   0.025   0.895
22546WAT     H267881   5.119   0.153   0.806
22547WAT      O67882   0.464   6.114   8.028
22547WAT     H167883   0.378   6.150   8.062
22547WAT     H267884   0.494   6.169   7.949
22548WAT      O67885   5.114   0.473   7.400
22548WAT     H167886   5.158   0.563   7.404
22548WAT     H267887   5.015   0.484   7.394
22549WAT      O67888   6.061   9.803   7.609
22549WAT     H167889   6.005   9.730   7.570
22549WAT     H267890   6.148   9.809   7.561
22550WAT      O67891   3.605   3.819   4.075
22550WAT     H167892   3.534   3.846   4.010
22550WAT     H267893   3.580   3.732   4.118
22551WAT      O67894   8.030   4.906   7.541
22551WAT     H167895   8.023   4.908   7.641
22551WAT     H267896   7.962   4.968   7.502
22552WAT      O67897   2.237   0.774   1.551
22552WAT     H167898   2.202   0.720   1.628
22552WAT     H267899   2.226   0.871   1.571
22553WAT      O67900   8.317   2.161   0.414
22553WAT     H167901   8.368   2.094   0.359
22553WAT     H267902   8.300   2.243   0.360
22554WAT      O67903   9.682   6.641   8.564
22554WAT     H167904   9.601   6.583   8.566
22554WAT     H267905   9.655   6.737   8.550
22555WAT      O67906   8.526   6.211   4.083
22555WAT     H167907   8.495   6.304   4.103
22555WAT     H267908   8.509   6.153   4.162
22556WAT      O67909   9.824   1.378   3.649
22556WAT     H167910   9.902   1.328   3.611
22556WAT     H267911   9.815   1.356   3.746
22557WAT      O67912   8.619   2.859   1.680
22557WAT     H167913   8.630   2.882   1.776
22557WAT     H267914   8.574   2.935   1.632
22558WAT      O67915   5.404   8.222   6.629
22558WAT     H167916   5.401   8.282   6.549
22558WAT     H267917   5.499   8.199   6.650
22559WAT      O67918   9.767   8.666   1.433
22559WAT     H167919   9.747   8.570   1.453
22559WAT     H267920   9.685   8.711   1.398
22560WAT      O67921   3.656   2.912   4.211
22560WAT     H167922   3.756   2.909   4.222
22560WAT     H267923   3.618   2.821   4.225
22561WAT      O67924   2.858   0.683   3.768
22561WAT     H167925   2.831   0.740   3.846
22561WAT     H267926   2.943   0.718   3.729
22562WAT      O67927   5.841   6.291   7.803
22562WAT     H167928   5.770   6.361   7.797
22562WAT     H267929   5.843   6.253   7.895
22563WAT      O67930   8.518   9.037   7.361
22563WAT     H167931   8.544   8.980   7.438
22563WAT     H267932   8.451   8.988   7.304
22564WAT      O67933   8.721   5.191   0.641
22564WAT     H167934   8.680   5.271   0.684
22564WAT     H267935   8.655   5.116   0.639
22565WAT      O67936   7.111   7.343   7.574
22565WAT     H167937   7.200   7.372   7.539
22565WAT     H267938   7.065   7.287   7.506
22566WAT      O67939   2.350   2.939   3.463
22566WAT     H167940   2.346   2.983   3.373
22566WAT     H267941   2.335   2.840   3.452
22567WAT      O67942   7.943   3.806   6.754
22567WAT     H167943   7.879   3.776   6.682
22567WAT     H267944   7.934   3.905   6.767
22568WAT      O67945   1.715   9.829   3.796
22568WAT     H167946   1.717   9.737   3.759
22568WAT     H267947   1.619   9.859   3.806
22569WAT      O67948   6.859   9.794   4.816
22569WAT     H167949   6.897   9.702   4.825
22569WAT     H267950   6.784   9.792   4.750
22570WAT      O67951   2.722   0.134   0.935
22570WAT     H167952   2.729   0.196   0.857
22570WAT     H267953   2.633   0.146   0.979
22571WAT      O67954   1.957   8.969   1.476
22571WAT     H167955   1.940   8.997   1.381
22571WAT     H267956   1.870   8.955   1.523
22572WAT      O67957   1.616   7.929   1.972
22572WAT     H167958   1.657   7.854   1.920
22572WAT     H267959   1.565   7.989   1.910
22573WAT      O67960   8.845   1.994   3.792
22573WAT     H167961   8.803   2.079   3.823
22573WAT     H267962   8.884   2.008   3.701
22574WAT      O67963   2.161   2.469   7.488
22574WAT     H167964   2.192   2.561   7.513
22574WAT     H267965   2.120   2.425   7.567
22575WAT      O67966   6.868   1.034   5.923
22575WAT     H167967   6.777   1.054   5.887
22575WAT     H267968   6.870   0.939   5.954
22576WAT      O67969   1.702   1.545   5.709
22576WAT     H167970   1.638   1.470   5.690
22576WAT     H267971   1.689   1.576   5.803
22577WAT      O67972   7.972   3.778   9.119
22577WAT     H167973   8.049   3.841   9.109
22577WAT     H267974   7.894   3.826   9.161
22578WAT      O67975   7.602   4.780   9.434
22578WAT     H167976   7.609   4.880   9.442
22578WAT     H267977   7.546   4.757   9.355
22579WAT      O67978   8.429   9.564   3.437
22579WAT     H167979   8.473   9.519   3.360
22579WAT     H267980   8.329   9.558   3.426
22580WAT      O67981   7.871   8.105   5.407
22580WAT     H167982   7.771   8.108   5.412
22580WAT     H267983   7.899   8.035   5.342
22581WAT      O67984   8.200   2.792   1.129
22581WAT     H167985   8.129   2.721   1.126
22581WAT     H267986   8.276   2.760   1.186
22582WAT      O67987   4.237   8.618   2.705
22582WAT     H167988   4.329   8.597   2.739
22582WAT     H267989   4.220   8.716   2.711
22583WAT      O67990   2.639   1.744   4.610
22583WAT     H167991   2.540   1.731   4.610
22583WAT     H267992   2.684   1.663   4.572
22584WAT      O67993   4.046   2.495   0.313
22584WAT     H167994   4.077   2.439   0.237
22584WAT     H267995   4.122   2.508   0.378
22585WAT      O67996   6.059   4.599   6.747
22585WAT     H167997   6.011   4.625   6.663
22585WAT     H267998   6.089   4.504   6.740
22586WAT      O67999   8.049   6.470   7.332
22586WAT     H168000   8.008   6.549   7.287
22586WAT     H268001   7.993   6.443   7.410
22587WAT      O68002   9.003   7.701   0.580
22587WAT     H168003   8.957   7.661   0.502
22587WAT     H268004   9.031   7.628   0.644
22588WAT      O68005   0.154   5.116   5.140
22588WAT     H168006   0.143   5.214   5.123
22588WAT     H268007   0.124   5.094   5.232
22589WAT      O68008   4.367   4.857   5.991
22589WAT     H168009   4.450   4.801   5.991
22589WAT     H268010   4.314   4.838   5.909
22590WAT      O68011   9.292   8.875   5.952
22590WAT     H168012   9.259   8.796   6.004
22590WAT     H268013   9.364   8.921   6.004
22591WAT      O68014   7.448   8.099   6.127
22591WAT     H168015   7.356   8.066   6.146
22591WAT     H268016   7.480   8.059   6.041
22592WAT      O68017   0.941   7.938   1.553
22592WAT     H168018   0.864   8.001   1.541
22592WAT     H268019   1.023   7.978   1.513
22593WAT      O68020   3.480   1.609   9.716
22593WAT     H168021   3.461   1.513   9.733
22593WAT     H268022   3.394   1.660   9.712
22594WAT      O68023   9.698   9.406   4.297
22594WAT     H168024   9.664   9.487   4.344
22594WAT     H268025   9.624   9.365   4.243
22595WAT      O68026   1.475   2.511   6.721
22595WAT     H168027   1.478   2.456   6.637
22595WAT     H268028   1.419   2.592   6.705
22596WAT      O68029   2.530   9.447   1.984
22596WAT     H168030   2.619   9.490   1.997
22596WAT     H268031   2.507   9.445   1.887
22597WAT      O68032   6.982   5.765   5.113
22597WAT     H168033   7.042   5.795   5.040
22597WAT     H268034   6.973   5.665   5.111
22598WAT      O68035   8.039   6.401   6.613
22598WAT     H168036   8.087   6.391   6.700
22598WAT     H268037   7.998   6.492   6.608
22599WAT      O68038   1.520   0.351   4.941
22599WAT     H168039   1.527   0.259   4.978
22599WAT     H268040   1.431   0.362   4.896
22600WAT      O68041   4.729   0.866   3.130
22600WAT     H168042   4.666   0.878   3.207
22600WAT     H268043   4.754   0.770   3.122
22601WAT      O68044   5.234   8.006   5.483
22601WAT     H168045   5.314   7.949   5.499
22601WAT     H268046   5.245   8.093   5.532
22602WAT      O68047   3.152   3.303   2.117
22602WAT     H168048   3.054   3.293   2.097
22602WAT     H268049   3.176   3.400   2.116
22603WAT      O68050   9.876   1.071   4.317
22603WAT     H168051   9.810   1.146   4.321
22603WAT     H268052   9.827   0.984   4.317
22604WAT      O68053   4.569   0.993   9.606
22604WAT     H168054   4.493   1.004   9.670
22604WAT     H268055   4.543   1.028   9.516
22605WAT      O68056   8.554   6.480   1.947
22605WAT     H168057   8.628   6.419   1.974
22605WAT     H268058   8.591   6.570   1.925
22606WAT      O68059   9.035   5.818   6.178
22606WAT     H168060   9.080   5.771   6.102
22606WAT     H268061   9.074   5.909   6.189
22607WAT      O68062   3.161   0.413   1.656
22607WAT     H168063   3.110   0.338   1.698
22607WAT     H268064   3.097   0.476   1.611
22608WAT      O68065   5.827   3.090   3.402
22608WAT     H168066   5.805   3.017   3.338
22608WAT     H268067   5.782   3.175   3.374
22609WAT      O68068   3.661   2.767   7.709
22609WAT     H168069   3.698   2.803   7.624
22609WAT     H268070   3.718   2.796   7.786
22610WAT      O68071   0.330   0.132   0.752
22610WAT     H168072   0.260   0.124   0.681
22610WAT     H268073   0.417   0.099   0.717
22611WAT      O68074   2.482   9.676   5.882
22611WAT     H168075   2.536   9.595   5.910
22611WAT     H268076   2.389   9.648   5.861
22612WAT      O68077   1.275   4.845   9.832
22612WAT     H168078   1.338   4.843   9.909
22612WAT     H268079   1.213   4.767   9.837
22613WAT      O68080   6.284   4.882   3.047
22613WAT     H168081   6.315   4.977   3.051
22613WAT     H268082   6.231   4.868   2.964
22614WAT      O68083   1.871   4.332   3.295
22614WAT     H168084   1.924   4.356   3.377
22614WAT     H268085   1.861   4.233   3.290
22615WAT      O68086   0.151   3.323   3.479
22615WAT     H168087   0.156   3.387   3.555
22615WAT     H268088   0.059   3.284   3.473
22616WAT      O68089   0.743   6.331   4.100
22616WAT     H168090   0.752   6.243   4.147
22616WAT     H268091   0.673   6.386   4.146
22617WAT      O68092   3.447   0.366   2.056
22617WAT     H168093   3.398   0.354   2.142
22617WAT     H268094   3.393   0.425   1.995
22618WAT      O68095   2.288   9.462   0.809
22618WAT     H168096   2.344   9.518   0.747
22618WAT     H268097   2.326   9.370   0.813
22619WAT      O68098   1.861   6.170   8.447
22619WAT     H168099   1.839   6.101   8.379
22619WAT     H268100   1.939   6.224   8.416
22620WAT      O68101   8.429   8.796   0.356
22620WAT     H168102   8.499   8.740   0.401
22620WAT     H268103   8.423   8.770   0.260
22621WAT      O68104   9.044   3.189   3.639
22621WAT     H168105   9.016   3.135   3.560
22621WAT     H268106   9.144   3.195   3.641
22622WAT      O68107   0.559   9.459   2.826
22622WAT     H168108   0.492   9.477   2.754
22622WAT     H268109   0.512   9.432   2.909
22623WAT      O68110   0.140   4.163   3.206
22623WAT     H168111   0.118   4.238   3.269
22623WAT     H268112   0.065   4.098   3.203
22624WAT      O68113   8.262   6.942   6.048
22624WAT     H168114   8.166   6.919   6.035
22624WAT     H268115   8.281   6.951   6.146
22625WAT      O68116   1.264   6.371   1.078
22625WAT     H168117   1.246   6.293   1.018
22625WAT     H268118   1.319   6.438   1.029
22626WAT      O68119   1.150   8.571   1.121
22626WAT     H168120   1.078   8.630   1.086
22626WAT     H268121   1.180   8.508   1.049
22627WAT      O68122   4.816   0.632   6.665
22627WAT     H168123   4.769   0.720   6.674
22627WAT     H268124   4.843   0.600   6.756
22628WAT      O68125   0.038   2.025   3.742
22628WAT     H168126   0.059   2.122   3.735
22628WAT     H268127  -0.018   1.998   3.663
22629WAT      O68128   4.824   1.081   8.297
22629WAT     H168129   4.831   1.176   8.267
22629WAT     H268130   4.786   1.026   8.223
22630WAT      O68131   9.436   2.988   8.875
22630WAT     H168132   9.448   2.965   8.778
22630WAT     H268133   9.491   3.069   8.897
22631WAT      O68134   2.196   7.429   1.419
22631WAT     H168135   2.289   7.467   1.422
22631WAT     H268136   2.132   7.496   1.456
22632WAT      O68137   4.214   2.789   9.150
22632WAT     H168138   4.178   2.763   9.240
22632WAT     H268139   4.140   2.825   9.094
22633WAT      O68140   5.321   5.847   6.610
22633WAT     H168141   5.308   5.795   6.694
22633WAT     H268142   5.339   5.943   6.633
22634WAT      O68143   3.321   7.029   8.853
22634WAT     H168144   3.293   6.987   8.767
22634WAT     H268145   3.259   7.000   8.926
22635WAT      O68146   9.683   4.092   0.474
22635WAT     H168147   9.703   4.003   0.514
22635WAT     H268148   9.604   4.133   0.520
22636WAT      O68149   9.484   2.868   5.774
22636WAT     H168150   9.503   2.957   5.730
22636WAT     H268151   9.413   2.820   5.723
22637WAT      O68152   7.800   0.391   1.295
22637WAT     H168153   7.704   0.384   1.265
22637WAT     H268154   7.845   0.303   1.280
22638WAT      O68155   4.867   5.059   3.139
22638WAT     H168156   4.858   5.073   3.237
22638WAT     H268157   4.788   5.008   3.105
22639WAT      O68158   8.409   5.417   7.370
22639WAT     H168159   8.407   5.512   7.339
22639WAT     H268160   8.468   5.363   7.309
22640WAT      O68161   7.066   1.081   9.826
22640WAT     H168162   7.053   1.014   9.899
22640WAT     H268163   7.071   1.173   9.866
22641WAT      O68164   8.071   7.702   6.432
22641WAT     H168165   8.016   7.623   6.462
22641WAT     H268166   8.047   7.726   6.338
22642WAT      O68167   6.764   8.619   4.532
22642WAT     H168168   6.852   8.615   4.485
22642WAT     H268169   6.757   8.705   4.582
22643WAT      O68170   2.743   9.286   1.712
22643WAT     H168171   2.782   9.213   1.655
22643WAT     H268172   2.676   9.338   1.659
22644WAT      O68173   8.411   1.331   0.403
22644WAT     H168174   8.384   1.391   0.478
22644WAT     H268175   8.377   1.239   0.421
22645WAT      O68176   7.158   7.691   0.381
22645WAT     H168177   7.170   7.788   0.359
22645WAT     H268178   7.069   7.660   0.347
22646WAT      O68179   1.845   4.403   5.794
22646WAT     H168180   1.871   4.387   5.889
22646WAT     H268181   1.768   4.343   5.770
22647WAT      O68182   1.905   3.212   2.369
22647WAT     H168183   1.939   3.292   2.418
22647WAT     H268184   1.813   3.189   2.402
22648WAT      O68185   3.683   0.276   2.461
22648WAT     H168186   3.659   0.207   2.392
22648WAT     H268187   3.774   0.311   2.442
22649WAT      O68188   0.361   4.254   6.121
22649WAT     H168189   0.304   4.214   6.049
22649WAT     H268190   0.327   4.345   6.144
22650WAT      O68191   0.692   8.530   4.709
22650WAT     H168192   0.669   8.582   4.791
22650WAT     H268193   0.746   8.449   4.736
22651WAT      O68194   8.224   2.029   6.689
22651WAT     H168195   8.253   2.078   6.607
22651WAT     H268196   8.198   1.936   6.665
22652WAT      O68197   6.853   2.593   3.559
22652WAT     H168198   6.922   2.629   3.498
22652WAT     H268199   6.775   2.559   3.506
22653WAT      O68200   2.895   5.649   2.390
22653WAT     H168201   2.823   5.713   2.363
22653WAT     H268202   2.959   5.694   2.452
22654WAT      O68203   1.629   5.138   5.445
22654WAT     H168204   1.638   5.183   5.534
22654WAT     H268205   1.543   5.087   5.442
22655WAT      O68206   7.029   1.884   1.496
22655WAT     H168207   7.008   1.872   1.399
22655WAT     H268208   7.103   1.821   1.521
22656WAT      O68209   5.619   1.321   2.467
22656WAT     H168210   5.614   1.222   2.459
22656WAT     H268211   5.714   1.350   2.473
22657WAT      O68212   9.502   7.181   7.368
22657WAT     H168213   9.421   7.165   7.311
22657WAT     H268214   9.525   7.278   7.368
22658WAT      O68215   4.198   1.663   1.842
22658WAT     H168216   4.172   1.716   1.923
22658WAT     H268217   4.293   1.683   1.818
22659WAT      O68218   2.313   6.920   9.431
22659WAT     H168219   2.236   6.857   9.444
22659WAT     H268220   2.293   6.982   9.355
22660WAT      O68221   7.353   6.001   3.728
22660WAT     H168222   7.296   6.082   3.717
22660WAT     H268223   7.300   5.927   3.770
22661WAT      O68224   1.402   1.451   0.290
22661WAT     H168225   1.392   1.489   0.382
22661WAT     H268226   1.363   1.359   0.288
22662WAT      O68227   5.531   1.944   2.922
22662WAT     H168228   5.495   2.035   2.942
22662WAT     H268229   5.630   1.944   2.930
22663WAT      O68230   3.753   5.716   7.956
22663WAT     H168231   3.823   5.777   7.919
22663WAT     H268232   3.664   5.761   7.950
22664WAT      O68233   9.417   5.372   6.104
22664WAT     H168234   9.317   5.376   6.097
22664WAT     H268235   9.444   5.290   6.154
22665WAT      O68236   4.433   4.637   8.133
22665WAT     H168237   4.412   4.540   8.147
22665WAT     H268238   4.431   4.684   8.222
22666WAT      O68239   7.096   4.869   0.358
22666WAT     H168240   7.143   4.937   0.415
22666WAT     H268241   7.124   4.777   0.385
22667WAT      O68242   3.586   7.426   1.684
22667WAT     H168243   3.494   7.390   1.666
22667WAT     H268244   3.579   7.523   1.709
22668WAT      O68245   4.768   1.958   9.594
22668WAT     H168246   4.735   1.887   9.531
22668WAT     H268247   4.689   2.008   9.630
22669WAT      O68248   6.397   4.539   0.301
22669WAT     H168249   6.396   4.627   0.349
22669WAT     H268250   6.304   4.518   0.270
22670WAT      O68251   3.804   1.472   6.405
22670WAT     H168252   3.738   1.442   6.475
22670WAT     H268253   3.792   1.570   6.389
22671WAT      O68254   1.345   3.529   2.577
22671WAT     H168255   1.258   3.498   2.538
22671WAT     H268256   1.330   3.614   2.627
22672WAT      O68257   1.598   5.489   1.638
22672WAT     H168258   1.614   5.499   1.736
22672WAT     H268259   1.500   5.493   1.620
22673WAT      O68260   8.987   4.234   1.140
22673WAT     H168261   9.039   4.193   1.216
22673WAT     H268262   9.049   4.285   1.081
22674WAT      O68263   6.672   8.618   0.557
22674WAT     H168264   6.647   8.637   0.651
22674WAT     H268265   6.595   8.576   0.509
22675WAT      O68266   9.652   3.192   6.213
22675WAT     H168267   9.651   3.278   6.161
22675WAT     H268268   9.619   3.118   6.155
22676WAT      O68269   2.039   3.249   8.413
22676WAT     H168270   2.098   3.205   8.481
22676WAT     H268271   1.983   3.179   8.369
22677WAT      O68272   8.982   8.251   3.940
22677WAT     H168273   9.037   8.184   3.988
22677WAT     H268274   8.982   8.231   3.842
22678WAT      O68275   1.097   6.872   4.622
22678WAT     H168276   1.044   6.852   4.539
22678WAT     H268277   1.038   6.867   4.702
22679WAT      O68278   4.518   5.389   7.467
22679WAT     H168279   4.446   5.336   7.510
22679WAT     H268280   4.578   5.329   7.414
22680WAT      O68281   4.773   0.003   7.371
22680WAT     H168282   4.770   0.066   7.449
22680WAT     H268283   4.683  -0.040   7.360
22681WAT      O68284   9.342   7.633   1.279
22681WAT     H168285   9.323   7.536   1.269
22681WAT     H268286   9.372   7.653   1.372
22682WAT      O68287   5.901   4.902   1.587
22682WAT     H168288   5.948   4.885   1.674
22682WAT     H268289   5.960   4.875   1.511
22683WAT      O68290   6.746   8.968   6.903
22683WAT     H168291   6.840   8.946   6.878
22683WAT     H268292   6.740   9.066   6.926
22684WAT      O68293   9.057   3.425   4.980
22684WAT     H168294   9.155   3.414   4.961
22684WAT     H268295   9.045   3.488   5.058
22685WAT      O68296   5.064   2.419   4.408
22685WAT     H168297   5.128   2.487   4.445
22685WAT     H268298   5.062   2.339   4.468
22686WAT      O68299   8.005   3.016   8.085
22686WAT     H168300   8.065   3.064   8.021
22686WAT     H268301   8.045   3.020   8.177
22687WAT      O68302   4.071   8.196   5.023
22687WAT     H168303   4.061   8.108   4.978
22687WAT     H268304   4.103   8.182   5.117
22688WAT      O68305   7.984   6.497   0.528
22688WAT     H168306   7.933   6.413   0.548
22688WAT     H268307   7.950   6.537   0.443
22689WAT      O68308   6.243   6.787   3.458
22689WAT     H168309   6.208   6.869   3.502
22689WAT     H268310   6.326   6.757   3.505
22690WAT      O68311   9.226   2.977   3.109
22690WAT     H168312   9.135   2.979   3.066
22690WAT     H268313   9.294   2.948   3.042
22691WAT      O68314   2.521   3.468   1.964
22691WAT     H168315   2.529   3.567   1.950
22691WAT     H268316   2.424   3.443   1.968
22692WAT      O68317   6.196   7.824   2.437
22692WAT     H168318   6.284   7.807   2.393
22692WAT     H268319   6.133   7.863   2.371
22693WAT      O68320   9.481   0.288   2.130
22693WAT     H168321   9.509   0.214   2.069
22693WAT     H268322   9.381   0.295   2.130
22694WAT      O68323   9.671   9.003   0.645
22694WAT     H168324   9.645   9.058   0.565
22694WAT     H268325   9.648   9.052   0.729
22695WAT      O68326   0.448   8.714   2.902
22695WAT     H168327   0.380   8.787   2.895
22695WAT     H268328   0.534   8.752   2.937
22696WAT      O68329   8.875   7.127   6.554
22696WAT     H168330   8.882   7.027   6.558
22696WAT     H268331   8.807   7.152   6.485
22697WAT      O68332   4.124   8.753   1.749
22697WAT     H168333   4.109   8.655   1.737
22697WAT     H268334   4.169   8.769   1.837
22698WAT      O68335   7.992   2.863   4.046
22698WAT     H168336   7.991   2.952   4.092
22698WAT     H268337   7.924   2.803   4.088
22699WAT      O68338   8.753   5.215   3.734
22699WAT     H168339   8.758   5.297   3.791
22699WAT     H268340   8.665   5.170   3.747
22700WAT      O68341   3.177   4.090   3.788
22700WAT     H168342   3.191   4.183   3.753
22700WAT     H268343   3.150   4.030   3.713
22701WAT      O68344   6.830   6.678   1.007
22701WAT     H168345   6.920   6.702   1.042
22701WAT     H268346   6.813   6.729   0.922
22702WAT      O68347   7.070   6.716   1.400
22702WAT     H168348   7.037   6.755   1.486
22702WAT     H268349   7.061   6.616   1.404
22703WAT      O68350   2.140   4.567   1.178
22703WAT     H168351   2.116   4.641   1.242
22703WAT     H268352   2.140   4.480   1.227
22704WAT      O68353   5.866   7.870   7.077
22704WAT     H168354   5.891   7.928   7.155
22704WAT     H268355   5.770   7.882   7.055
22705WAT      O68356   1.231   3.614   0.325
22705WAT     H168357   1.227   3.714   0.317
22705WAT     H268358   1.143   3.580   0.360
22706WAT      O68359   1.708   9.557   2.201
22706WAT     H168360   1.733   9.476   2.254
22706WAT     H268361   1.620   9.592   2.234
22707WAT      O68362   7.994   2.300   5.563
22707WAT     H168363   7.963   2.342   5.478
22707WAT     H268364   7.936   2.331   5.639
22708WAT      O68365   3.015   8.796   0.905
22708WAT     H168366   2.953   8.875   0.903
22708WAT     H268367   3.103   8.824   0.942
22709WAT      O68368   2.939   1.991   7.228
22709WAT     H168369   2.969   1.982   7.323
22709WAT     H268370   2.877   1.917   7.205
22710WAT      O68371   1.508   6.015   4.954
22710WAT     H168372   1.579   5.949   4.928
22710WAT     H268373   1.551   6.100   4.983
22711WAT      O68374   6.564   9.253   5.056
22711WAT     H168375   6.552   9.285   4.962
22711WAT     H268376   6.620   9.318   5.107
22712WAT      O68377   8.851   3.649   1.091
22712WAT     H168378   8.905   3.572   1.126
22712WAT     H268379   8.900   3.734   1.108
22713WAT      O68380   8.092   2.135   8.215
22713WAT     H168381   8.043   2.212   8.255
22713WAT     H268382   8.026   2.067   8.183
22714WAT      O68383   3.765   7.284   5.259
22714WAT     H168384   3.710   7.362   5.232
22714WAT     H268385   3.862   7.308   5.252
22715WAT      O68386   7.271   5.820   5.132
22715WAT     H168387   7.231   5.899   5.084
22715WAT     H268388   7.362   5.802   5.096
22716WAT      O68389   5.451   1.101   1.419
22716WAT     H168390   5.369   1.054   1.449
22716WAT     H268391   5.438   1.200   1.429
22717WAT      O68392   5.326   9.352   4.854
22717WAT     H168393   5.391   9.374   4.781
22717WAT     H268394   5.332   9.420   4.926
22718WAT      O68395   2.358   7.293   8.024
22718WAT     H168396   2.348   7.194   8.037
22718WAT     H268397   2.352   7.315   7.926
22719WAT      O68398   4.031   5.191   5.414
22719WAT     H168399   4.009   5.264   5.478
22719WAT     H268400   4.015   5.222   5.320
22720WAT      O68401   7.918   3.758   3.415
22720WAT     H168402   8.004   3.722   3.377
22720WAT     H268403   7.894   3.706   3.497
22721WAT      O68404   2.771   2.739   5.850
22721WAT     H168405   2.812   2.680   5.919
22721WAT     H268406   2.799   2.834   5.867
22722WAT      O68407   8.688   2.189   3.101
22722WAT     H168408   8.656   2.246   3.026
22722WAT     H268409   8.703   2.245   3.182
22723WAT      O68410   2.446   0.070   0.154
22723WAT     H168411   2.360   0.019   0.150
22723WAT     H268412   2.493   0.062   0.066
22724WAT      O68413   2.028   7.811   1.268
22724WAT     H168414   1.998   7.796   1.173
22724WAT     H268415   2.023   7.724   1.318
22725WAT      O68416   0.149   1.617   7.443
22725WAT     H168417   0.100   1.671   7.375
22725WAT     H268418   0.243   1.652   7.453
22726WAT      O68419   4.710   5.267   0.652
22726WAT     H168420   4.785   5.328   0.628
22726WAT     H268421   4.638   5.274   0.584
22727WAT      O68422   5.927   1.565   5.312
22727WAT     H168423   6.005   1.512   5.345
22727WAT     H268424   5.943   1.593   5.217
22728WAT      O68425   0.988   2.907   9.327
22728WAT     H168426   0.949   2.903   9.235
22728WAT     H268427   1.038   2.823   9.345
22729WAT      O68428   4.424   3.404   9.886
22729WAT     H168429   4.437   3.307   9.869
22729WAT     H268430   4.378   3.446   9.808
22730WAT      O68431   6.719   5.715   9.311
22730WAT     H168432   6.705   5.618   9.329
22730WAT     H268433   6.658   5.746   9.238
22731WAT      O68434   0.901   9.700   7.522
22731WAT     H168435   0.825   9.717   7.460
22731WAT     H268436   0.978   9.760   7.497
22732WAT      O68437   6.306   2.199   2.556
22732WAT     H168438   6.362   2.182   2.637
22732WAT     H268439   6.361   2.184   2.474
22733WAT      O68440   1.852   8.242   8.888
22733WAT     H168441   1.853   8.176   8.812
22733WAT     H268442   1.942   8.284   8.896
22734WAT      O68443   3.013   0.059   7.307
22734WAT     H168444   3.001   0.157   7.294
22734WAT     H268445   2.931   0.011   7.276
22735WAT      O68446   0.675   3.984   2.662
22735WAT     H168447   0.581   4.016   2.669
22735WAT     H268448   0.723   4.002   2.747
22736WAT      O68449   7.008   3.763   8.823
22736WAT     H168450   7.072   3.741   8.896
22736WAT     H268451   6.916   3.737   8.850
22737WAT      O68452   1.086   5.684   8.582
22737WAT     H168453   1.138   5.625   8.644
22737WAT     H268454   1.145   5.756   8.546
22738WAT      O68455   7.326   1.021   2.876
22738WAT     H168456   7.254   0.985   2.816
22738WAT     H268457   7.414   0.984   2.848
22739WAT      O68458   0.571   9.039   1.085
22739WAT     H168459   0.501   9.069   1.020
22739WAT     H268460   0.576   8.939   1.085
22740WAT      O68461   8.024   1.781   5.284
22740WAT     H168462   7.955   1.834   5.334
22740WAT     H268463   8.012   1.796   5.186
22741WAT      O68464   4.248   7.248   2.069
22741WAT     H168465   4.166   7.221   2.118
22741WAT     H268466   4.236   7.340   2.031
22742WAT      O68467   7.168   8.591   2.903
22742WAT     H168468   7.158   8.525   2.829
22742WAT     H268469   7.214   8.547   2.981
22743WAT      O68470   2.459   9.406   3.460
22743WAT     H168471   2.432   9.454   3.544
22743WAT     H268472   2.430   9.311   3.465
22744WAT      O68473   7.770   3.506   8.199
22744WAT     H168474   7.823   3.584   8.231
22744WAT     H268475   7.674   3.532   8.192
22745WAT      O68476   9.116   0.855   9.547
22745WAT     H168477   9.188   0.892   9.606
22745WAT     H268478   9.157   0.799   9.476
22746WAT      O68479   1.521   4.318   3.879
22746WAT     H168480   1.434   4.307   3.928
22746WAT     H268481   1.573   4.233   3.884
22747WAT      O68482   7.752   1.959   3.649
22747WAT     H168483   7.719   1.973   3.556
22747WAT     H268484   7.790   1.867   3.656
22748WAT      O68485   9.522   4.183   5.408
22748WAT     H168486   9.619   4.183   5.434
22748WAT     H268487   9.508   4.122   5.331
22749WAT      O68488   0.087   0.682   0.120
22749WAT     H168489   0.086   0.663   0.218
22749WAT     H268490   0.165   0.741   0.099
22750WAT      O68491   8.670   9.025   8.010
22750WAT     H168492   8.623   8.946   7.970
22750WAT     H268493   8.630   9.046   8.099
22751WAT      O68494   3.713   1.690   9.843
22751WAT     H168495   3.751   1.760   9.782
22751WAT     H268496   3.627   1.657   9.805
22752WAT      O68497   6.667   2.411   0.383
22752WAT     H168498   6.679   2.507   0.358
22752WAT     H268499   6.751   2.361   0.363
22753WAT      O68500   1.404   0.847   1.127
22753WAT     H168501   1.328   0.884   1.180
22753WAT     H268502   1.403   0.886   1.035
22754WAT      O68503   1.738   1.991   5.921
22754WAT     H168504   1.781   2.029   5.840
22754WAT     H268505   1.781   2.029   6.003
22755WAT      O68506   1.440   5.785   0.332
22755WAT     H168507   1.403   5.761   0.243
22755WAT     H268508   1.456   5.702   0.385
22756WAT      O68509   7.449   5.610   7.105
22756WAT     H168510   7.515   5.595   7.032
22756WAT     H268511   7.491   5.666   7.177
22757WAT      O68512   0.835   8.305   1.888
22757WAT     H168513   0.891   8.387   1.875
22757WAT     H268514   0.837   8.278   1.985
22758WAT      O68515   1.500   5.806   6.880
22758WAT     H168516   1.445   5.723   6.886
22758WAT     H268517   1.589   5.786   6.839
22759WAT      O68518   8.771   8.377   1.755
22759WAT     H168519   8.693   8.351   1.812
22759WAT     H268520   8.845   8.312   1.769
22760WAT      O68521   6.318   1.762   1.685
22760WAT     H168522   6.349   1.856   1.694
22760WAT     H268523   6.277   1.732   1.772
22761WAT      O68524   3.228   1.123   1.292
22761WAT     H168525   3.157   1.193   1.300
22761WAT     H268526   3.186   1.034   1.279
22762WAT      O68527   5.690   0.387   6.724
22762WAT     H168528   5.737   0.351   6.643
22762WAT     H268529   5.661   0.481   6.707
22763WAT      O68530   0.945   2.879   1.022
22763WAT     H168531   0.993   2.947   1.076
22763WAT     H268532   0.992   2.868   0.934
22764WAT      O68533   6.164   8.584   9.582
22764WAT     H168534   6.119   8.499   9.554
22764WAT     H268535   6.146   8.654   9.513
22765WAT      O68536   0.566   9.059   1.920
22765WAT     H168537   0.478   9.014   1.905
22765WAT     H268538   0.559   9.155   1.894
22766WAT      O68539   6.679   7.920   5.390
22766WAT     H168540   6.757   7.911   5.328
22766WAT     H268541   6.594   7.903   5.339
22767WAT      O68542   0.426   4.744   2.158
22767WAT     H168543   0.444   4.796   2.242
22767WAT     H268544   0.392   4.806   2.087
22768WAT      O68545   4.573   7.061   8.841
22768WAT     H168546   4.482   7.020   8.847
22768WAT     H268547   4.610   7.075   8.933
22769WAT      O68548   2.439   3.164   2.134
22769WAT     H168549   2.373   3.185   2.062
22769WAT     H268550   2.445   3.065   2.146
22770WAT      O68551   1.627   0.532   6.572
22770WAT     H168552   1.707   0.577   6.531
22770WAT     H268553   1.638   0.433   6.564
22771WAT      O68554   6.144   9.044   7.205
22771WAT     H168555   6.067   9.009   7.258
22771WAT     H268556   6.109   9.086   7.121
22772WAT      O68557   5.397   4.299   7.696
22772WAT     H168558   5.357   4.290   7.787
22772WAT     H268559   5.461   4.225   7.680
22773WAT      O68560   4.479   6.772   0.435
22773WAT     H168561   4.496   6.866   0.405
22773WAT     H268562   4.459   6.715   0.355
22774WAT      O68563   0.635   3.991   9.630
22774WAT     H168564   0.556   3.971   9.687
22774WAT     H268565   0.714   4.012   9.689
22775WAT      O68566   2.606   7.189   7.481
22775WAT     H168567   2.663   7.107   7.481
22775WAT     H268568   2.661   7.268   7.512
22776WAT      O68569   3.917   7.271   0.835
22776WAT     H168570   3.861   7.340   0.880
22776WAT     H268571   4.009   7.271   0.874
22777WAT      O68572   3.099   9.019   6.754
22777WAT     H168573   3.052   9.099   6.792
22777WAT     H268574   3.131   8.960   6.829
22778WAT      O68575   1.666   3.846   2.636
22778WAT     H168576   1.642   3.752   2.663
22778WAT     H268577   1.763   3.862   2.657
22779WAT      O68578   3.815   5.908   7.475
22779WAT     H168579   3.809   5.894   7.376
22779WAT     H268580   3.756   5.984   7.502
22780WAT      O68581   0.187   8.830   3.863
22780WAT     H168582   0.261   8.828   3.930
22780WAT     H268583   0.101   8.805   3.907
22781WAT      O68584   2.764   7.169   5.279
22781WAT     H168585   2.844   7.142   5.333
22781WAT     H268586   2.702   7.091   5.271
22782WAT      O68587   5.907   0.735   2.883
22782WAT     H168588   5.983   0.712   2.823
22782WAT     H268589   5.937   0.732   2.978
22783WAT      O68590   1.435   9.817   7.089
22783WAT     H168591   1.392   9.732   7.119
22783WAT     H268592   1.534   9.809   7.096
22784WAT      O68593   9.418   1.821   5.470
22784WAT     H168594   9.470   1.741   5.439
22784WAT     H268595   9.477   1.878   5.528
22785WAT      O68596   1.386   5.784   7.342
22785WAT     H168597   1.473   5.767   7.296
22785WAT     H268598   1.327   5.840   7.283
22786WAT      O68599   0.526   4.530   7.549
22786WAT     H168600   0.463   4.595   7.591
22786WAT     H268601   0.474   4.461   7.498
22787WAT      O68602   7.601   1.116   7.448
22787WAT     H168603   7.619   1.019   7.436
22787WAT     H268604   7.514   1.128   7.496
22788WAT      O68605   7.079   0.072   9.539
22788WAT     H168606   7.053  -0.017   9.575
22788WAT     H268607   7.139   0.119   9.605
22789WAT      O68608   4.200   5.520   0.600
22789WAT     H168609   4.126   5.540   0.664
22789WAT     H268610   4.286   5.511   0.650
22790WAT      O68611   4.256   8.368   0.074
22790WAT     H168612   4.159   8.362   0.094
22790WAT     H268613   4.279   8.460   0.044
22791WAT      O68614   3.738   1.253   7.451
22791WAT     H168615   3.710   1.295   7.365
22791WAT     H268616   3.810   1.308   7.494
22792WAT      O68617   1.515   4.572   6.577
22792WAT     H168618   1.609   4.581   6.545
22792WAT     H268619   1.502   4.628   6.659
22793WAT      O68620   1.369   4.043   9.453
22793WAT     H168621   1.430   4.096   9.394
22793WAT     H268622   1.283   4.027   9.405
22794WAT      O68623   7.079   9.522   0.703
22794WAT     H168624   7.000   9.468   0.673
22794WAT     H268625   7.063   9.556   0.796
22795WAT      O68626   8.611   7.981   4.128
22795WAT     H168627   8.590   7.935   4.214
22795WAT     H268628   8.658   8.067   4.147
22796WAT      O68629   0.796   0.217   6.401
22796WAT     H168630   0.790   0.216   6.301
22796WAT     H268631   0.722   0.273   6.439
22797WAT      O68632   5.084   2.701   9.479
22797WAT     H168633   5.177   2.682   9.510
22797WAT     H268634   5.027   2.620   9.492
22798WAT      O68635   5.799   8.701   4.466
22798WAT     H168636   5.871   8.708   4.534
22798WAT     H268637   5.769   8.605   4.459
22799WAT      O68638   6.579   5.162   5.441
22799WAT     H168639   6.659   5.117   5.400
22799WAT     H268640   6.604   5.197   5.532
22800WAT      O68641   9.242   8.811   3.523
22800WAT     H168642   9.147   8.835   3.502
22800WAT     H268643   9.245   8.716   3.555
22801WAT      O68644   5.817   1.219   5.523
22801WAT     H168645   5.799   1.243   5.428
22801WAT     H268646   5.901   1.262   5.554
22802WAT      O68647   8.493   8.442   5.098
22802WAT     H168648   8.449   8.402   5.018
22802WAT     H268649   8.437   8.518   5.133
22803WAT      O68650   9.726   1.687   4.044
22803WAT     H168651   9.760   1.779   4.023
22803WAT     H268652   9.628   1.691   4.063
22804WAT      O68653   2.215   5.961   1.431
22804WAT     H168654   2.158   6.042   1.418
22804WAT     H268655   2.159   5.886   1.467
22805WAT      O68656   2.971   5.209   2.652
22805WAT     H168657   2.993   5.201   2.750
22805WAT     H268658   2.878   5.246   2.642
22806WAT      O68659   1.537   0.937   8.956
22806WAT     H168660   1.571   0.989   8.877
22806WAT     H268661   1.439   0.920   8.945
22807WAT      O68662   7.508   4.406   9.826
22807WAT     H168663   7.547   4.454   9.747
22807WAT     H268664   7.575   4.402   9.899
22808WAT      O68665   2.985   7.554   8.207
22808WAT     H168666   2.896   7.513   8.227
22808WAT     H268667   2.994   7.641   8.254
22809WAT      O68668   5.944   8.269   0.966
22809WAT     H168669   5.923   8.291   0.871
22809WAT     H268670   5.863   8.286   1.023
22810WAT      O68671   4.930   2.026   8.422
22810WAT     H168672   4.949   2.005   8.326
22810WAT     H268673   4.951   2.122   8.440
22811WAT      O68674   0.953   6.787   9.450
22811WAT     H168675   1.026   6.785   9.381
22811WAT     H268676   0.937   6.695   9.484
22812WAT      O68677   9.867   8.908   8.167
22812WAT     H168678   9.889   8.968   8.244
22812WAT     H268679   9.850   8.816   8.201
22813WAT      O68680   8.852   1.915   2.646
22813WAT     H168681   8.886   1.831   2.605
22813WAT     H268682   8.928   1.976   2.669
22814WAT      O68683   6.228   5.477   2.669
22814WAT     H168684   6.286   5.396   2.658
22814WAT     H268685   6.275   5.557   2.632
22815WAT      O68686   2.219   4.334   2.662
22815WAT     H168687   2.177   4.412   2.708
22815WAT     H268688   2.193   4.250   2.708
22816WAT      O68689   7.036   4.991   4.140
22816WAT     H168690   7.072   5.084   4.133
22816WAT     H268691   6.996   4.978   4.231
22817WAT      O68692   0.599   2.544   0.996
22817WAT     H168693   0.541   2.562   1.076
22817WAT     H268694   0.591   2.448   0.970
22818WAT      O68695   9.040   2.855   6.468
22818WAT     H168696   9.002   2.855   6.375
22818WAT     H268697   8.973   2.818   6.532
22819WAT      O68698   9.637   8.901   7.162
22819WAT     H168699   9.684   8.926   7.246
22819WAT     H268700   9.623   8.982   7.106
22820WAT      O68701   1.849   3.507   4.507
22820WAT     H168702   1.796   3.430   4.542
22820WAT     H268703   1.820   3.527   4.413
22821WAT      O68704   2.063   3.025   6.460
22821WAT     H168705   1.983   3.064   6.414
22821WAT     H268706   2.135   3.094   6.467
22822WAT      O68707   1.589   4.930   6.238
22822WAT     H168708   1.548   4.843   6.212
22822WAT     H268709   1.590   4.992   6.159
22823WAT      O68710   7.182   7.117   3.631
22823WAT     H168711   7.148   7.097   3.539
22823WAT     H268712   7.131   7.064   3.698
22824WAT      O68713   5.019   3.785   7.382
22824WAT     H168714   5.071   3.834   7.452
22824WAT     H268715   5.068   3.789   7.295
22825WAT      O68716   0.438   2.138   3.593
22825WAT     H168717   0.428   2.145   3.692
22825WAT     H268718   0.406   2.048   3.563
22826WAT      O68719   1.178   9.176   4.516
22826WAT     H168720   1.133   9.131   4.593
22826WAT     H268721   1.223   9.107   4.459
22827WAT      O68722   2.788   5.820   2.840
22827WAT     H168723   2.795   5.790   2.935
22827WAT     H268724   2.699   5.795   2.803
22828WAT      O68725   1.462   6.024   1.435
22828WAT     H168726   1.548   6.023   1.385
22828WAT     H268727   1.445   5.934   1.475
22829WAT      O68728   1.757   6.161   4.794
22829WAT     H168729   1.823   6.089   4.816
22829WAT     H268730   1.696   6.175   4.872
22830WAT      O68731   7.736   6.558   1.649
22830WAT     H168732   7.807   6.510   1.700
22830WAT     H268733   7.694   6.496   1.582
22831WAT      O68734   0.531   0.473   3.624
22831WAT     H168735   0.573   0.548   3.675
22831WAT     H268736   0.575   0.465   3.535
22832WAT      O68737   5.895   2.378   7.192
22832WAT     H168738   5.893   2.312   7.117
22832WAT     H268739   5.811   2.370   7.246
22833WAT      O68740   0.577   9.076   5.013
22833WAT     H168741   0.657   9.057   4.957
22833WAT     H268742   0.560   8.998   5.074
22834WAT      O68743   1.648   6.895   8.355
22834WAT     H168744   1.593   6.903   8.272
22834WAT     H268745   1.724   6.961   8.350
22835WAT      O68746   3.114   5.679   5.961
22835WAT     H168747   3.115   5.594   5.909
22835WAT     H268748   3.161   5.751   5.909
22836WAT      O68749   3.702   0.353   0.696
22836WAT     H168750   3.763   0.329   0.772
22836WAT     H268751   3.626   0.408   0.729
22837WAT      O68752   6.718   1.681   9.476
22837WAT     H168753   6.774   1.624   9.536
22837WAT     H268754   6.667   1.624   9.412
22838WAT      O68755   4.524   3.529   1.153
22838WAT     H168756   4.620   3.505   1.146
22838WAT     H268757   4.470   3.447   1.171
22839WAT      O68758   0.506   2.055   5.654
22839WAT     H168759   0.519   2.154   5.648
22839WAT     H268760   0.459   2.022   5.572
22840WAT      O68761   5.799   3.654   5.248
22840WAT     H168762   5.784   3.747   5.217
22840WAT     H268763   5.891   3.646   5.286
22841WAT      O68764   6.120   6.371   3.183
22841WAT     H168765   6.191   6.385   3.252
22841WAT     H268766   6.047   6.439   3.197
22842WAT      O68767   0.850   9.286   9.554
22842WAT     H168768   0.775   9.339   9.593
22842WAT     H268769   0.937   9.326   9.581
22843WAT      O68770   8.231   4.387   0.916
22843WAT     H168771   8.300   4.342   0.973
22843WAT     H268772   8.252   4.484   0.908
22844WAT      O68773   9.369   2.166   2.968
22844WAT     H168774   9.298   2.236   2.962
22844WAT     H268775   9.392   2.149   3.064
22845WAT      O68776   8.518   3.750   8.690
22845WAT     H168777   8.594   3.707   8.640
22845WAT     H268778   8.554   3.797   8.771
22846WAT      O68779   0.156   6.300   0.704
22846WAT     H168780   0.190   6.301   0.610
22846WAT     H268781   0.181   6.214   0.748
22847WAT      O68782   9.042   7.282   5.279
22847WAT     H168783   9.126   7.324   5.313
22847WAT     H268784   8.998   7.343   5.213
22848WAT      O68785   1.403   9.045   4.102
22848WAT     H168786   1.378   8.949   4.089
22848WAT     H268787   1.471   9.053   4.174
22849WAT      O68788   0.804   7.405   1.678
22849WAT     H168789   0.739   7.390   1.603
22849WAT     H268790   0.770   7.478   1.737
22850WAT      O68791   8.993   7.146   1.315
22850WAT     H168792   9.063   7.133   1.384
22850WAT     H268793   9.032   7.193   1.236
22851WAT      O68794   6.691   4.197   6.548
22851WAT     H168795   6.759   4.128   6.524
22851WAT     H268796   6.610   4.185   6.491
22852WAT      O68797   0.478   2.724   7.733
22852WAT     H168798   0.481   2.751   7.830
22852WAT     H268799   0.516   2.798   7.677
22853WAT      O68800   2.390   3.096   5.470
22853WAT     H168801   2.315   3.099   5.535
22853WAT     H268802   2.362   3.139   5.384
22854WAT      O68803   4.798   2.067   2.651
22854WAT     H168804   4.708   2.106   2.629
22854WAT     H268805   4.825   2.097   2.742
22855WAT      O68806   3.231   9.786   8.827
22855WAT     H168807   3.221   9.883   8.804
22855WAT     H268808   3.144   9.751   8.861
22856WAT      O68809   4.614   5.281   5.597
22856WAT     H168810   4.579   5.241   5.682
22856WAT     H268811   4.550   5.263   5.522
22857WAT      O68812   2.065   1.489   9.106
22857WAT     H168813   2.113   1.461   9.023
22857WAT     H268814   1.969   1.506   9.085
22858WAT      O68815   4.269   2.627   5.576
22858WAT     H168816   4.268   2.698   5.646
22858WAT     H268817   4.189   2.567   5.588
22859WAT      O68818   1.430   8.498   7.319
22859WAT     H168819   1.354   8.457   7.269
22859WAT     H268820   1.460   8.436   7.391
22860WAT      O68821   2.909   4.150   6.750
22860WAT     H168822   2.839   4.213   6.784
22860WAT     H268823   2.924   4.166   6.653
22861WAT      O68824   6.744   9.333   3.109
22861WAT     H168825   6.694   9.394   3.047
22861WAT     H268826   6.810   9.280   3.057
22862WAT      O68827   6.747   5.357   7.817
22862WAT     H168828   6.793   5.271   7.791
22862WAT     H268829   6.814   5.431   7.818
22863WAT      O68830   6.677   7.347   3.980
22863WAT     H168831   6.693   7.290   4.060
22863WAT     H268832   6.668   7.443   4.008
22864WAT      O68833   4.495   7.548   5.932
22864WAT     H168834   4.460   7.474   5.989
22864WAT     H268835   4.563   7.512   5.868
22865WAT      O68836   7.483   9.655   1.913
22865WAT     H168837   7.470   9.569   1.962
22865WAT     H268838   7.580   9.677   1.909
22866WAT      O68839   0.285   9.684   1.453
22866WAT     H168840   0.300   9.614   1.383
22866WAT     H268841   0.265   9.771   1.408
22867WAT      O68842   3.484   4.198   7.982
22867WAT     H168843   3.489   4.115   7.927
22867WAT     H268844   3.432   4.180   8.065
22868WAT      O68845   8.012   6.379   8.277
22868WAT     H168846   7.986   6.462   8.229
22868WAT     H268847   8.084   6.331   8.225
22869WAT      O68848   4.215   0.798   1.985
22869WAT     H168849   4.170   0.870   2.037
22869WAT     H268850   4.188   0.708   2.020
22870WAT      O68851   0.653   6.644   7.562
22870WAT     H168852   0.687   6.730   7.598
22870WAT     H268853   0.710   6.615   7.484
22871WAT      O68854   5.366   6.137   2.740
22871WAT     H168855   5.421   6.057   2.763
22871WAT     H268856   5.346   6.136   2.642
22872WAT      O68857   2.508   5.663   7.773
22872WAT     H168858   2.522   5.572   7.735
22872WAT     H268859   2.483   5.656   7.869
22873WAT      O68860   6.451   4.771   6.425
22873WAT     H168861   6.498   4.686   6.448
22873WAT     H268862   6.355   4.752   6.405
22874WAT      O68863   3.519   7.112   9.107
22874WAT     H168864   3.465   7.086   9.026
22874WAT     H268865   3.567   7.197   9.088
22875WAT      O68866   3.899   1.014   4.352
22875WAT     H168867   3.801   1.032   4.348
22875WAT     H268868   3.928   1.007   4.447
22876WAT      O68869   3.211   6.117   1.884
22876WAT     H168870   3.281   6.158   1.825
22876WAT     H268871   3.246   6.031   1.922
22877WAT      O68872   8.508   4.322   0.926
22877WAT     H168873   8.603   4.296   0.937
22877WAT     H268874   8.455   4.243   0.895
22878WAT      O68875   5.112   3.439   3.833
22878WAT     H168876   5.017   3.444   3.801
22878WAT     H268877   5.124   3.498   3.912
22879WAT      O68878   9.069   8.460   4.355
22879WAT     H168879   8.974   8.449   4.327
22879WAT     H268880   9.126   8.473   4.274
22880WAT      O68881   6.125   5.519   7.261
22880WAT     H168882   6.217   5.481   7.255
22880WAT     H268883   6.116   5.572   7.345
22881WAT      O68884   1.369   7.975   7.006
22881WAT     H168885   1.369   7.973   6.906
22881WAT     H268886   1.446   8.031   7.038
22882WAT      O68887   1.713   7.204   8.566
22882WAT     H168888   1.679   7.192   8.472
22882WAT     H268889   1.636   7.197   8.630
22883WAT      O68890   3.149   9.320   3.389
22883WAT     H168891   3.149   9.277   3.479
22883WAT     H268892   3.200   9.406   3.393
22884WAT      O68893   0.045   2.848   1.863
22884WAT     H168894  -0.029   2.845   1.796
22884WAT     H268895   0.126   2.804   1.826
22885WAT      O68896   4.290   2.615   9.385
22885WAT     H168897   4.251   2.573   9.467
22885WAT     H268898   4.291   2.548   9.310
22886WAT      O68899   4.334   6.322   1.108
22886WAT     H168900   4.423   6.279   1.111
22886WAT     H268901   4.274   6.280   1.176
22887WAT      O68902   9.594   4.547   9.884
22887WAT     H168903   9.675   4.545   9.825
22887WAT     H268904   9.569   4.642   9.903
22888WAT      O68905   4.295   1.539   8.657
22888WAT     H168906   4.317   1.629   8.695
22888WAT     H268907   4.305   1.469   8.728
22889WAT      O68908   9.561   7.387   4.117
22889WAT     H168909   9.606   7.448   4.052
22889WAT     H268910   9.536   7.302   4.071
22890WAT      O68911   0.545   2.690   5.462
22890WAT     H168912   0.468   2.750   5.483
22890WAT     H268913   0.513   2.611   5.409
22891WAT      O68914   9.077   0.716   7.217
22891WAT     H168915   8.982   0.708   7.246
22891WAT     H268916   9.121   0.790   7.268
22892WAT      O68917   4.588   4.582   2.152
22892WAT     H168918   4.578   4.642   2.231
22892WAT     H268919   4.511   4.596   2.089
22893WAT      O68920   4.353   8.916   3.042
22893WAT     H168921   4.375   8.920   3.139
22893WAT     H268922   4.436   8.929   2.988
22894WAT      O68923   1.392   1.360   3.799
22894WAT     H168924   1.384   1.423   3.721
22894WAT     H268925   1.395   1.266   3.765
22895WAT      O68926   0.213   2.119   1.907
22895WAT     H168927   0.310   2.138   1.893
22895WAT     H268928   0.185   2.152   1.997
22896WAT      O68929   7.736   1.513   3.098
22896WAT     H168930   7.836   1.512   3.099
22896WAT     H268931   7.702   1.430   3.142
22897WAT      O68932   6.105   7.923   2.186
22897WAT     H168933   6.106   8.010   2.235
22897WAT     H268934   6.130   7.939   2.090
22898WAT      O68935   9.634   4.110   8.915
22898WAT     H168936   9.592   4.172   8.849
22898WAT     H268937   9.563   4.068   8.972
22899WAT      O68938   3.254   2.643   0.792
22899WAT     H168939   3.165   2.683   0.768
22899WAT     H268940   3.319   2.661   0.718
22900WAT      O68941   5.390   6.296   2.135
22900WAT     H168942   5.392   6.262   2.040
22900WAT     H268943   5.309   6.353   2.148
22901WAT      O68944   4.555   9.360   6.270
22901WAT     H168945   4.623   9.398   6.207
22901WAT     H268946   4.580   9.384   6.364
22902WAT      O68947   2.336   2.431   4.376
22902WAT     H168948   2.369   2.466   4.464
22902WAT     H268949   2.382   2.345   4.356
22903WAT      O68950   9.669   6.249   8.678
22903WAT     H168951   9.649   6.336   8.632
22903WAT     H268952   9.691   6.267   8.774
22904WAT      O68953   3.124   3.067   3.634
22904WAT     H168954   3.195   3.024   3.579
22904WAT     H268955   3.076   3.136   3.580
22905WAT      O68956   4.728   1.366   2.252
22905WAT     H168957   4.673   1.407   2.179
22905WAT     H268958   4.713   1.417   2.337
22906WAT      O68959   7.461   3.979   7.829
22906WAT     H168960   7.466   3.880   7.842
22906WAT     H268961   7.439   3.999   7.734
22907WAT      O68962   6.916   5.031   7.032
22907WAT     H168963   6.976   4.959   7.067
22907WAT     H268964   6.843   5.049   7.099
22908WAT      O68965   7.982   5.698   0.290
22908WAT     H168966   7.991   5.773   0.225
22908WAT     H268967   7.956   5.614   0.242
22909WAT      O68968   9.561   2.200   3.615
22909WAT     H168969   9.596   2.252   3.537
22909WAT     H268970   9.597   2.106   3.611
22910WAT      O68971   5.199   1.745   7.770
22910WAT     H168972   5.256   1.737   7.688
22910WAT     H268973   5.150   1.832   7.767
22911WAT      O68974   0.758   4.894   2.817
22911WAT     H168975   0.837   4.894   2.755
22911WAT     H268976   0.765   4.971   2.880
22912WAT      O68977   4.345   5.768   7.767
22912WAT     H168978   4.412   5.706   7.726
22912WAT     H268979   4.301   5.723   7.845
22913WAT      O68980   6.452   9.770   3.685
22913WAT     H168981   6.514   9.795   3.759
22913WAT     H268982   6.467   9.674   3.661
22914WAT      O68983   0.017   2.589   0.474
22914WAT     H168984   0.053   2.629   0.389
22914WAT     H268985   0.067   2.506   0.495
22915WAT      O68986   1.923   7.411   5.270
22915WAT     H168987   1.829   7.442   5.281
22915WAT     H268988   1.923   7.312   5.254
22916WAT      O68989   6.587   3.628   9.401
22916WAT     H168990   6.561   3.624   9.497
22916WAT     H268991   6.529   3.567   9.348
22917WAT      O68992   9.316   8.328   8.519
22917WAT     H168993   9.305   8.424   8.546
22917WAT     H268994   9.303   8.269   8.598
22918WAT      O68995   3.069   7.507   4.463
22918WAT     H168996   2.982   7.489   4.417
22918WAT     H268997   3.056   7.506   4.562
22919WAT      O68998   9.594   8.307   9.300
22919WAT     H168999   9.506   8.262   9.286
22919WAT     H269000   9.597   8.347   9.391
22920WAT      O69001   6.274   2.454   8.825
22920WAT     H169002   6.231   2.544   8.823
22920WAT     H269003   6.369   2.463   8.853
22921WAT      O69004   3.147   7.549   4.996
22921WAT     H169005   3.048   7.541   5.002
22921WAT     H269006   3.176   7.637   5.035
22922WAT      O69007   1.474   7.648   2.069
22922WAT     H169008   1.550   7.594   2.104
22922WAT     H269009   1.484   7.661   1.971
22923WAT      O69010   3.103   4.073   4.059
22923WAT     H169011   3.003   4.071   4.067
22923WAT     H269012   3.129   4.072   3.963
22924WAT      O69013   0.190   6.568   5.941
22924WAT     H169014   0.243   6.521   5.871
22924WAT     H269015   0.094   6.574   5.914
22925WAT      O69016   1.244   8.811   8.314
22925WAT     H169017   1.151   8.848   8.317
22925WAT     H269018   1.302   8.860   8.379
22926WAT      O69019   2.651   8.310   3.749
22926WAT     H169020   2.663   8.407   3.774
22926WAT     H269021   2.621   8.304   3.654
22927WAT      O69022   8.059   8.613   4.533
22927WAT     H169023   8.075   8.651   4.624
22927WAT     H269024   7.977   8.654   4.494
22928WAT      O69025   8.436   2.116   6.012
22928WAT     H169026   8.521   2.130   5.962
22928WAT     H269027   8.415   2.018   6.014
22929WAT      O69028   7.512   2.400   9.836
22929WAT     H169029   7.502   2.404   9.737
22929WAT     H269030   7.422   2.402   9.879
22930WAT      O69031   1.980   9.160   8.969
22930WAT     H169032   1.949   9.254   8.976
22930WAT     H269033   2.072   9.157   8.932
22931WAT      O69034   3.662   4.895   4.945
22931WAT     H169035   3.633   4.867   5.037
22931WAT     H269036   3.649   4.819   4.881
22932WAT      O69037   9.595   4.067   5.975
22932WAT     H169038   9.644   4.084   6.060
22932WAT     H269039   9.650   4.007   5.917
22933WAT      O69040   9.121   7.001   7.061
22933WAT     H169041   9.041   7.059   7.076
22933WAT     H269042   9.108   6.946   6.979
22934WAT      O69043   2.907   8.949   0.027
22934WAT     H169044   2.902   9.047   0.047
22934WAT     H269045   2.831   8.923  -0.032
22935WAT      O69046   7.171   6.264   5.238
22935WAT     H169047   7.163   6.333   5.310
22935WAT     H269048   7.265   6.231   5.233
22936WAT      O69049   0.274   3.619   4.382
22936WAT     H169050   0.251   3.599   4.287
22936WAT     H269051   0.365   3.582   4.404
22937WAT      O69052   8.383   7.810   5.737
22937WAT     H169053   8.323   7.745   5.690
22937WAT     H269054   8.459   7.836   5.677
22938WAT      O69055   4.445   2.806   7.215
22938WAT     H169056   4.354   2.834   7.184
22938WAT     H269057   4.508   2.803   7.137
22939WAT      O69058   7.656   4.608   2.761
22939WAT     H169059   7.695   4.670   2.829
22939WAT     H269060   7.720   4.596   2.686
22940WAT      O69061   2.920   6.914   5.501
22940WAT     H169062   2.957   6.993   5.452
22940WAT     H269063   2.860   6.945   5.574
22941WAT      O69064   9.519   6.735   3.819
22941WAT     H169065   9.514   6.761   3.723
22941WAT     H269066   9.558   6.643   3.826
22942WAT      O69067   1.574   0.909   2.968
22942WAT     H169068   1.653   0.849   2.957
22942WAT     H269069   1.490   0.858   2.945
22943WAT      O69070   7.454   8.328   3.747
22943WAT     H169071   7.503   8.243   3.727
22943WAT     H269072   7.501   8.404   3.704
22944WAT      O69073   5.971   3.106   1.564
22944WAT     H169074   5.952   3.046   1.486
22944WAT     H269075   6.004   3.051   1.641
22945WAT      O69076   9.373   8.612   7.065
22945WAT     H169077   9.471   8.616   7.085
22945WAT     H269078   9.332   8.702   7.077
22946WAT      O69079   9.596   8.443   1.394
22946WAT     H169080   9.552   8.527   1.366
22946WAT     H269081   9.682   8.432   1.345
22947WAT      O69082   0.619   6.398   0.208
22947WAT     H169083   0.612   6.396   0.308
22947WAT     H269084   0.690   6.463   0.181
22948WAT      O69085   9.512   1.551   1.212
22948WAT     H169086   9.451   1.601   1.273
22948WAT     H269087   9.463   1.473   1.173
22949WAT      O69088   7.466   6.448   5.272
22949WAT     H169089   7.440   6.353   5.285
22949WAT     H269090   7.566   6.456   5.272
22950WAT      O69091   0.285   4.453   8.397
22950WAT     H169092   0.242   4.399   8.470
22950WAT     H269093   0.382   4.432   8.392
22951WAT      O69094   7.188   6.221   3.750
22951WAT     H169095   7.097   6.194   3.721
22951WAT     H269096   7.209   6.312   3.713
22952WAT      O69097   9.320   4.053   7.516
22952WAT     H169098   9.352   4.101   7.598
22952WAT     H269099   9.351   3.958   7.519
22953WAT      O69100   2.047   2.289   1.239
22953WAT     H169101   1.974   2.308   1.305
22953WAT     H269102   2.070   2.372   1.188
22954WAT      O69103   1.559   4.176   6.839
22954WAT     H169104   1.511   4.258   6.806
22954WAT     H269105   1.597   4.194   6.930
22955WAT      O69106   4.928   0.561   2.291
22955WAT     H169107   4.884   0.522   2.210
22955WAT     H269108   4.872   0.542   2.371
22956WAT      O69109   8.320   7.823   3.631
22956WAT     H169110   8.386   7.881   3.582
22956WAT     H269111   8.230   7.833   3.589
22957WAT      O69112   5.112   6.203   2.826
22957WAT     H169113   5.098   6.301   2.815
22957WAT     H269114   5.204   6.178   2.793
22958WAT      O69115   9.307   0.776   6.213
22958WAT     H169116   9.293   0.845   6.283
22958WAT     H269117   9.349   0.818   6.132
22959WAT      O69118   8.064   5.231   7.692
22959WAT     H169119   8.153   5.220   7.647
22959WAT     H269120   8.054   5.326   7.723
22960WAT      O69121   8.999   5.587   5.148
22960WAT     H169122   8.912   5.594   5.098
22960WAT     H269123   9.022   5.677   5.186
22961WAT      O69124   0.568   7.277   2.256
22961WAT     H169125   0.550   7.365   2.213
22961WAT     H269126   0.646   7.285   2.318
22962WAT      O69127   3.762   1.419   4.104
22962WAT     H169128   3.692   1.377   4.162
22962WAT     H269129   3.743   1.516   4.095
22963WAT      O69130   5.547   4.967   1.283
22963WAT     H169131   5.545   4.869   1.301
22963WAT     H269132   5.612   5.011   1.345
22964WAT      O69133   5.966   4.081   0.388
22964WAT     H169134   5.986   4.024   0.468
22964WAT     H269135   6.046   4.082   0.327
22965WAT      O69136   3.784   1.769   1.377
22965WAT     H169137   3.743   1.731   1.294
22965WAT     H269138   3.814   1.695   1.437
22966WAT      O69139   8.847   8.587   6.538
22966WAT     H169140   8.846   8.568   6.636
22966WAT     H269141   8.805   8.510   6.489
22967WAT      O69142   4.175   5.488   8.177
22967WAT     H169143   4.149   5.533   8.263
22967WAT     H269144   4.242   5.416   8.196
22968WAT      O69145   9.343   5.634   5.510
22968WAT     H169146   9.364   5.537   5.523
22968WAT     H269147   9.246   5.649   5.529
22969WAT      O69148   3.631   2.831   0.403
22969WAT     H169149   3.553   2.810   0.462
22969WAT     H269150   3.598   2.858   0.313
22970WAT      O69151   7.853   2.630   0.412
22970WAT     H169152   7.891   2.540   0.431
22970WAT     H269153   7.843   2.641   0.313
22971WAT      O69154   1.927   7.764   4.779
22971WAT     H169155   1.993   7.692   4.801
22971WAT     H269156   1.879   7.793   4.862
22972WAT      O69157   2.787   3.918   3.898
22972WAT     H169158   2.835   4.000   3.927
22972WAT     H269159   2.688   3.930   3.913
22973WAT      O69160   4.034   8.375   5.870
22973WAT     H169161   4.047   8.429   5.787
22973WAT     H269162   4.108   8.396   5.935
22974WAT      O69163   9.262   7.291   3.971
22974WAT     H169164   9.238   7.383   4.002
22974WAT     H269165   9.239   7.281   3.874
22975WAT      O69166   8.132   2.059   2.039
22975WAT     H169167   8.156   2.145   2.084
22975WAT     H269168   8.174   1.982   2.089
22976WAT      O69169   7.881   4.323   6.140
22976WAT     H169170   7.855   4.384   6.214
22976WAT     H269171   7.972   4.284   6.159
22977WAT      O69172   8.601   3.313   2.055
22977WAT     H169173   8.610   3.412   2.042
22977WAT     H269174   8.610   3.267   1.967
22978WAT      O69175   8.521   9.437   7.226
22978WAT     H169176   8.426   9.407   7.237
22978WAT     H269177   8.576   9.398   7.300
22979WAT      O69178   9.703   8.887   4.709
22979WAT     H169179   9.740   8.896   4.617
22979WAT     H269180   9.769   8.837   4.766
22980WAT      O69181   2.310   7.077   4.606
22980WAT     H169182   2.212   7.076   4.626
22980WAT     H269183   2.340   6.985   4.583
22981WAT      O69184   1.393   8.325   9.726
22981WAT     H169185   1.454   8.388   9.678
22981WAT     H269186   1.361   8.255   9.663
22982WAT      O69187   4.110   8.024   3.559
22982WAT     H169188   4.093   7.943   3.615
22982WAT     H269189   4.024   8.058   3.522
22983WAT      O69190   9.313   5.043   5.622
22983WAT     H169191   9.368   5.090   5.691
22983WAT     H269192   9.255   4.974   5.666
22984WAT      O69193   0.127   9.750   6.978
22984WAT     H169194   0.034   9.785   6.966
22984WAT     H269195   0.124   9.668   7.035
22985WAT      O69196   2.361   4.714   9.455
22985WAT     H169197   2.461   4.719   9.458
22985WAT     H269198   2.331   4.704   9.360
22986WAT      O69199   3.014   0.650   4.959
22986WAT     H169200   3.074   0.580   4.996
22986WAT     H269201   2.976   0.705   5.033
22987WAT      O69202   2.585   7.187   3.829
22987WAT     H169203   2.620   7.128   3.756
22987WAT     H269204   2.593   7.140   3.917
22988WAT      O69205   8.866   2.060   7.491
22988WAT     H169206   8.844   2.125   7.418
22988WAT     H269207   8.817   1.974   7.474
22989WAT      O69208   9.790   0.102   9.589
22989WAT     H169209   9.869   0.100   9.527
22989WAT     H269210   9.777   0.011   9.629
22990WAT      O69211   1.274   6.566   6.247
22990WAT     H169212   1.231   6.531   6.331
22990WAT     H269213   1.213   6.552   6.170
22991WAT      O69214   5.276   1.987   5.281
22991WAT     H169215   5.269   2.042   5.364
22991WAT     H269216   5.206   1.916   5.283
22992WAT      O69217   9.108   0.172   1.366
22992WAT     H169218   9.030   0.185   1.305
22992WAT     H269219   9.087   0.099   1.432
22993WAT      O69220   7.105   8.106   6.010
22993WAT     H169221   7.106   8.180   6.077
22993WAT     H269222   7.140   8.023   6.053
22994WAT      O69223   7.572   2.289   3.622
22994WAT     H169224   7.621   2.303   3.537
22994WAT     H269225   7.524   2.373   3.647
22995WAT      O69226   9.580   1.981   5.618
22995WAT     H169227   9.568   2.033   5.702
22995WAT     H269228   9.657   1.918   5.628
22996WAT      O69229   9.760   1.340   0.987
22996WAT     H169230   9.684   1.282   0.957
22996WAT     H269231   9.846   1.299   0.958
22997WAT      O69232   3.395   6.574   2.573
22997WAT     H169233   3.332   6.538   2.504
22997WAT     H269234   3.363   6.664   2.603
22998WAT      O69235   9.234   7.656   3.124
22998WAT     H169236   9.272   7.745   3.096
22998WAT     H269237   9.301   7.584   3.105
22999WAT      O69238   6.330   5.847   4.627
22999WAT     H169239   6.319   5.844   4.528
22999WAT     H269240   6.357   5.757   4.661
23000WAT      O69241   9.877   9.119   0.792
23000WAT     H169242   9.821   9.069   0.725
23000WAT     H269243   9.937   9.182   0.744
23001WAT      O69244   9.166   0.091   0.386
23001WAT     H169245   9.119   0.019   0.436
23001WAT     H269246   9.139   0.088   0.290
23002WAT      O69247   7.478   0.317   6.708
23002WAT     H169248   7.537   0.396   6.688
23002WAT     H269249   7.504   0.279   6.797
23003WAT      O69250   0.800   0.274   9.098
23003WAT     H169251   0.853   0.205   9.149
23003WAT     H269252   0.791   0.246   9.003
23004WAT      O69253   1.220   2.739   7.002
23004WAT     H169254   1.264   2.748   6.913
23004WAT     H269255   1.232   2.824   7.054
23005WAT      O69256   3.923   4.259   8.838
23005WAT     H169257   3.965   4.209   8.914
23005WAT     H269258   3.824   4.257   8.848
23006WAT      O69259   0.103   2.285   8.196
23006WAT     H169260   0.072   2.374   8.228
23006WAT     H269261   0.126   2.291   8.098
23007WAT      O69262   8.378   0.761   6.037
23007WAT     H169263   8.328   0.681   6.005
23007WAT     H269264   8.342   0.843   5.991
23008WAT      O69265   7.433   6.422   8.431
23008WAT     H169266   7.434   6.350   8.361
23008WAT     H269267   7.423   6.511   8.386
23009WAT      O69268   3.329   6.830   3.432
23009WAT     H169269   3.377   6.778   3.362
23009WAT     H269270   3.387   6.843   3.512
23010WAT      O69271   8.864   0.226   7.697
23010WAT     H169272   8.819   0.138   7.680
23010WAT     H269273   8.794   0.295   7.717
23011WAT      O69274   0.685   2.890   3.534
23011WAT     H169275   0.711   2.825   3.605
23011WAT     H269276   0.716   2.982   3.559
23012WAT      O69277   3.859   9.056   7.786
23012WAT     H169278   3.879   9.149   7.756
23012WAT     H269279   3.923   8.992   7.743
23013WAT      O69280   4.405   9.269   8.412
23013WAT     H169281   4.454   9.182   8.415
23013WAT     H269282   4.309   9.253   8.433
23014WAT      O69283   5.712   8.081   5.720
23014WAT     H169284   5.792   8.129   5.685
23014WAT     H269285   5.714   8.081   5.820
23015WAT      O69286   8.804   1.073   5.620
23015WAT     H169287   8.804   0.986   5.668
23015WAT     H269288   8.827   1.058   5.523
23016WAT      O69289   6.032   2.240   2.992
23016WAT     H169290   6.059   2.144   2.981
23016WAT     H269291   6.074   2.276   3.075
23017WAT      O69292   3.696   0.833   3.388
23017WAT     H169293   3.604   0.805   3.416
23017WAT     H269294   3.762   0.806   3.458
23018WAT      O69295   3.019   8.180   7.733
23018WAT     H169296   2.930   8.205   7.773
23018WAT     H269297   3.024   8.214   7.640
23019WAT      O69298   4.076   1.480   0.816
23019WAT     H169299   4.132   1.503   0.737
23019WAT     H269300   4.122   1.408   0.869
23020WAT      O69301   3.877   3.508   7.811
23020WAT     H169302   3.927   3.555   7.739
23020WAT     H269303   3.901   3.547   7.900
23021WAT      O69304   0.474   8.110   0.891
23021WAT     H169305   0.468   8.207   0.915
23021WAT     H269306   0.390   8.063   0.919
23022WAT      O69307   3.587   8.148   9.572
23022WAT     H169308   3.524   8.177   9.645
23022WAT     H269309   3.652   8.082   9.608
23023WAT      O69310   7.281   7.878   1.404
23023WAT     H169311   7.335   7.893   1.487
23023WAT     H269312   7.192   7.923   1.414
23024WAT      O69313   3.628   6.672   2.996
23024WAT     H169314   3.703   6.653   2.933
23024WAT     H269315   3.541   6.642   2.955
23025WAT      O69316   7.760   3.612   1.075
23025WAT     H169317   7.790   3.584   0.983
23025WAT     H269318   7.679   3.669   1.067
23026WAT      O69319   5.473   2.233   4.531
23026WAT     H169320   5.432   2.303   4.472
23026WAT     H269321   5.464   2.143   4.488
23027WAT      O69322   0.740   5.178   4.277
23027WAT     H169323   0.796   5.100   4.249
23027WAT     H269324   0.775   5.261   4.233
23028WAT      O69325   7.315   2.604   1.812
23028WAT     H169326   7.322   2.600   1.712
23028WAT     H269327   7.360   2.524   1.851
23029WAT      O69328   6.837   2.885   2.212
23029WAT     H169329   6.896   2.805   2.221
23029WAT     H269330   6.775   2.872   2.135
23030WAT      O69331   1.661   7.242   8.030
23030WAT     H169332   1.628   7.297   8.107
23030WAT     H269333   1.747   7.280   7.996
23031WAT      O69334   2.218   6.317   3.060
23031WAT     H169335   2.231   6.222   3.033
23031WAT     H269336   2.305   6.354   3.092
23032WAT      O69337   8.662   0.581   7.034
23032WAT     H169338   8.694   0.505   6.977
23032WAT     H269339   8.695   0.667   6.995
23033WAT      O69340   4.484   9.672   3.753
23033WAT     H169341   4.476   9.572   3.754
23033WAT     H269342   4.484   9.704   3.658
23034WAT      O69343   5.626   2.938   0.623
23034WAT     H169344   5.694   3.001   0.586
23034WAT     H269345   5.638   2.930   0.722
23035WAT      O69346   4.791   1.943   3.105
23035WAT     H169347   4.695   1.968   3.105
23035WAT     H269348   4.816   1.906   3.016
23036WAT      O69349   2.563   3.130   2.968
23036WAT     H169350   2.495   3.077   2.919
23036WAT     H269351   2.553   3.227   2.944
23037WAT      O69352   6.904   9.263   1.584
23037WAT     H169353   6.845   9.342   1.566
23037WAT     H269354   6.991   9.275   1.537
23038WAT      O69355   5.112   5.308   0.615
23038WAT     H169356   5.132   5.224   0.566
23038WAT     H269357   5.035   5.355   0.572
23039WAT      O69358   6.635   1.021   1.197
23039WAT     H169359   6.582   0.977   1.270
23039WAT     H269360   6.648   1.118   1.218
23040WAT      O69361   7.599   2.025   3.073
23040WAT     H169362   7.627   1.988   3.162
23040WAT     H269363   7.614   2.124   3.072
23041WAT      O69364   1.898   2.852   0.228
23041WAT     H169365   1.921   2.917   0.301
23041WAT     H269366   1.848   2.899   0.156
23042WAT      O69367   0.234   3.929   1.932
23042WAT     H169368   0.242   3.849   1.872
23042WAT     H269369   0.142   3.967   1.925
23043WAT      O69370   1.489   1.913   5.894
23043WAT     H169371   1.458   1.902   5.988
23043WAT     H269372   1.584   1.945   5.894
23044WAT      O69373   8.174   7.017   4.027
23044WAT     H169374   8.169   7.008   3.927
23044WAT     H269375   8.088   6.984   4.067
23045WAT      O69376   0.358   7.690   1.053
23045WAT     H169377   0.455   7.683   1.074
23045WAT     H269378   0.306   7.699   1.138
23046WAT      O69379   5.296   7.187   0.902
23046WAT     H169380   5.327   7.102   0.945
23046WAT     H269381   5.197   7.193   0.908
23047WAT      O69382   1.974   2.488   2.221
23047WAT     H169383   1.970   2.587   2.238
23047WAT     H269384   1.884   2.448   2.238
23048WAT      O69385   4.437   8.196   1.910
23048WAT     H169386   4.488   8.252   1.845
23048WAT     H269387   4.446   8.100   1.886
23049WAT      O69388   0.661   7.410   1.440
23049WAT     H169389   0.712   7.381   1.359
23049WAT     H269390   0.563   7.410   1.421
23050WAT      O69391   4.503   2.843   4.515
23050WAT     H169392   4.543   2.786   4.586
23050WAT     H269393   4.500   2.938   4.546
23051WAT      O69394   1.906   9.475   9.334
23051WAT     H169395   1.869   9.390   9.374
23051WAT     H269396   2.005   9.470   9.331
23052WAT      O69397   1.766   7.330   5.936
23052WAT     H169398   1.790   7.420   5.974
23052WAT     H269399   1.801   7.324   5.843
23053WAT      O69400   3.424   1.398   1.753
23053WAT     H169401   3.459   1.471   1.812
23053WAT     H269402   3.473   1.400   1.666
23054WAT      O69403   1.525   3.704   0.394
23054WAT     H169404   1.507   3.688   0.297
23054WAT     H269405   1.442   3.687   0.447
23055WAT      O69406   1.026   6.305   6.622
23055WAT     H169407   0.963   6.380   6.603
23055WAT     H269408   1.018   6.277   6.717
23056WAT      O69409   1.460   0.971   0.890
23056WAT     H169410   1.558   0.987   0.901
23056WAT     H269411   1.443   0.923   0.804
23057WAT      O69412   2.930   1.827   2.843
23057WAT     H169413   2.873   1.750   2.870
23057WAT     H269414   2.920   1.842   2.744
23058WAT      O69415   7.142   6.879   9.262
23058WAT     H169416   7.076   6.821   9.215
23058WAT     H269417   7.209   6.914   9.196
23059WAT      O69418   8.312   0.513   5.082
23059WAT     H169419   8.299   0.612   5.089
23059WAT     H269420   8.382   0.494   5.014
23060WAT      O69421   7.492   7.563   8.604
23060WAT     H169422   7.574   7.620   8.603
23060WAT     H269423   7.494   7.501   8.526
23061WAT      O69424   9.079   3.846   7.642
23061WAT     H169425   9.140   3.863   7.720
23061WAT     H269426   8.987   3.825   7.676
23062WAT      O69427   2.474   3.726   7.845
23062WAT     H169428   2.417   3.758   7.921
23062WAT     H269429   2.465   3.788   7.767
23063WAT      O69430   4.509   1.393   9.798
23063WAT     H169431   4.542   1.350   9.882
23063WAT     H269432   4.419   1.435   9.816
23064WAT      O69433   8.371   0.911   0.693
23064WAT     H169434   8.288   0.955   0.729
23064WAT     H269435   8.414   0.857   0.766
23065WAT      O69436   0.430   1.996   8.484
23065WAT     H169437   0.513   1.945   8.463
23065WAT     H269438   0.454   2.093   8.496
23066WAT      O69439   7.337   3.839   1.876
23066WAT     H169440   7.343   3.772   1.950
23066WAT     H269441   7.427   3.853   1.836
23067WAT      O69442   8.700   1.929   5.222
23067WAT     H169443   8.620   1.872   5.204
23067WAT     H269444   8.675   2.005   5.281
23068WAT      O69445   7.068   9.554   1.449
23068WAT     H169446   7.153   9.564   1.502
23068WAT     H269447   7.065   9.464   1.407
23069WAT      O69448   8.303   0.651   8.168
23069WAT     H169449   8.281   0.627   8.262
23069WAT     H269450   8.222   0.686   8.122
23070WAT      O69451   5.585   5.331   6.266
23070WAT     H169452   5.510   5.266   6.255
23070WAT     H269453   5.594   5.387   6.184
23071WAT      O69454   2.710   6.626   8.730
23071WAT     H169455   2.737   6.640   8.634
23071WAT     H269456   2.755   6.544   8.765
23072WAT      O69457   4.751   0.492   3.685
23072WAT     H169458   4.683   0.523   3.618
23072WAT     H269459   4.843   0.515   3.651
23073WAT      O69460   1.912   4.539   7.969
23073WAT     H169461   1.905   4.468   8.039
23073WAT     H269462   1.941   4.625   8.011
23074WAT      O69463   1.707   6.836   0.264
23074WAT     H169464   1.682   6.771   0.193
23074WAT     H269465   1.669   6.926   0.243
23075WAT      O69466   7.291   3.651   7.127
23075WAT     H169467   7.331   3.615   7.043
23075WAT     H269468   7.276   3.577   7.192
23076WAT      O69469   9.281   6.786   5.742
23076WAT     H169470   9.199   6.762   5.794
23076WAT     H269471   9.335   6.703   5.726
23077WAT      O69472   6.876   9.119   3.014
23077WAT     H169473   6.943   9.078   2.951
23077WAT     H269474   6.791   9.067   3.012
23078WAT      O69475   0.007   7.782   0.680
23078WAT     H169476  -0.085   7.757   0.708
23078WAT     H269477   0.065   7.795   0.761
23079WAT      O69478   6.456   4.550   4.151
23079WAT     H169479   6.549   4.544   4.187
23079WAT     H269480   6.440   4.642   4.115
23080WAT      O69481   0.980   6.544   6.185
23080WAT     H169482   0.898   6.601   6.190
23080WAT     H269483   1.005   6.513   6.277
23081WAT      O69484   2.691   0.722   6.425
23081WAT     H169485   2.742   0.642   6.456
23081WAT     H269486   2.703   0.734   6.326
23082WAT      O69487   5.342   3.697   8.793
23082WAT     H169488   5.273   3.717   8.863
23082WAT     H269489   5.313   3.618   8.739
23083WAT      O69490   0.082   7.311   8.621
23083WAT     H169491   0.044   7.346   8.536
23083WAT     H269492   0.162   7.255   8.600
23084WAT      O69493   8.108   7.830   5.553
23084WAT     H169494   8.026   7.855   5.604
23084WAT     H269495   8.106   7.732   5.532
23085WAT      O69496   8.194   5.551   5.842
23085WAT     H169497   8.239   5.580   5.757
23085WAT     H269498   8.249   5.579   5.920
23086WAT      O69499   5.441   2.506   6.320
23086WAT     H169500   5.432   2.471   6.413
23086WAT     H269501   5.518   2.462   6.275
23087WAT      O69502   0.535   7.533   4.691
23087WAT     H169503   0.610   7.507   4.631
23087WAT     H269504   0.504   7.454   4.744
23088WAT      O69505   0.747   8.497   6.669
23088WAT     H169506   0.710   8.404   6.671
23088WAT     H269507   0.695   8.554   6.733
23089WAT      O69508   6.774   7.249   9.419
23089WAT     H169509   6.767   7.152   9.442
23089WAT     H269510   6.861   7.267   9.374
23090WAT      O69511   6.984   9.686   4.478
23090WAT     H169512   6.947   9.594   4.464
23090WAT     H269513   6.926   9.753   4.431
23091WAT      O69514   7.798   2.339   8.625
23091WAT     H169515   7.758   2.358   8.535
23091WAT     H269516   7.725   2.310   8.688
23092WAT      O69517   8.101   7.168   5.386
23092WAT     H169518   8.115   7.208   5.296
23092WAT     H269519   8.020   7.207   5.428
23093WAT      O69520   9.827   0.053   0.601
23093WAT     H169521   9.837   0.033   0.503
23093WAT     H269522   9.758   0.123   0.614
23094WAT      O69523   5.413   9.385   4.027
23094WAT     H169524   5.415   9.385   4.127
23094WAT     H269525   5.318   9.394   3.996
23095WAT      O69526   0.705   5.653   7.760
23095WAT     H169527   0.694   5.726   7.693
23095WAT     H269528   0.716   5.692   7.852
23096WAT      O69529   0.903   9.536   0.141
23096WAT     H169530   0.875   9.626   0.108
23096WAT     H269531   0.903   9.536   0.241
23097WAT      O69532   2.415   8.648   9.116
23097WAT     H169533   2.347   8.584   9.151
23097WAT     H269534   2.492   8.653   9.180
23098WAT      O69535   5.725   8.698   5.172
23098WAT     H169536   5.784   8.774   5.201
23098WAT     H269537   5.686   8.654   5.252
23099WAT      O69538   7.394   9.765   6.528
23099WAT     H169539   7.383   9.670   6.501
23099WAT     H269540   7.311   9.795   6.577
23100WAT      O69541   5.467   7.319   5.671
23100WAT     H169542   5.528   7.242   5.693
23100WAT     H269543   5.372   7.291   5.685
23101WAT      O69544   2.261   6.011   7.706
23101WAT     H169545   2.283   5.925   7.660
23101WAT     H269546   2.339   6.039   7.762
23102WAT      O69547   6.879   8.465   2.034
23102WAT     H169548   6.792   8.510   2.052
23102WAT     H269549   6.940   8.478   2.112
23103WAT      O69550   5.216   2.732   7.357
23103WAT     H169551   5.203   2.829   7.339
23103WAT     H269552   5.258   2.721   7.447
23104WAT      O69553   9.858   0.694   3.609
23104WAT     H169554   9.847   0.786   3.649
23104WAT     H269555   9.815   0.692   3.519
23105WAT      O69556   8.351   7.186   3.353
23105WAT     H169557   8.323   7.148   3.265
23105WAT     H269558   8.331   7.284   3.355
23106WAT      O69559   7.773   0.300   2.418
23106WAT     H169560   7.796   0.396   2.404
23106WAT     H269561   7.673   0.289   2.418
23107WAT      O69562   3.227   6.266   2.878
23107WAT     H169563   3.296   6.253   2.807
23107WAT     H269564   3.192   6.177   2.907
23108WAT      O69565   3.243   8.319   5.893
23108WAT     H169566   3.325   8.290   5.843
23108WAT     H269567   3.202   8.241   5.939
23109WAT      O69568   8.462   4.301   7.635
23109WAT     H169569   8.383   4.287   7.695
23109WAT     H269570   8.440   4.371   7.567
23110WAT      O69571   2.318   4.568   5.007
23110WAT     H169572   2.283   4.498   4.945
23110WAT     H269573   2.331   4.654   4.956
23111WAT      O69574   4.058   5.644   0.808
23111WAT     H169575   4.073   5.682   0.899
23111WAT     H269576   4.060   5.717   0.740
23112WAT      O69577   8.685   9.507   2.641
23112WAT     H169578   8.681   9.417   2.596
23112WAT     H269579   8.610   9.564   2.608
23113WAT      O69580   9.840   0.519   1.784
23113WAT     H169581   9.926   0.511   1.734
23113WAT     H269582   9.765   0.485   1.727
23114WAT      O69583   6.196   3.518   8.462
23114WAT     H169584   6.145   3.551   8.541
23114WAT     H269585   6.228   3.425   8.480
23115WAT      O69586   6.882   0.076   3.153
23115WAT     H169587   6.927   0.015   3.218
23115WAT     H269588   6.817   0.135   3.202
23116WAT      O69589   1.520   9.042   3.356
23116WAT     H169590   1.610   9.074   3.385
23116WAT     H269591   1.511   9.053   3.257
23117WAT      O69592   4.276   5.154   9.839
23117WAT     H169593   4.322   5.216   9.776
23117WAT     H269594   4.194   5.198   9.876
23118WAT      O69595   3.177   7.474   2.962
23118WAT     H169596   3.212   7.540   2.896
23118WAT     H269597   3.219   7.385   2.945
23119WAT      O69598   1.643   1.912   0.781
23119WAT     H169599   1.718   1.848   0.762
23119WAT     H269600   1.634   1.924   0.880
23120WAT      O69601   7.063   4.847   2.777
23120WAT     H169602   7.028   4.846   2.683
23120WAT     H269603   6.987   4.834   2.841
23121WAT      O69604   5.292   9.548   0.505
23121WAT     H169605   5.366   9.482   0.490
23121WAT     H269606   5.259   9.539   0.599
23122WAT      O69607   1.858   7.777   0.532
23122WAT     H169608   1.763   7.807   0.541
23122WAT     H269609   1.883   7.723   0.612
23123WAT      O69610   5.908   0.050   8.046
23123WAT     H169611   5.969   0.063   7.968
23123WAT     H269612   5.823   0.099   8.031
23124WAT      O69613   3.502   8.888   6.685
23124WAT     H169614   3.578   8.863   6.625
23124WAT     H269615   3.482   8.813   6.748
23125WAT      O69616   1.341   5.958   0.840
23125WAT     H169617   1.416   5.945   0.904
23125WAT     H269618   1.374   5.946   0.746
23126WAT      O69619   0.212   9.812   9.670
23126WAT     H169620   0.141   9.758   9.716
23126WAT     H269621   0.301   9.768   9.684
23127WAT      O69622   3.945   3.076   8.235
23127WAT     H169623   3.875   3.030   8.181
23127WAT     H269624   4.000   3.134   8.175
23128WAT      O69625   7.074   1.235   1.633
23128WAT     H169626   6.992   1.180   1.616
23128WAT     H269627   7.151   1.197   1.582
23129WAT      O69628   0.728   5.445   8.571
23129WAT     H169629   0.665   5.438   8.493
23129WAT     H269630   0.722   5.362   8.626
23130WAT      O69631   8.874   4.886   5.078
23130WAT     H169632   8.873   4.942   4.995
23130WAT     H269633   8.957   4.906   5.130
23131WAT      O69634   7.544   0.331   1.207
23131WAT     H169635   7.508   0.366   1.121
23131WAT     H269636   7.577   0.237   1.194
23132WAT      O69637   3.340   9.437   4.320
23132WAT     H169638   3.268   9.369   4.309
23132WAT     H269639   3.314   9.502   4.391
23133WAT      O69640   4.694   8.677   1.100
23133WAT     H169641   4.760   8.604   1.082
23133WAT     H269642   4.685   8.689   1.199
23134WAT      O69643   5.432   4.807   1.643
23134WAT     H169644   5.355   4.863   1.616
23134WAT     H269645   5.413   4.765   1.732
23135WAT      O69646   0.986   1.720   8.334
23135WAT     H169647   0.915   1.702   8.266
23135WAT     H269648   1.072   1.743   8.288
23136WAT      O69649   3.735   4.576   2.190
23136WAT     H169650   3.821   4.541   2.224
23136WAT     H269651   3.675   4.500   2.164
23137WAT      O69652   8.291   7.813   5.348
23137WAT     H169653   8.204   7.817   5.397
23137WAT     H269654   8.274   7.785   5.254
23138WAT      O69655   5.041   4.744   9.597
23138WAT     H169656   5.035   4.692   9.512
23138WAT     H269657   4.959   4.800   9.609
23139WAT      O69658   9.686   2.925   8.486
23139WAT     H169659   9.778   2.911   8.525
23139WAT     H269660   9.694   2.939   8.387
23140WAT      O69661   7.256   0.355   8.668
23140WAT     H169662   7.346   0.397   8.683
23140WAT     H269663   7.269   0.260   8.636
23141WAT      O69664   6.556   7.627   4.382
23141WAT     H169665   6.547   7.719   4.344
23141WAT     H269666   6.512   7.561   4.320
23142WAT      O69667   9.579   6.215   3.236
23142WAT     H169668   9.603   6.223   3.333
23142WAT     H269669   9.656   6.245   3.180
23143WAT      O69670   3.654   8.321   3.091
23143WAT     H169671   3.603   8.244   3.129
23143WAT     H269672   3.652   8.317   2.991
23144WAT      O69673   3.854   6.262   8.578
23144WAT     H169674   3.951   6.241   8.563
23144WAT     H269675   3.835   6.355   8.547
23145WAT      O69676   9.716   6.676   1.170
23145WAT     H169677   9.705   6.577   1.164
23145WAT     H269678   9.710   6.705   1.265
23146WAT      O69679   2.987   8.730   3.832
23146WAT     H169680   3.037   8.684   3.758
23146WAT     H269681   2.889   8.715   3.821
23147WAT      O69682   7.166   0.603   5.089
23147WAT     H169683   7.231   0.665   5.046
23147WAT     H269684   7.215   0.543   5.153
23148WAT      O69685   9.372   5.358   5.546
23148WAT     H169686   9.273   5.342   5.539
23148WAT     H269687   9.415   5.279   5.590
23149WAT      O69688   2.960   8.926   2.231
23149WAT     H169689   2.997   8.928   2.324
23149WAT     H269690   2.992   8.843   2.185
23150WAT      O69691   4.803   4.924   7.255
23150WAT     H169692   4.712   4.933   7.295
23150WAT     H269693   4.815   4.831   7.220
23151WAT      O69694   6.200   0.692   2.376
23151WAT     H169695   6.223   0.784   2.346
23151WAT     H269696   6.110   0.667   2.340
23152WAT      O69697   9.745   6.559   7.130
23152WAT     H169698   9.681   6.508   7.188
23152WAT     H269699   9.785   6.634   7.183
23153WAT      O69700   3.124   4.900   1.054
23153WAT     H169701   3.070   4.858   0.981
23153WAT     H269702   3.083   4.988   1.079
23154WAT      O69703   4.193   1.932   7.475
23154WAT     H169704   4.264   1.990   7.516
23154WAT     H269705   4.214   1.836   7.495
23155WAT      O69706   3.801   6.508   7.148
23155WAT     H169707   3.709   6.517   7.185
23155WAT     H269708   3.845   6.426   7.186
23156WAT      O69709   6.102   9.796   2.085
23156WAT     H169710   6.123   9.750   2.171
23156WAT     H269711   6.018   9.849   2.095
23157WAT      O69712   4.728   1.187   9.277
23157WAT     H169713   4.689   1.235   9.355
23157WAT     H269714   4.824   1.163   9.297
23158WAT      O69715   4.270   5.370   2.407
23158WAT     H169716   4.247   5.394   2.313
23158WAT     H269717   4.276   5.453   2.462
23159WAT      O69718   6.713   8.931   2.888
23159WAT     H169719   6.730   8.876   2.806
23159WAT     H269720   6.658   9.011   2.864
23160WAT      O69721   6.004   9.200   4.597
23160WAT     H169722   5.964   9.182   4.687
23160WAT     H269723   6.057   9.285   4.601
23161WAT      O69724   7.122   3.026   1.235
23161WAT     H169725   7.143   3.057   1.328
23161WAT     H269726   7.176   3.079   1.170
23162WAT      O69727   6.047   8.373   9.493
23162WAT     H169728   6.017   8.360   9.398
23162WAT     H269729   5.982   8.330   9.555
23163WAT      O69730   8.744   0.358   0.876
23163WAT     H169731   8.730   0.428   0.806
23163WAT     H269732   8.836   0.367   0.914
23164WAT      O69733   5.462   3.058   7.516
23164WAT     H169734   5.521   2.981   7.540
23164WAT     H269735   5.412   3.037   7.432
23165WAT      O69736   1.528   9.419   5.996
23165WAT     H169737   1.442   9.390   5.953
23165WAT     H269738   1.529   9.518   6.006
23166WAT      O69739   3.584   3.366   7.036
23166WAT     H169740   3.488   3.340   7.024
23166WAT     H269741   3.591   3.432   7.110
23167WAT      O69742   4.296   0.321   7.966
23167WAT     H169743   4.342   0.310   8.054
23167WAT     H269744   4.213   0.376   7.978
23168WAT      O69745   3.250   1.943   7.164
23168WAT     H169746   3.211   1.856   7.196
23168WAT     H269747   3.221   2.017   7.225
23169WAT      O69748   3.265   5.074   7.520
23169WAT     H169749   3.334   5.003   7.505
23169WAT     H269750   3.212   5.088   7.437
23170WAT      O69751   3.991   7.121   3.612
23170WAT     H169752   3.980   7.061   3.691
23170WAT     H269753   3.953   7.211   3.634
23171WAT      O69754   8.824   0.743   7.273
23171WAT     H169755   8.754   0.686   7.231
23171WAT     H269756   8.782   0.806   7.338
23172WAT      O69757   0.352   3.538   9.834
23172WAT     H169758   0.337   3.477   9.912
23172WAT     H269759   0.311   3.627   9.853
23173WAT      O69760   1.328   5.040   3.620
23173WAT     H169761   1.243   4.986   3.622
23173WAT     H269762   1.369   5.038   3.711
23174WAT      O69763   5.763   7.783   7.910
23174WAT     H169764   5.793   7.876   7.889
23174WAT     H269765   5.833   7.718   7.879
23175WAT      O69766   7.016   3.601   6.835
23175WAT     H169767   7.100   3.555   6.864
23175WAT     H269768   7.036   3.660   6.756
23176WAT      O69769   7.539   5.003   2.519
23176WAT     H169770   7.548   4.987   2.618
23176WAT     H269771   7.459   4.955   2.484
23177WAT      O69772   8.794   0.602   1.451
23177WAT     H169773   8.784   0.698   1.478
23177WAT     H269774   8.710   0.552   1.473
23178WAT      O69775   1.044   3.469   1.952
23178WAT     H169776   1.001   3.401   2.011
23178WAT     H269777   1.012   3.560   1.977
23179WAT      O69778   1.045   5.558   4.051
23179WAT     H169779   1.068   5.619   4.127
23179WAT     H269780   1.123   5.552   3.988
23180WAT      O69781   2.557   0.551   2.996
23180WAT     H169782   2.516   0.475   3.046
23180WAT     H269783   2.656   0.553   3.014
23181WAT      O69784   1.599   0.574   1.412
23181WAT     H169785   1.574   0.554   1.507
23181WAT     H269786   1.616   0.672   1.402
23182WAT      O69787   9.345   7.671   5.134
23182WAT     H169788   9.327   7.593   5.073
23182WAT     H269789   9.311   7.755   5.093
23183WAT      O69790   1.164   1.734   4.164
23183WAT     H169791   1.094   1.666   4.147
23183WAT     H269792   1.245   1.714   4.108
23184WAT      O69793   4.759   6.586   9.189
23184WAT     H169794   4.692   6.572   9.117
23184WAT     H269795   4.746   6.676   9.230
23185WAT      O69796   7.548   4.811   8.451
23185WAT     H169797   7.471   4.871   8.473
23185WAT     H269798   7.629   4.867   8.431
23186WAT      O69799   2.422   3.467   0.327
23186WAT     H169800   2.412   3.528   0.248
23186WAT     H269801   2.334   3.460   0.374
23187WAT      O69802   9.561   1.740   1.008
23187WAT     H169803   9.640   1.690   0.971
23187WAT     H269804   9.538   1.704   1.098
23188WAT      O69805   5.042   3.306   0.067
23188WAT     H169806   5.123   3.290   0.123
23188WAT     H269807   4.988   3.380   0.108
23189WAT      O69808   6.817   7.077   7.714
23189WAT     H169809   6.901   7.102   7.667
23189WAT     H269810   6.839   7.048   7.808
23190WAT      O69811   8.093   5.719   6.921
23190WAT     H169812   8.041   5.791   6.968
23190WAT     H269813   8.099   5.739   6.824
23191WAT      O69814   0.441   4.898   3.027
23191WAT     H169815   0.505   4.836   3.072
23191WAT     H269816   0.353   4.896   3.075
23192WAT      O69817   2.603   8.189   0.886
23192WAT     H169818   2.675   8.252   0.916
23192WAT     H269819   2.543   8.168   0.964
23193WAT      O69820   8.121   6.720   1.781
23193WAT     H169821   8.178   6.724   1.699
23193WAT     H269822   8.048   6.653   1.768
23194WAT      O69823   9.197   3.288   4.450
23194WAT     H169824   9.132   3.309   4.377
23194WAT     H269825   9.181   3.194   4.482
23195WAT      O69826   8.852   9.550   7.620
23195WAT     H169827   8.881   9.556   7.524
23195WAT     H269828   8.764   9.503   7.624
23196WAT      O69829   0.767   8.993   4.833
23196WAT     H169830   0.723   8.962   4.749
23196WAT     H269831   0.804   8.914   4.882
23197WAT      O69832   7.119   7.993   4.253
23197WAT     H169833   7.194   8.009   4.317
23197WAT     H269834   7.157   7.968   4.164
23198WAT      O69835   3.507   6.501   1.717
23198WAT     H169836   3.489   6.522   1.813
23198WAT     H269837   3.553   6.578   1.674
23199WAT      O69838   7.101   8.318   8.272
23199WAT     H169839   7.020   8.344   8.325
23199WAT     H269840   7.167   8.394   8.272
23200WAT      O69841   3.499   4.412   5.530
23200WAT     H169842   3.550   4.328   5.512
23200WAT     H269843   3.406   4.402   5.495
23201WAT      O69844   2.863   2.707   2.193
23201WAT     H169845   2.864   2.608   2.186
23201WAT     H269846   2.956   2.741   2.208
23202WAT      O69847   9.659   9.378   0.551
23202WAT     H169848   9.619   9.467   0.531
23202WAT     H269849   9.589   9.307   0.538
23203WAT      O69850   7.480   8.050   9.506
23203WAT     H169851   7.550   8.057   9.435
23203WAT     H269852   7.485   8.131   9.565
23204WAT      O69853   1.897   2.093   2.111
23204WAT     H169854   1.800   2.069   2.112
23204WAT     H269855   1.925   2.115   2.018
23205WAT      O69856   9.285   2.062   5.767
23205WAT     H169857   9.384   2.075   5.771
23205WAT     H269858   9.240   2.132   5.823
23206WAT      O69859   8.327   9.562   6.795
23206WAT     H169860   8.419   9.542   6.760
23206WAT     H269861   8.266   9.582   6.718
23207WAT      O69862   0.469   1.332   7.537
23207WAT     H169863   0.440   1.376   7.452
23207WAT     H269864   0.478   1.233   7.522
23208WAT      O69865   9.212   6.073   2.471
23208WAT     H169866   9.116   6.103   2.473
23208WAT     H269867   9.224   5.997   2.536
23209WAT      O69868   4.411   1.543   2.376
23209WAT     H169869   4.497   1.528   2.424
23209WAT     H269870   4.351   1.600   2.432
23210WAT      O69871   6.332   2.635   7.763
23210WAT     H169872   6.260   2.594   7.708
23210WAT     H269873   6.421   2.616   7.721
23211WAT      O69874   9.007   8.872   9.663
23211WAT     H169875   9.001   8.803   9.591
23211WAT     H269876   8.967   8.836   9.747
23212WAT      O69877   4.291   2.146   2.211
23212WAT     H169878   4.280   2.129   2.113
23212WAT     H269879   4.202   2.140   2.256
23213WAT      O69880   9.596   0.569   4.335
23213WAT     H169881   9.556   0.596   4.423
23213WAT     H269882   9.535   0.504   4.289
23214WAT      O69883   5.512   6.510   9.836
23214WAT     H169884   5.429   6.522   9.891
23214WAT     H269885   5.563   6.596   9.834
23215WAT      O69886   6.673   6.110   5.316
23215WAT     H169887   6.625   6.192   5.287
23215WAT     H269888   6.702   6.120   5.411
23216WAT      O69889   0.570   7.795   0.692
23216WAT     H169890   0.617   7.830   0.773
23216WAT     H269891   0.488   7.744   0.720
23217WAT      O69892   1.346   2.751   7.690
23217WAT     H169893   1.353   2.663   7.736
23217WAT     H269894   1.438   2.780   7.661
23218WAT      O69895   9.879   6.113   6.296
23218WAT     H169896   9.855   6.183   6.229
23218WAT     H269897   9.798   6.057   6.316
23219WAT      O69898   9.526   3.159   6.909
23219WAT     H169899   9.584   3.082   6.882
23219WAT     H269900   9.437   3.150   6.865
23220WAT      O69901   6.801   3.826   6.117
23220WAT     H169902   6.813   3.925   6.129
23220WAT     H269903   6.704   3.804   6.115
23221WAT      O69904   2.463   9.135   3.456
23221WAT     H169905   2.446   9.098   3.365
23221WAT     H269906   2.550   9.101   3.491
23222WAT      O69907   8.710   8.182   7.331
23222WAT     H169908   8.793   8.127   7.327
23222WAT     H269909   8.723   8.267   7.281
23223WAT      O69910   6.057   7.650   4.987
23223WAT     H169911   6.101   7.717   4.927
23223WAT     H269912   6.127   7.591   5.027
23224WAT      O69913   5.340   0.752   6.677
23224WAT     H169914   5.244   0.731   6.693
23224WAT     H269915   5.358   0.847   6.702
23225WAT      O69916   2.711   3.844   3.401
23225WAT     H169917   2.749   3.920   3.454
23225WAT     H269918   2.780   3.772   3.391
23226WAT      O69919   4.346   2.041   8.236
23226WAT     H169920   4.404   2.091   8.300
23226WAT     H269921   4.284   1.982   8.288
23227WAT      O69922   4.337   8.202   7.025
23227WAT     H169923   4.355   8.126   6.963
23227WAT     H269924   4.272   8.173   7.096
23228WAT      O69925   6.131   1.258   9.619
23228WAT     H169926   6.218   1.258   9.668
23228WAT     H269927   6.116   1.168   9.578
23229WAT      O69928   2.230   4.500   0.393
23229WAT     H169929   2.182   4.418   0.424
23229WAT     H269930   2.215   4.513   0.295
23230WAT      O69931   9.092   6.151   4.521
23230WAT     H169932   9.142   6.067   4.541
23230WAT     H269933   9.005   6.128   4.477
23231WAT      O69934   6.243   8.147   0.747
23231WAT     H169935   6.170   8.102   0.797
23231WAT     H269936   6.327   8.143   0.801
23232WAT      O69937   1.814   4.969   7.797
23232WAT     H169938   1.840   5.025   7.875
23232WAT     H269939   1.734   4.914   7.821
23233WAT      O69940   2.415   7.673   0.963
23233WAT     H169941   2.339   7.736   0.944
23233WAT     H269942   2.492   7.725   1.001
23234WAT      O69943   1.062   8.745   3.791
23234WAT     H169944   1.029   8.760   3.698
23234WAT     H269945   0.987   8.760   3.855
23235WAT      O69946   4.483   3.723   0.092
23235WAT     H169947   4.509   3.629   0.069
23235WAT     H269948   4.535   3.787   0.035
23236WAT      O69949   9.169   3.810   6.557
23236WAT     H169950   9.125   3.722   6.577
23236WAT     H269951   9.261   3.811   6.595
23237WAT      O69952   2.529   5.383   2.804
23237WAT     H169953   2.446   5.378   2.859
23237WAT     H269954   2.604   5.417   2.859
23238WAT      O69955   2.958   1.128   7.154
23238WAT     H169956   2.963   1.099   7.249
23238WAT     H269957   2.984   1.052   7.095
23239WAT      O69958   4.713   5.985   9.477
23239WAT     H169959   4.724   6.023   9.386
23239WAT     H269960   4.685   6.058   9.540
23240WAT      O69961   6.945   2.809   6.870
23240WAT     H169962   7.021   2.817   6.935
23240WAT     H269963   6.976   2.760   6.788
23241WAT      O69964   6.438   0.651   6.286
23241WAT     H169965   6.521   0.707   6.278
23241WAT     H269966   6.384   0.683   6.363
23242WAT      O69967   7.106   8.517   7.409
23242WAT     H169968   7.100   8.617   7.397
23242WAT     H269969   7.117   8.496   7.506
23243WAT      O69970   6.514   3.181   3.150
23243WAT     H169971   6.479   3.153   3.240
23243WAT     H269972   6.469   3.265   3.122
23244WAT      O69973   3.273   4.148   3.320
23244WAT     H169974   3.327   4.129   3.238
23244WAT     H269975   3.259   4.063   3.371
23245WAT      O69976   3.001   6.830   4.455
23245WAT     H169977   2.935   6.904   4.472
23245WAT     H269978   3.092   6.869   4.446
23246WAT      O69979   2.596   2.246   8.447
23246WAT     H169980   2.693   2.243   8.473
23246WAT     H269981   2.584   2.195   8.361
23247WAT      O69982   7.344   6.513   4.982
23247WAT     H169983   7.415   6.556   4.926
23247WAT     H269984   7.343   6.554   5.073
23248WAT      O69985   5.339   4.739   1.908
23248WAT     H169986   5.410   4.766   1.973
23248WAT     H269987   5.250   4.762   1.946
23249WAT      O69988   7.758   8.938   9.131
23249WAT     H169989   7.683   9.003   9.143
23249WAT     H269990   7.721   8.849   9.107
23250WAT      O69991   1.824   5.087   0.181
23250WAT     H169992   1.849   5.075   0.085
23250WAT     H269993   1.907   5.089   0.237
23251WAT      O69994   1.475   3.162   5.739
23251WAT     H169995   1.382   3.135   5.714
23251WAT     H269996   1.528   3.080   5.763
23252WAT      O69997   2.951   9.454   1.818
23252WAT     H169998   3.019   9.422   1.753
23252WAT     H269999   2.865   9.404   1.804
23253WAT      O70000   7.591   5.382   3.829
23253WAT     H170001   7.578   5.475   3.794
23253WAT     H270002   7.680   5.347   3.799
23254WAT      O70003   2.229   8.565   3.066
23254WAT     H170004   2.146   8.604   3.027
23254WAT     H270005   2.302   8.634   3.063
23255WAT      O70006   2.962   1.824   0.497
23255WAT     H170007   3.037   1.773   0.455
23255WAT     H270008   2.928   1.891   0.431
23256WAT      O70009   6.314   3.239   2.435
23256WAT     H170010   6.403   3.198   2.412
23256WAT     H270011   6.310   3.331   2.397
23257WAT      O70012   1.197   6.605   9.636
23257WAT     H170013   1.218   6.529   9.698
23257WAT     H270014   1.185   6.689   9.690
23258WAT      O70015   7.226   5.517   9.426
23258WAT     H170016   7.158   5.443   9.427
23258WAT     H270017   7.306   5.488   9.478
23259WAT      O70018   5.950   9.398   1.993
23259WAT     H170019   5.916   9.319   1.943
23259WAT     H270020   6.011   9.451   1.934
23260WAT      O70021   1.875   6.132   3.349
23260WAT     H170022   1.870   6.112   3.251
23260WAT     H270023   1.922   6.057   3.396
23261WAT      O70024   4.564   7.113   5.801
23261WAT     H170025   4.611   7.081   5.883
23261WAT     H270026   4.470   7.079   5.802
23262WAT      O70027   7.025   4.192   5.906
23262WAT     H170028   7.072   4.260   5.850
23262WAT     H270029   7.078   4.107   5.907
23263WAT      O70030   0.648   2.982   0.249
23263WAT     H170031   0.731   2.928   0.231
23263WAT     H270032   0.572   2.944   0.196
23264WAT      O70033   1.202   6.185   0.885
23264WAT     H170034   1.251   6.099   0.894
23264WAT     H270035   1.251   6.246   0.823
23265WAT      O70036   4.439   6.208   0.711
23265WAT     H170037   4.486   6.121   0.698
23265WAT     H270038   4.431   6.255   0.623
23266WAT      O70039   7.378   6.705   6.668
23266WAT     H170040   7.451   6.770   6.649
23266WAT     H270041   7.410   6.640   6.737
23267WAT      O70042   8.099   8.293   3.510
23267WAT     H170043   8.026   8.225   3.509
23267WAT     H270044   8.165   8.269   3.582
23268WAT      O70045   2.360   7.264   4.408
23268WAT     H170046   2.308   7.210   4.474
23268WAT     H270047   2.298   7.300   4.338
23269WAT      O70048   9.204   1.320   8.763
23269WAT     H170049   9.159   1.232   8.774
23269WAT     H270050   9.135   1.390   8.744
23270WAT      O70051   1.557   6.927   5.863
23270WAT     H170052   1.531   6.995   5.794
23270WAT     H270053   1.657   6.928   5.874
23271WAT      O70054   7.715   2.058   5.759
23271WAT     H170055   7.794   1.997   5.750
23271WAT     H270056   7.647   2.014   5.818
23272WAT      O70057   0.333   5.800   5.380
23272WAT     H170058   0.273   5.868   5.421
23272WAT     H270059   0.400   5.845   5.321
23273WAT      O70060   5.503   9.208   1.712
23273WAT     H170061   5.590   9.175   1.748
23273WAT     H270062   5.502   9.308   1.713
23274WAT      O70063   9.625   8.870   9.891
23274WAT     H170064   9.584   8.917   9.813
23274WAT     H270065   9.562   8.800   9.924
23275WAT      O70066   5.582   8.062   2.563
23275WAT     H170067   5.633   8.010   2.493
23275WAT     H270068   5.520   8.126   2.519
23276WAT      O70069   3.823   2.700   6.349
23276WAT     H170070   3.852   2.771   6.285
23276WAT     H270071   3.876   2.617   6.331
23277WAT      O70072   1.321   7.944   8.069
23277WAT     H170073   1.398   7.962   8.007
23277WAT     H270074   1.237   7.983   8.031
23278WAT      O70075   4.112   3.214   7.378
23278WAT     H170076   4.209   3.206   7.401
23278WAT     H270077   4.070   3.283   7.436
23279WAT      O70078   3.034   1.121   8.265
23279WAT     H170079   2.981   1.116   8.349
23279WAT     H270080   3.054   1.217   8.243
23280WAT      O70081   6.848   8.994   2.391
23280WAT     H170082   6.840   9.044   2.477
23280WAT     H270083   6.817   9.052   2.316
23281WAT      O70084   5.731   0.930   9.318
23281WAT     H170085   5.809   0.993   9.325
23281WAT     H270086   5.653   0.968   9.368
23282WAT      O70087   1.408   9.718   5.661
23282WAT     H170088   1.503   9.687   5.673
23282WAT     H270089   1.378   9.698   5.568
23283WAT      O70090   1.088   0.087   5.177
23283WAT     H170091   1.076   0.186   5.171
23283WAT     H270092   1.011   0.047   5.227
23284WAT      O70093   6.662   7.274   5.182
23284WAT     H170094   6.647   7.225   5.096
23284WAT     H270095   6.582   7.262   5.241
23285WAT      O70096   4.466   6.260   7.607
23285WAT     H170097   4.556   6.303   7.591
23285WAT     H270098   4.438   6.211   7.524
23286WAT      O70099   3.017   3.399   7.626
23286WAT     H170100   2.936   3.429   7.576
23286WAT     H270101   3.009   3.426   7.722
23287WAT      O70102   9.283   7.524   6.944
23287WAT     H170103   9.298   7.447   6.882
23287WAT     H270104   9.298   7.496   7.038
23288WAT      O70105   8.315   1.306   9.022
23288WAT     H170106   8.300   1.211   8.997
23288WAT     H270107   8.346   1.311   9.117
23289WAT      O70108   9.587   9.608   6.586
23289WAT     H170109   9.604   9.540   6.656
23289WAT     H270110   9.671   9.625   6.534
23290WAT      O70111   8.030   2.783   7.107
23290WAT     H170112   8.087   2.830   7.175
23290WAT     H270113   8.034   2.832   7.020
23291WAT      O70114   4.522   2.711   1.773
23291WAT     H170115   4.569   2.771   1.839
23291WAT     H270116   4.541   2.616   1.796
23292WAT      O70117   7.531   1.553   1.311
23292WAT     H170118   7.557   1.643   1.347
23292WAT     H270119   7.515   1.560   1.212
23293WAT      O70120   8.502   8.789   0.649
23293WAT     H170121   8.450   8.867   0.683
23293WAT     H270122   8.446   8.706   0.653
23294WAT      O70123   5.172   6.858   8.242
23294WAT     H170124   5.220   6.897   8.164
23294WAT     H270125   5.076   6.886   8.240
23295WAT      O70126   4.286   6.113   6.376
23295WAT     H170127   4.333   6.028   6.352
23295WAT     H270128   4.354   6.184   6.396
23296WAT      O70129   2.546   0.389   8.681
23296WAT     H170130   2.488   0.383   8.763
23296WAT     H270131   2.632   0.434   8.704
23297WAT      O70132   4.523   8.934   9.404
23297WAT     H170133   4.504   8.974   9.493
23297WAT     H270134   4.446   8.952   9.342
23298WAT      O70135   2.902   0.475   0.729
23298WAT     H170136   2.976   0.505   0.789
23298WAT     H270137   2.835   0.422   0.782
23299WAT      O70138   4.922   0.874   9.792
23299WAT     H170139   4.881   0.893   9.703
23299WAT     H270140   5.020   0.893   9.788
23300WAT      O70141   5.165   7.923   7.642
23300WAT     H170142   5.202   7.925   7.735
23300WAT     H270143   5.079   7.873   7.642
23301WAT      O70144   0.421   3.531   7.346
23301WAT     H170145   0.404   3.576   7.258
23301WAT     H270146   0.435   3.601   7.416
23302WAT      O70147   8.788   9.362   3.547
23302WAT     H170148   8.726   9.362   3.626
23302WAT     H270149   8.776   9.277   3.496
23303WAT      O70150   1.487   1.443   6.016
23303WAT     H170151   1.510   1.406   6.106
23303WAT     H270152   1.554   1.511   5.989
23304WAT      O70153   1.622   5.890   0.167
23304WAT     H170154   1.538   5.870   0.218
23304WAT     H270155   1.614   5.854   0.074
23305WAT      O70156   8.233   6.636   5.709
23305WAT     H170157   8.214   6.582   5.791
23305WAT     H270158   8.151   6.689   5.685
23306WAT      O70159   9.274   6.558   0.152
23306WAT     H170160   9.268   6.642   0.099
23306WAT     H270161   9.344   6.498   0.113
23307WAT      O70162   0.850   7.251   4.893
23307WAT     H170163   0.789   7.173   4.905
23307WAT     H270164   0.835   7.317   4.967
23308WAT      O70165   1.455   9.609   3.128
23308WAT     H170166   1.534   9.654   3.168
23308WAT     H270167   1.371   9.657   3.157
23309WAT      O70168   4.240   4.861   0.399
23309WAT     H170169   4.290   4.843   0.314
23309WAT     H270170   4.305   4.875   0.474
23310WAT      O70171   1.001   1.414   1.142
23310WAT     H170172   0.907   1.410   1.108
23310WAT     H270173   1.041   1.323   1.139
23311WAT      O70174   5.812   8.557   9.322
23311WAT     H170175   5.761   8.471   9.329
23311WAT     H270176   5.887   8.546   9.257
23312WAT      O70177   7.611   2.378   9.119
23312WAT     H170178   7.547   2.454   9.121
23312WAT     H270179   7.702   2.410   9.143
23313WAT      O70180   6.717   1.601   0.342
23313WAT     H170181   6.632   1.550   0.330
23313WAT     H270182   6.769   1.599   0.256
23314WAT      O70183   5.053   2.582   7.207
23314WAT     H170184   4.967   2.634   7.200
23314WAT     H270185   5.116   2.630   7.268
23315WAT      O70186   6.555   6.508   1.639
23315WAT     H170187   6.553   6.474   1.545
23315WAT     H270188   6.645   6.547   1.658
23316WAT      O70189   8.829   4.059   1.393
23316WAT     H170190   8.915   4.022   1.356
23316WAT     H270191   8.759   4.054   1.322
23317WAT      O70192   6.662   0.571   4.499
23317WAT     H170193   6.729   0.571   4.573
23317WAT     H270194   6.585   0.512   4.522
23318WAT      O70195   4.696   6.432   5.421
23318WAT     H170196   4.637   6.449   5.501
23318WAT     H270197   4.765   6.364   5.444
23319WAT      O70198   9.607   3.530   7.609
23319WAT     H170199   9.613   3.548   7.511
23319WAT     H270200   9.625   3.614   7.660
23320WAT      O70201   1.889   3.808   4.298
23320WAT     H170202   1.818   3.870   4.330
23320WAT     H270203   1.879   3.719   4.343
23321WAT      O70204   2.880   9.529   1.427
23321WAT     H170205   2.942   9.516   1.505
23321WAT     H270206   2.796   9.478   1.443
23322WAT      O70207   0.921   8.938   5.315
23322WAT     H170208   0.878   9.026   5.333
23322WAT     H270209   0.886   8.869   5.379
23323WAT      O70210   8.888   1.548   0.687
23323WAT     H170211   8.876   1.638   0.730
23323WAT     H270212   8.904   1.479   0.757
23324WAT      O70213   7.126   3.184   8.654
23324WAT     H170214   7.094   3.214   8.743
23324WAT     H270215   7.082   3.097   8.630
23325WAT      O70216   8.663   3.651   5.883
23325WAT     H170217   8.729   3.660   5.809
23325WAT     H270218   8.697   3.587   5.952
23326WAT      O70219   7.412   7.317   7.886
23326WAT     H170220   7.315   7.296   7.876
23326WAT     H270221   7.464   7.274   7.812
23327WAT      O70222   7.591   1.626   1.819
23327WAT     H170223   7.648   1.624   1.901
23327WAT     H270224   7.639   1.674   1.746
23328WAT      O70225   3.146   5.028   5.858
23328WAT     H170226   3.188   5.039   5.948
23328WAT     H270227   3.091   4.944   5.856
23329WAT      O70228   1.573   8.759   3.216
23329WAT     H170229   1.538   8.852   3.228
23329WAT     H270230   1.672   8.758   3.232
23330WAT      O70231   4.496   1.329   6.097
23330WAT     H170232   4.587   1.290   6.112
23330WAT     H270233   4.497   1.425   6.123
23331WAT      O70234   6.846   4.834   8.318
23331WAT     H170235   6.873   4.815   8.224
23331WAT     H270236   6.818   4.749   8.363
23332WAT      O70237   1.085   1.684   1.707
23332WAT     H170238   0.993   1.667   1.672
23332WAT     H270239   1.082   1.760   1.771
23333WAT      O70240   7.682   4.399   8.608
23333WAT     H170241   7.585   4.412   8.629
23333WAT     H270242   7.732   4.484   8.624
23334WAT      O70243   2.901   7.976   3.561
23334WAT     H170244   2.843   7.971   3.479
23334WAT     H270245   2.988   8.018   3.538
23335WAT      O70246   5.209   2.775   7.935
23335WAT     H170247   5.289   2.778   7.875
23335WAT     H270248   5.153   2.858   7.921
23336WAT      O70249   3.812   2.284   7.408
23336WAT     H170250   3.713   2.270   7.411
23336WAT     H270251   3.852   2.257   7.496
23337WAT      O70252   4.754   8.828   6.987
23337WAT     H170253   4.701   8.876   6.917
23337WAT     H270254   4.786   8.893   7.056
23338WAT      O70255   5.858   8.978   8.844
23338WAT     H170256   5.933   8.990   8.779
23338WAT     H270257   5.894   8.952   8.933
23339WAT      O70258   6.478   5.664   9.821
23339WAT     H170259   6.431   5.632   9.903
23339WAT     H270260   6.462   5.598   9.747
23340WAT      O70261   7.890   8.231   4.602
23340WAT     H170262   7.803   8.278   4.592
23340WAT     H270263   7.877   8.133   4.586
23341WAT      O70264   7.908   3.482   3.643
23341WAT     H170265   7.980   3.539   3.682
23341WAT     H270266   7.824   3.536   3.635
23342WAT      O70267   7.131   7.038   6.418
23342WAT     H170268   7.031   7.036   6.417
23342WAT     H270269   7.163   7.010   6.508
23343WAT      O70270   4.583   9.531   4.874
23343WAT     H170271   4.568   9.628   4.853
23343WAT     H270272   4.545   9.475   4.800
23344WAT      O70273   5.868   2.349   4.393
23344WAT     H170274   5.951   2.403   4.401
23344WAT     H270275   5.808   2.367   4.471
23345WAT      O70276   6.801   6.626   2.648
23345WAT     H170277   6.878   6.689   2.635
23345WAT     H270278   6.832   6.532   2.637
23346WAT      O70279   6.104   3.572   2.018
23346WAT     H170280   6.112   3.526   1.929
23346WAT     H270281   6.009   3.598   2.033
23347WAT      O70282   3.991   8.653   3.962
23347WAT     H170283   3.971   8.676   3.867
23347WAT     H270284   3.913   8.677   4.019
23348WAT      O70285   5.810   4.629   2.661
23348WAT     H170286   5.744   4.644   2.735
23348WAT     H270287   5.800   4.702   2.593
23349WAT      O70288   5.466   5.810   4.864
23349WAT     H170289   5.387   5.750   4.865
23349WAT     H270290   5.475   5.852   4.774
23350WAT      O70291   2.925   7.021   5.793
23350WAT     H170292   2.828   7.011   5.813
23350WAT     H270293   2.947   7.118   5.779
23351WAT      O70294   4.397   7.675   6.551
23351WAT     H170295   4.494   7.659   6.572
23351WAT     H270296   4.360   7.596   6.502
23352WAT      O70297   6.435   4.447   9.080
23352WAT     H170298   6.494   4.526   9.066
23352WAT     H270299   6.434   4.421   9.176
23353WAT      O70300   7.040   1.746   9.066
23353WAT     H170301   6.954   1.702   9.093
23353WAT     H270302   7.055   1.827   9.123
23354WAT      O70303   4.574   4.037   7.560
23354WAT     H170304   4.666   4.061   7.530
23354WAT     H270305   4.572   4.030   7.660
23355WAT      O70306   5.616   6.592   0.289
23355WAT     H170307   5.589   6.665   0.226
23355WAT     H270308   5.674   6.629   0.361
23356WAT      O70309   0.747   1.871   9.698
23356WAT     H170310   0.722   1.867   9.795
23356WAT     H270311   0.670   1.905   9.645
23357WAT      O70312   3.811   2.016   4.863
23357WAT     H170313   3.816   2.085   4.790
23357WAT     H270314   3.848   2.055   4.947
23358WAT      O70315   2.091   0.106   9.859
23358WAT     H170316   2.044   0.187   9.894
23358WAT     H270317   2.132   0.056   9.936
23359WAT      O70318   6.432   1.284   0.493
23359WAT     H170319   6.394   1.358   0.548
23359WAT     H270320   6.391   1.197   0.521
23360WAT      O70321   0.865   1.028   3.655
23360WAT     H170322   0.905   0.956   3.711
23360WAT     H270323   0.934   1.097   3.634
23361WAT      O70324   0.093   3.454   9.504
23361WAT     H170325   0.105   3.359   9.478
23361WAT     H270326   0.182   3.496   9.523
23362WAT      O70327   2.800   8.819   4.890
23362WAT     H170328   2.833   8.843   4.981
23362WAT     H270329   2.833   8.727   4.866
23363WAT      O70330   5.963   0.473   5.346
23363WAT     H170331   5.927   0.456   5.438
23363WAT     H270332   6.063   0.468   5.348
23364WAT      O70333   2.755   8.862   2.078
23364WAT     H170334   2.819   8.899   2.146
23364WAT     H270335   2.795   8.871   1.986
23365WAT      O70336   5.818   7.816   5.922
23365WAT     H170337   5.916   7.832   5.938
23365WAT     H270338   5.768   7.900   5.940
23366WAT      O70339   4.386   6.444   5.947
23366WAT     H170340   4.339   6.387   6.015
23366WAT     H270341   4.484   6.442   5.964
23367WAT      O70342   8.185   8.082   2.668
23367WAT     H170343   8.088   8.061   2.678
23367WAT     H270344   8.199   8.181   2.668
23368WAT      O70345   1.470   2.318   1.190
23368WAT     H170346   1.504   2.232   1.229
23368WAT     H270347   1.545   2.382   1.179
23369WAT      O70348   0.717   2.718   3.762
23369WAT     H170349   0.778   2.756   3.832
23369WAT     H270350   0.622   2.736   3.789
23370WAT      O70351   6.344   2.101   0.631
23370WAT     H170352   6.444   2.104   0.626
23370WAT     H270353   6.307   2.192   0.613
23371WAT      O70354   4.376   8.304   5.197
23371WAT     H170355   4.277   8.294   5.209
23371WAT     H270356   4.420   8.311   5.287
23372WAT      O70357   2.445   3.537   6.885
23372WAT     H170358   2.438   3.637   6.883
23372WAT     H270359   2.431   3.500   6.793
23373WAT      O70360   7.850   8.865   9.499
23373WAT     H170361   7.843   8.950   9.446
23373WAT     H270362   7.939   8.862   9.545
23374WAT      O70363   7.407   7.703   5.424
23374WAT     H170364   7.363   7.742   5.342
23374WAT     H270365   7.337   7.669   5.486
23375WAT      O70366   5.841   0.573   4.633
23375WAT     H170367   5.933   0.563   4.671
23375WAT     H270368   5.779   0.512   4.682
23376WAT      O70369   1.074   5.871   9.883
23376WAT     H170370   1.098   5.962   9.850
23376WAT     H270371   0.996   5.878   9.945
23377WAT      O70372   2.066   7.888   3.644
23377WAT     H170373   2.042   7.954   3.715
23377WAT     H270374   2.103   7.805   3.687
23378WAT      O70375   2.977   6.665   0.813
23378WAT     H170376   2.989   6.569   0.840
23378WAT     H270377   2.925   6.713   0.884
23379WAT      O70378   1.015   3.919   8.320
23379WAT     H170379   1.024   3.849   8.391
23379WAT     H270380   0.950   3.888   8.251
23380WAT      O70381   6.508   0.419   5.461
23380WAT     H170382   6.475   0.493   5.402
23380WAT     H270383   6.497   0.445   5.557
23381WAT      O70384   6.081   5.074   2.832
23381WAT     H170385   6.091   5.114   2.741
23381WAT     H270386   6.147   5.117   2.895
23382WAT      O70387   5.764   7.754   4.741
23382WAT     H170388   5.824   7.828   4.773
23382WAT     H270389   5.775   7.675   4.801
23383WAT      O70390   7.713   4.209   7.039
23383WAT     H170391   7.748   4.116   7.052
23383WAT     H270392   7.689   4.222   6.943
23384WAT      O70393   2.886   3.854   6.081
23384WAT     H170394   2.890   3.912   5.999
23384WAT     H270395   2.813   3.887   6.141
23385WAT      O70396   5.548   1.979   9.136
23385WAT     H170397   5.457   1.943   9.118
23385WAT     H270398   5.608   1.958   9.058
23386WAT      O70399   3.849   6.328   4.312
23386WAT     H170400   3.935   6.307   4.266
23386WAT     H270401   3.788   6.248   4.306
23387WAT      O70402   4.589   4.118   5.164
23387WAT     H170403   4.549   4.200   5.124
23387WAT     H270404   4.550   4.103   5.255
23388WAT      O70405   7.315   3.844   1.164
23388WAT     H170406   7.339   3.876   1.255
23388WAT     H270407   7.387   3.783   1.130
23389WAT      O70408   4.689   6.618   3.510
23389WAT     H170409   4.652   6.704   3.477
23389WAT     H270410   4.781   6.604   3.473
23390WAT      O70411   7.877   4.208   7.639
23390WAT     H170412   7.806   4.194   7.709
23390WAT     H270413   7.915   4.300   7.649
23391WAT      O70414   5.157   3.481   7.722
23391WAT     H170415   5.062   3.457   7.742
23391WAT     H270416   5.167   3.497   7.624
23392WAT      O70417   8.930   6.428   0.622
23392WAT     H170418   8.980   6.396   0.702
23392WAT     H270419   8.832   6.416   0.637
23393WAT      O70420   2.246   3.136   4.816
23393WAT     H170421   2.279   3.229   4.832
23393WAT     H270422   2.146   3.134   4.824
23394WAT      O70423   7.545   6.671   3.091
23394WAT     H170424   7.521   6.585   3.046
23394WAT     H270425   7.492   6.746   3.050
23395WAT      O70426   0.149   3.858   6.095
23395WAT     H170427   0.087   3.785   6.066
23395WAT     H270428   0.213   3.823   6.163
23396WAT      O70429   2.938   6.754   7.009
23396WAT     H170430   2.841   6.731   7.006
23396WAT     H270431   2.986   6.707   6.934
23397WAT      O70432   4.498   8.130   1.468
23397WAT     H170433   4.513   8.207   1.530
23397WAT     H270434   4.541   8.048   1.505
23398WAT      O70435   1.672   9.661   5.829
23398WAT     H170436   1.721   9.712   5.757
23398WAT     H270437   1.706   9.567   5.832
23399WAT      O70438   7.164   7.893   2.182
23399WAT     H170439   7.251   7.914   2.228
23399WAT     H270440   7.106   7.839   2.243
23400WAT      O70441   4.440   6.179   1.475
23400WAT     H170442   4.341   6.183   1.488
23400WAT     H270443   4.484   6.244   1.536
23401WAT      O70444   9.257   9.793   2.174
23401WAT     H170445   9.290   9.812   2.082
23401WAT     H270446   9.326   9.741   2.225
23402WAT      O70447   7.639   0.389   7.762
23402WAT     H170448   7.681   0.395   7.671
23402WAT     H270449   7.576   0.465   7.775
23403WAT      O70450   7.322   1.368   4.329
23403WAT     H170451   7.319   1.269   4.341
23403WAT     H270452   7.304   1.390   4.233
23404WAT      O70453   7.685   7.330   4.368
23404WAT     H170454   7.719   7.424   4.366
23404WAT     H270455   7.589   7.328   4.341
23405WAT      O70456   3.952   0.636   0.721
23405WAT     H170457   4.019   0.621   0.648
23405WAT     H270458   3.864   0.659   0.681
23406WAT      O70459   9.491   9.591   7.180
23406WAT     H170460   9.488   9.632   7.089
23406WAT     H270461   9.403   9.550   7.201
23407WAT      O70462   7.737   2.236   1.263
23407WAT     H170463   7.753   2.313   1.324
23407WAT     H270464   7.680   2.267   1.186
23408WAT      O70465   5.485   9.018   8.261
23408WAT     H170466   5.437   9.100   8.292
23408WAT     H270467   5.584   9.030   8.275
23409WAT      O70468   8.722   4.285   8.815
23409WAT     H170469   8.705   4.254   8.909
23409WAT     H270470   8.725   4.385   8.813
23410WAT      O70471   9.083   3.407   2.993
23410WAT     H170472   9.112   3.346   2.919
23410WAT     H270473   9.162   3.458   3.026
23411WAT      O70474   0.947   4.284   1.579
23411WAT     H170475   0.949   4.324   1.487
23411WAT     H270476   0.859   4.303   1.622
23412WAT      O70477   5.301   2.631   9.621
23412WAT     H170478   5.380   2.641   9.559
23412WAT     H270479   5.310   2.546   9.673
23413WAT      O70480   4.625   0.227   3.068
23413WAT     H170481   4.616   0.230   3.168
23413WAT     H270482   4.606   0.318   3.031
23414WAT      O70483   4.960   3.725   4.010
23414WAT     H170484   4.947   3.773   3.923
23414WAT     H270485   4.890   3.755   4.074
23415WAT      O70486   4.986   8.907   9.599
23415WAT     H170487   4.963   8.999   9.566
23415WAT     H270488   5.057   8.868   9.540
23416WAT      O70489   2.190   8.406   3.754
23416WAT     H170490   2.274   8.415   3.808
23416WAT     H270491   2.152   8.496   3.735
23417WAT      O70492   9.204   6.097   0.373
23417WAT     H170493   9.179   6.019   0.315
23417WAT     H270494   9.122   6.149   0.395
23418WAT      O70495   0.620   3.437   5.996
23418WAT     H170496   0.598   3.420   5.900
23418WAT     H270497   0.653   3.530   6.007
23419WAT      O70498   9.423   7.006   6.251
23419WAT     H170499   9.344   7.064   6.236
23419WAT     H270500   9.400   6.912   6.225
23420WAT      O70501   3.880   2.188   4.631
23420WAT     H170502   3.952   2.254   4.652
23420WAT     H270503   3.893   2.152   4.539
23421WAT      O70504   9.126   0.968   2.493
23421WAT     H170505   9.158   0.874   2.508
23421WAT     H270506   9.089   0.976   2.401
23422WAT      O70507   8.150   6.487   5.927
23422WAT     H170508   8.102   6.555   5.983
23422WAT     H270509   8.094   6.404   5.921
23423WAT      O70510   1.328   2.071   3.932
23423WAT     H170511   1.346   1.988   3.880
23423WAT     H270512   1.374   2.066   4.021
23424WAT      O70513   8.384   0.236   6.740
23424WAT     H170514   8.479   0.267   6.730
23424WAT     H270515   8.323   0.304   6.699
23425WAT      O70516   5.495   9.288   1.164
23425WAT     H170517   5.480   9.283   1.263
23425WAT     H270518   5.576   9.235   1.140
23426WAT      O70519   5.259   2.292   2.216
23426WAT     H170520   5.228   2.385   2.236
23426WAT     H270521   5.350   2.295   2.176
23427WAT      O70522   3.162   6.859   6.816
23427WAT     H170523   3.231   6.803   6.862
23427WAT     H270524   3.109   6.908   6.885
23428WAT      O70525   4.557   0.515   9.854
23428WAT     H170526   4.487   0.471   9.798
23428WAT     H270527   4.591   0.451   9.922
23429WAT      O70528   4.808   4.641   8.555
23429WAT     H170529   4.776   4.599   8.470
23429WAT     H270530   4.856   4.572   8.609
23430WAT      O70531   5.023   7.307   5.413
23430WAT     H170532   5.106   7.306   5.358
23430WAT     H270533   4.959   7.239   5.378
23431WAT      O70534   7.310   6.566   6.410
23431WAT     H170535   7.214   6.553   6.384
23431WAT     H270536   7.315   6.625   6.491
23432WAT      O70537   6.726   1.986   6.379
23432WAT     H170538   6.773   1.898   6.388
23432WAT     H270539   6.673   1.988   6.294
23433WAT      O70540   7.284   8.446   9.188
23433WAT     H170541   7.306   8.533   9.231
23433WAT     H270542   7.307   8.450   9.091
23434WAT      O70543   1.951   4.616   8.288
23434WAT     H170544   1.976   4.677   8.213
23434WAT     H270545   2.033   4.586   8.337
23435WAT      O70546   9.314   0.421   2.452
23435WAT     H170547   9.237   0.358   2.462
23435WAT     H270548   9.309   0.467   2.363
23436WAT      O70549   6.299   5.818   0.756
23436WAT     H170550   6.310   5.855   0.664
23436WAT     H270551   6.227   5.749   0.756
23437WAT      O70552   5.641   1.982   5.743
23437WAT     H170553   5.678   1.899   5.784
23437WAT     H270554   5.598   2.038   5.813
23438WAT      O70555   9.085   5.136   5.364
23438WAT     H170556   9.132   5.172   5.445
23438WAT     H270557   8.986   5.148   5.375
23439WAT      O70558   7.960   9.413   5.444
23439WAT     H170559   7.919   9.493   5.399
23439WAT     H270560   8.012   9.361   5.377
23440WAT      O70561   1.402   2.595   6.062
23440WAT     H170562   1.397   2.514   6.002
23440WAT     H270563   1.311   2.622   6.090
23441WAT      O70564   8.396   2.545   5.326
23441WAT     H170565   8.374   2.449   5.311
23441WAT     H270566   8.405   2.592   5.238
23442WAT      O70567   4.803   6.238   8.694
23442WAT     H170568   4.803   6.146   8.654
23442WAT     H270569   4.772   6.304   8.626
23443WAT      O70570   2.411   4.356   8.699
23443WAT     H170571   2.476   4.327   8.769
23443WAT     H270572   2.429   4.451   8.674
23444WAT      O70573   0.241   5.947   3.846
23444WAT     H170574   0.165   6.005   3.818
23444WAT     H270575   0.232   5.924   3.943
23445WAT      O70576   6.314   9.276   1.741
23445WAT     H170577   6.299   9.227   1.827
23445WAT     H270578   6.405   9.253   1.706
23446WAT      O70579   3.197   3.347   3.877
23446WAT     H170580   3.103   3.320   3.897
23446WAT     H270581   3.198   3.439   3.838
23447WAT      O70582   5.566   2.356   5.351
23447WAT     H170583   5.604   2.448   5.345
23447WAT     H270584   5.585   2.317   5.441
23448WAT      O70585   6.232   6.102   0.182
23448WAT     H170586   6.252   6.016   0.136
23448WAT     H270587   6.317   6.151   0.200
23449WAT      O70588   1.260   7.255   5.682
23449WAT     H170589   1.281   7.305   5.597
23449WAT     H270590   1.334   7.268   5.747
23450WAT      O70591   3.321   1.406   6.386
23450WAT     H170592   3.419   1.400   6.365
23450WAT     H270593   3.268   1.393   6.302
23451WAT      O70594   4.991   7.612   5.739
23451WAT     H170595   4.983   7.548   5.815
23451WAT     H270596   5.082   7.654   5.740
23452WAT      O70597   2.755   6.786   6.509
23452WAT     H170598   2.657   6.805   6.511
23452WAT     H270599   2.772   6.695   6.547
23453WAT      O70600   9.788   2.561   9.569
23453WAT     H170601   9.830   2.617   9.641
23453WAT     H270602   9.815   2.466   9.580
23454WAT      O70603   2.545   8.047   9.371
23454WAT     H170604   2.533   7.952   9.342
23454WAT     H270605   2.490   8.063   9.453
23455WAT      O70606   3.062   1.877   2.225
23455WAT     H170607   3.041   1.963   2.178
23455WAT     H270608   2.978   1.835   2.258
23456WAT      O70609   2.849   0.415   4.021
23456WAT     H170610   2.944   0.445   4.012
23456WAT     H270611   2.805   0.465   4.095
23457WAT      O70612   1.147   0.279   4.364
23457WAT     H170613   1.174   0.375   4.372
23457WAT     H270614   1.070   0.262   4.426
23458WAT      O70615   4.797   5.487   6.051
23458WAT     H170616   4.858   5.409   6.060
23458WAT     H270617   4.705   5.461   6.081
23459WAT      O70618   1.086   9.201   2.981
23459WAT     H170619   1.034   9.144   2.917
23459WAT     H270620   1.180   9.210   2.950
23460WAT      O70621   6.626   6.956   4.006
23460WAT     H170622   6.690   6.882   4.028
23460WAT     H270623   6.583   6.938   3.918
23461WAT      O70624   5.398   2.463   5.177
23461WAT     H170625   5.445   2.398   5.238
23461WAT     H270626   5.409   2.556   5.213
23462WAT      O70627   6.217   6.012   2.271
23462WAT     H170628   6.311   6.003   2.304
23462WAT     H270629   6.190   5.928   2.224
23463WAT      O70630   5.657   2.224   2.960
23463WAT     H170631   5.607   2.267   2.884
23463WAT     H270632   5.753   2.217   2.936
23464WAT      O70633   7.820   9.258   3.569
23464WAT     H170634   7.781   9.298   3.652
23464WAT     H270635   7.757   9.191   3.530
23465WAT      O70636   2.862   8.930   5.127
23465WAT     H170637   2.949   8.907   5.169
23465WAT     H270638   2.813   8.995   5.185
23466WAT      O70639   0.990   5.374   0.072
23466WAT     H170640   1.069   5.404   0.127
23466WAT     H270641   1.022   5.318  -0.004
23467WAT      O70642   4.798   3.279   2.385
23467WAT     H170643   4.773   3.320   2.473
23467WAT     H270644   4.895   3.252   2.388
23468WAT      O70645   0.171   4.795   0.378
23468WAT     H170646   0.086   4.748   0.353
23468WAT     H270647   0.149   4.881   0.425
23469WAT      O70648   3.212   9.502   2.460
23469WAT     H170649   3.179   9.451   2.381
23469WAT     H270650   3.282   9.449   2.508
23470WAT      O70651   2.448   5.095   7.593
23470WAT     H170652   2.497   5.039   7.526
23470WAT     H270653   2.351   5.071   7.592
23471WAT      O70654   3.961   5.487   7.984
23471WAT     H170655   4.016   5.518   8.062
23471WAT     H270656   3.875   5.538   7.982
23472WAT      O70657   2.011   3.623   2.843
23472WAT     H170658   1.961   3.707   2.862
23472WAT     H270659   2.041   3.582   2.929
23473WAT      O70660   0.723   6.959   6.366
23473WAT     H170661   0.655   6.988   6.298
23473WAT     H270662   0.767   7.040   6.406
23474WAT      O70663   6.929   0.350   2.833
23474WAT     H170664   6.881   0.263   2.844
23474WAT     H270665   6.872   0.424   2.869
23475WAT      O70666   7.592   3.392   4.347
23475WAT     H170667   7.606   3.371   4.444
23475WAT     H270668   7.575   3.307   4.297
23476WAT      O70669   9.253   7.896   1.333
23476WAT     H170670   9.156   7.908   1.355
23476WAT     H270671   9.271   7.800   1.311
23477WAT      O70672   2.379   5.658   3.147
23477WAT     H170673   2.335   5.744   3.169
23477WAT     H270674   2.341   5.620   3.063
23478WAT      O70675   0.690   9.126   9.116
23478WAT     H170676   0.668   9.214   9.072
23478WAT     H270677   0.613   9.063   9.105
23479WAT      O70678   5.847   2.107   8.523
23479WAT     H170679   5.772   2.165   8.491
23479WAT     H270680   5.916   2.163   8.568
23480WAT      O70681   7.409   3.702   3.916
23480WAT     H170682   7.364   3.785   3.884
23480WAT     H270683   7.341   3.639   3.952
23481WAT      O70684   8.378   1.110   8.515
23481WAT     H170685   8.328   1.152   8.591
23481WAT     H270686   8.313   1.079   8.445
23482WAT      O70687   0.304   8.556   7.819
23482WAT     H170688   0.257   8.530   7.734
23482WAT     H270689   0.272   8.646   7.848
23483WAT      O70690   4.747   6.494   8.236
23483WAT     H170691   4.840   6.459   8.244
23483WAT     H270692   4.684   6.418   8.219
23484WAT      O70693   2.608   4.619   2.746
23484WAT     H170694   2.570   4.608   2.654
23484WAT     H270695   2.707   4.627   2.741
23485WAT      O70696   8.282   4.640   2.307
23485WAT     H170697   8.323   4.559   2.350
23485WAT     H270698   8.289   4.632   2.207
23486WAT      O70699   8.470   0.298   2.412
23486WAT     H170700   8.485   0.286   2.510
23486WAT     H270701   8.547   0.261   2.361
23487WAT      O70702   0.219   6.858   2.426
23487WAT     H170703   0.290   6.793   2.455
23487WAT     H270704   0.261   6.933   2.375
23488WAT      O70705   0.974   0.199   1.450
23488WAT     H170706   1.043   0.144   1.498
23488WAT     H270707   1.012   0.234   1.365
23489WAT      O70708   6.554   6.512   7.653
23489WAT     H170709   6.592   6.591   7.701
23489WAT     H270710   6.556   6.529   7.554
23490WAT      O70711   1.094   5.378   4.899
23490WAT     H170712   1.051   5.397   4.987
23490WAT     H270713   1.039   5.311   4.848
23491WAT      O70714   8.755   7.521   0.896
23491WAT     H170715   8.763   7.466   0.978
23491WAT     H270716   8.748   7.618   0.921
23492WAT      O70717   1.914   2.763   2.295
23492WAT     H170718   1.985   2.833   2.302
23492WAT     H270719   1.824   2.807   2.285
23493WAT      O70720   1.231   1.807   3.560
23493WAT     H170721   1.292   1.858   3.500
23493WAT     H270722   1.136   1.833   3.540
23494WAT      O70723   6.205   6.029   1.881
23494WAT     H170724   6.296   6.004   1.849
23494WAT     H270725   6.212   6.109   1.942
23495WAT      O70726   1.433   8.176   1.832
23495WAT     H170727   1.515   8.184   1.889
23495WAT     H270728   1.430   8.253   1.768
23496WAT      O70729   0.769   8.355   2.546
23496WAT     H170730   0.704   8.401   2.607
23496WAT     H270731   0.748   8.378   2.451
23497WAT      O70732   2.665   4.091   1.436
23497WAT     H170733   2.697   4.049   1.351
23497WAT     H270734   2.613   4.024   1.489
23498WAT      O70735   6.038   0.320   1.261
23498WAT     H170736   5.965   0.374   1.304
23498WAT     H270737   6.073   0.253   1.326
23499WAT      O70738   0.587   3.465   1.127
23499WAT     H170739   0.630   3.375   1.120
23499WAT     H270740   0.550   3.477   1.219
23500WAT      O70741   5.118   3.376   4.679
23500WAT     H170742   5.171   3.440   4.735
23500WAT     H270743   5.078   3.305   4.738
23501WAT      O70744   2.620   4.018   0.985
23501WAT     H170745   2.562   4.096   0.963
23501WAT     H270746   2.569   3.952   1.040
23502WAT      O70747   7.308   2.087   4.091
23502WAT     H170748   7.235   2.149   4.061
23502WAT     H270749   7.383   2.090   4.025
23503WAT      O70750   5.640   3.165   9.412
23503WAT     H170751   5.559   3.217   9.387
23503WAT     H270752   5.615   3.093   9.476
23504WAT      O70753   5.229   1.363   9.750
23504WAT     H170754   5.198   1.405   9.665
23504WAT     H270755   5.151   1.350   9.811
23505WAT      O70756   0.497   2.862   1.566
23505WAT     H170757   0.407   2.905   1.578
23505WAT     H270758   0.506   2.831   1.472
23506WAT      O70759   6.260   6.811   3.788
23506WAT     H170760   6.169   6.809   3.747
23506WAT     H270761   6.253   6.798   3.887
23507WAT      O70762   5.117   7.526   9.543
23507WAT     H170763   5.089   7.537   9.638
23507WAT     H270764   5.066   7.590   9.485
23508WAT      O70765   9.562   5.813   3.445
23508WAT     H170766   9.534   5.903   3.410
23508WAT     H270767   9.546   5.810   3.544
23509WAT      O70768   3.547   3.458   7.975
23509WAT     H170769   3.614   3.385   7.960
23509WAT     H270770   3.478   3.427   8.040
23510WAT      O70771   3.436   8.077   3.957
23510WAT     H170772   3.449   8.045   4.051
23510WAT     H270773   3.419   7.998   3.898
23511WAT      O70774   4.880   9.435   6.456
23511WAT     H170775   4.784   9.407   6.468
23511WAT     H270776   4.939   9.354   6.466
23512WAT      O70777   2.686   8.029   0.690
23512WAT     H170778   2.782   8.010   0.714
23512WAT     H270779   2.647   8.093   0.756
23513WAT      O70780   9.339   5.310   9.149
23513WAT     H170781   9.308   5.324   9.055
23513WAT     H270782   9.286   5.237   9.191
23514WAT      O70783   5.409   5.347   7.062
23514WAT     H170784   5.314   5.319   7.046
23514WAT     H270785   5.470   5.291   7.007
23515WAT      O70786   0.344   5.929   8.746
23515WAT     H170787   0.251   5.958   8.769
23515WAT     H270788   0.340   5.851   8.684
23516WAT      O70789   9.278   5.167   4.648
23516WAT     H170790   9.182   5.143   4.631
23516WAT     H270791   9.300   5.251   4.599
23517WAT      O70792   9.486   1.750   6.035
23517WAT     H170793   9.540   1.834   6.047
23517WAT     H270794   9.467   1.737   5.937
23518WAT      O70795   2.435   7.401   5.047
23518WAT     H170796   2.487   7.321   5.017
23518WAT     H270797   2.426   7.466   4.972
23519WAT      O70798   9.877   2.043   8.273
23519WAT     H170799   9.790   2.042   8.225
23519WAT     H270800   9.926   2.128   8.252
23520WAT      O70801   6.073   6.301   7.032
23520WAT     H170802   6.068   6.303   6.933
23520WAT     H270803   6.161   6.263   7.061
23521WAT      O70804   6.632   6.656   7.919
23521WAT     H170805   6.712   6.601   7.896
23521WAT     H270806   6.615   6.652   8.017
23522WAT      O70807   2.431   5.918   4.729
23522WAT     H170808   2.513   5.938   4.675
23522WAT     H270809   2.400   5.825   4.711
23523WAT      O70810   9.409   6.316   2.203
23523WAT     H170811   9.386   6.363   2.118
23523WAT     H270812   9.493   6.355   2.241
23524WAT      O70813   7.322   0.243   7.698
23524WAT     H170814   7.234   0.211   7.662
23524WAT     H270815   7.307   0.289   7.785
23525WAT      O70816   8.112   4.963   1.311
23525WAT     H170817   8.212   4.954   1.318
23525WAT     H270818   8.085   4.965   1.215
23526WAT      O70819   4.771   3.574   5.383
23526WAT     H170820   4.839   3.646   5.365
23526WAT     H270821   4.801   3.489   5.338
23527WAT      O70822   7.198   3.853   0.619
23527WAT     H170823   7.143   3.917   0.565
23527WAT     H270824   7.185   3.761   0.582
23528WAT      O70825   7.980   0.093   8.575
23528WAT     H170826   7.886   0.113   8.550
23528WAT     H270827   7.986   0.001   8.615
23529WAT      O70828   4.806   1.868   5.357
23529WAT     H170829   4.812   1.869   5.457
23529WAT     H270830   4.749   1.944   5.326
23530WAT      O70831   8.028   3.988   0.240
23530WAT     H170832   8.007   4.058   0.172
23530WAT     H270833   8.127   3.978   0.248
23531WAT      O70834   9.867   5.215   8.627
23531WAT     H170835   9.811   5.216   8.710
23531WAT     H270836   9.955   5.173   8.647
23532WAT      O70837   2.757   8.283   0.186
23532WAT     H170838   2.724   8.214   0.249
23532WAT     H270839   2.851   8.262   0.159
23533WAT      O70840   8.992   6.721   3.996
23533WAT     H170841   8.922   6.748   3.930
23533WAT     H270842   9.005   6.795   4.062
23534WAT      O70843   5.476   7.005   8.780
23534WAT     H170844   5.521   6.916   8.788
23534WAT     H270845   5.398   7.009   8.843
23535WAT      O70846   7.638   4.141   1.999
23535WAT     H170847   7.666   4.046   2.006
23535WAT     H270848   7.697   4.189   1.933
23536WAT      O70849   8.945   4.577   1.207
23536WAT     H170850   8.884   4.524   1.267
23536WAT     H270851   9.011   4.515   1.164
23537WAT      O70852   4.965   7.882   3.706
23537WAT     H170853   4.916   7.796   3.699
23537WAT     H270854   4.930   7.935   3.784
23538WAT      O70855   8.779   4.926   8.377
23538WAT     H170856   8.762   4.847   8.318
23538WAT     H270857   8.813   5.002   8.321
23539WAT      O70858   1.476   9.615   2.342
23539WAT     H170859   1.404   9.665   2.293
23539WAT     H270860   1.497   9.662   2.428
23540WAT      O70861   8.100   2.930   4.352
23540WAT     H170862   8.146   3.018   4.337
23540WAT     H270863   8.152   2.857   4.308
23541WAT      O70864   5.709   1.805   9.360
23541WAT     H170865   5.741   1.762   9.276
23541WAT     H270866   5.614   1.836   9.348
23542WAT      O70867   5.381   1.584   3.839
23542WAT     H170868   5.281   1.585   3.841
23542WAT     H270869   5.412   1.529   3.762
23543WAT      O70870   3.952   3.711   3.209
23543WAT     H170871   4.029   3.682   3.152
23543WAT     H270872   3.876   3.646   3.199
23544WAT      O70873   1.036   5.943   8.134
23544WAT     H170874   0.967   5.985   8.192
23544WAT     H270875   0.991   5.893   8.060
23545WAT      O70876   5.251   7.338   8.710
23545WAT     H170877   5.181   7.269   8.725
23545WAT     H270878   5.280   7.376   8.798
23546WAT      O70879   0.827   9.172   4.237
23546WAT     H170880   0.828   9.233   4.158
23546WAT     H270881   0.866   9.217   4.316
23547WAT      O70882   9.821   8.101   2.893
23547WAT     H170883   9.864   8.162   2.828
23547WAT     H270884   9.826   8.140   2.985
23548WAT      O70885   2.820   6.441   7.089
23548WAT     H170886   2.777   6.352   7.107
23548WAT     H270887   2.803   6.503   7.166
23549WAT      O70888   2.575   7.096   6.195
23549WAT     H170889   2.532   7.157   6.128
23549WAT     H270890   2.547   7.122   6.287
23550WAT      O70891   9.631   9.326   7.158
23550WAT     H170892   9.622   9.425   7.145
23550WAT     H270893   9.684   9.308   7.241
23551WAT      O70894   5.312   1.798   7.141
23551WAT     H170895   5.367   1.882   7.149
23551WAT     H270896   5.366   1.720   7.171
23552WAT      O70897   1.802   2.929   7.889
23552WAT     H170898   1.877   2.973   7.938
23552WAT     H270899   1.831   2.839   7.857
23553WAT      O70900   1.100   1.924   9.680
23553WAT     H170901   1.047   1.870   9.615
23553WAT     H270902   1.145   1.999   9.632
23554WAT      O70903   3.822   9.476   4.188
23554WAT     H170904   3.906   9.475   4.133
23554WAT     H270905   3.792   9.570   4.202
23555WAT      O70906   9.189   1.079   1.281
23555WAT     H170907   9.184   1.089   1.181
23555WAT     H270908   9.270   1.026   1.305
23556WAT      O70909   5.745   5.008   8.591
23556WAT     H170910   5.819   4.989   8.526
23556WAT     H270911   5.667   5.045   8.541
23557WAT      O70912   6.504   2.126   3.804
23557WAT     H170913   6.593   2.093   3.773
23557WAT     H270914   6.517   2.201   3.869
23558WAT      O70915   8.222   6.422   3.139
23558WAT     H170916   8.152   6.441   3.208
23558WAT     H270917   8.309   6.400   3.184
23559WAT      O70918   9.747   6.457   9.039
23559WAT     H170919   9.754   6.363   9.009
23559WAT     H270920   9.652   6.487   9.030
23560WAT      O70921   3.124   2.574   4.212
23560WAT     H170922   3.123   2.577   4.312
23560WAT     H270923   3.044   2.622   4.176
23561WAT      O70924   9.689   7.809   7.135
23561WAT     H170925   9.752   7.885   7.143
23561WAT     H270926   9.601   7.842   7.099
23562WAT      O70927   2.745   5.781   9.033
23562WAT     H170928   2.762   5.683   9.034
23562WAT     H270929   2.829   5.829   9.008
23563WAT      O70930   8.504   0.976   1.454
23563WAT     H170931   8.559   0.953   1.374
23563WAT     H270932   8.411   0.943   1.441
23564WAT      O70933   3.053   8.649   5.603
23564WAT     H170934   2.981   8.682   5.664
23564WAT     H270935   3.095   8.726   5.555
23565WAT      O70936   1.947   4.365   0.052
23565WAT     H170937   1.877   4.331   0.114
23565WAT     H270938   1.999   4.288   0.014
23566WAT      O70939   9.311   8.393   6.881
23566WAT     H170940   9.324   8.471   6.943
23566WAT     H270941   9.356   8.412   6.794
23567WAT      O70942   4.152   8.912   5.014
23567WAT     H170943   4.140   8.849   4.937
23567WAT     H270944   4.180   8.861   5.095
23568WAT      O70945   2.581   8.931   8.813
23568WAT     H170946   2.526   8.993   8.868
23568WAT     H270947   2.544   8.838   8.820
23569WAT      O70948   8.466   9.247   0.961
23569WAT     H170949   8.481   9.342   0.933
23569WAT     H270950   8.423   9.245   1.051
23570WAT      O70951   9.315   0.757   1.965
23570WAT     H170952   9.264   0.701   1.900
23570WAT     H270953   9.342   0.843   1.921
23571WAT      O70954   5.556   6.768   5.396
23571WAT     H170955   5.590   6.712   5.321
23571WAT     H270956   5.465   6.736   5.423
23572WAT      O70957   8.920   9.237   4.516
23572WAT     H170958   8.902   9.205   4.609
23572WAT     H270959   8.994   9.184   4.476
23573WAT      O70960   9.008   1.925   4.276
23573WAT     H170961   8.983   2.022   4.280
23573WAT     H270962   8.960   1.881   4.200
23574WAT      O70963   7.236   2.882   4.501
23574WAT     H170964   7.173   2.917   4.432
23574WAT     H270965   7.280   2.958   4.549
23575WAT      O70966   4.749   6.751   3.773
23575WAT     H170967   4.797   6.713   3.693
23575WAT     H270968   4.724   6.846   3.754
23576WAT      O70969   4.026   2.225   8.826
23576WAT     H170970   3.946   2.260   8.777
23576WAT     H270971   4.022   2.126   8.830
23577WAT      O70972   7.352   1.366   5.432
23577WAT     H170973   7.387   1.276   5.458
23577WAT     H270974   7.280   1.356   5.363
23578WAT      O70975   6.220   7.920   4.196
23578WAT     H170976   6.227   7.843   4.258
23578WAT     H270977   6.123   7.937   4.174
23579WAT      O70978   9.373   3.329   5.402
23579WAT     H170979   9.313   3.268   5.453
23579WAT     H270980   9.410   3.400   5.463
23580WAT      O70981   6.771   1.841   0.441
23580WAT     H170982   6.728   1.767   0.389
23580WAT     H270983   6.847   1.805   0.494
23581WAT      O70984   6.348   7.065   7.401
23581WAT     H170985   6.418   6.995   7.392
23581WAT     H270986   6.258   7.021   7.410
23582WAT      O70987   2.025   1.439   7.282
23582WAT     H170988   2.115   1.412   7.248
23582WAT     H270989   1.963   1.453   7.204
23583WAT      O70990   9.569   2.314   7.809
23583WAT     H170991   9.496   2.368   7.852
23583WAT     H270992   9.541   2.219   7.803
23584WAT      O70993   8.821   7.470   2.126
23584WAT     H170994   8.808   7.380   2.168
23584WAT     H270995   8.803   7.541   2.194
23585WAT      O70996   2.675   4.485   1.354
23585WAT     H170997   2.754   4.428   1.375
23585WAT     H270998   2.693   4.537   1.270
23586WAT      O70999   6.945   6.770   9.138
23586WAT     H171000   6.957   6.745   9.042
23586WAT     H271001   6.883   6.705   9.181
23587WAT      O71002   5.316   9.201   8.383
23587WAT     H171003   5.275   9.165   8.467
23587WAT     H271004   5.259   9.178   8.305
23588WAT      O71005   2.255   4.210   7.003
23588WAT     H171006   2.340   4.159   6.988
23588WAT     H271007   2.229   4.205   7.099
23589WAT      O71008   6.432   8.540   7.988
23589WAT     H171009   6.493   8.617   8.004
23589WAT     H271010   6.359   8.567   7.925
23590WAT      O71011   6.824   0.600   2.858
23590WAT     H171012   6.752   0.581   2.924
23590WAT     H271013   6.800   0.681   2.804
23591WAT      O71014   7.696   5.919   7.561
23591WAT     H171015   7.665   5.888   7.651
23591WAT     H271016   7.796   5.928   7.562
23592WAT      O71017   3.046   8.921   8.031
23592WAT     H171018   3.056   8.982   8.109
23592WAT     H271019   3.043   8.975   7.947
23593WAT      O71020   7.039   4.840   0.073
23593WAT     H171021   6.941   4.819   0.074
23593WAT     H271022   7.069   4.865   0.165
23594WAT      O71023   8.512   2.696   7.538
23594WAT     H171024   8.457   2.670   7.618
23594WAT     H271025   8.525   2.795   7.538
23595WAT      O71026   1.633   5.532   4.105
23595WAT     H171027   1.707   5.598   4.120
23595WAT     H271028   1.577   5.526   4.188
23596WAT      O71029   5.935   3.736   8.596
23596WAT     H171030   5.873   3.796   8.648
23596WAT     H271031   5.884   3.656   8.563
23597WAT      O71032   4.693   1.922   8.533
23597WAT     H171033   4.768   1.972   8.490
23597WAT     H271034   4.642   1.871   8.463
23598WAT      O71035   1.670   2.653   3.097
23598WAT     H171036   1.742   2.602   3.144
23598WAT     H271037   1.680   2.643   2.998
23599WAT      O71038   6.032   3.232   1.910
23599WAT     H171039   6.010   3.266   2.002
23599WAT     H271040   5.958   3.173   1.879
23600WAT      O71041   3.484   1.611   5.805
23600WAT     H171042   3.440   1.585   5.890
23600WAT     H271043   3.492   1.532   5.745
23601WAT      O71044   4.341   8.566   5.090
23601WAT     H171045   4.342   8.586   4.992
23601WAT     H271046   4.362   8.469   5.104
23602WAT      O71047   9.015   0.775   1.283
23602WAT     H171048   9.064   0.838   1.343
23602WAT     H271049   8.943   0.728   1.336
23603WAT      O71050   8.410   9.557   2.029
23603WAT     H171051   8.459   9.638   1.997
23603WAT     H271052   8.391   9.565   2.126
23604WAT      O71053   8.454   5.609   5.344
23604WAT     H171054   8.521   5.681   5.325
23604WAT     H271055   8.364   5.639   5.313
23605WAT      O71056   7.276   4.929   6.438
23605WAT     H171057   7.360   4.881   6.411
23605WAT     H271058   7.285   4.962   6.532
23606WAT      O71059   3.148   3.230   8.985
23606WAT     H171060   3.205   3.277   9.052
23606WAT     H271061   3.136   3.290   8.905
23607WAT      O71062   9.024   5.939   2.718
23607WAT     H171063   9.038   5.862   2.656
23607WAT     H271064   9.061   5.917   2.808
23608WAT      O71065   3.296   2.588   1.733
23608WAT     H171066   3.236   2.668   1.733
23608WAT     H271067   3.391   2.617   1.723
23609WAT      O71068   0.180   6.107   4.261
23609WAT     H171069   0.248   6.124   4.190
23609WAT     H271070   0.098   6.161   4.242
23610WAT      O71071   2.464   8.141   6.122
23610WAT     H171072   2.424   8.223   6.079
23610WAT     H271073   2.478   8.071   6.053
23611WAT      O71074   2.439   4.647   4.072
23611WAT     H171075   2.360   4.603   4.029
23611WAT     H271076   2.478   4.586   4.141
23612WAT      O71077   4.409   8.189   7.901
23612WAT     H171078   4.407   8.091   7.922
23612WAT     H271079   4.365   8.204   7.812
23613WAT      O71080   7.935   6.839   0.162
23613WAT     H171081   7.916   6.933   0.189
23613WAT     H271082   8.029   6.815   0.187
23614WAT      O71083   8.270   1.671   6.452
23614WAT     H171084   8.328   1.593   6.428
23614WAT     H271085   8.199   1.682   6.382
23615WAT      O71086   1.165   3.502   3.053
23615WAT     H171087   1.070   3.471   3.050
23615WAT     H271088   1.225   3.430   3.019
23616WAT      O71089   0.491   3.348   8.071
23616WAT     H171090   0.421   3.349   8.142
23616WAT     H271091   0.573   3.303   8.105
23617WAT      O71092   5.172   2.457   6.759
23617WAT     H171093   5.119   2.539   6.738
23617WAT     H271094   5.221   2.470   6.845
23618WAT      O71095   1.050   2.473   1.206
23618WAT     H171096   0.959   2.488   1.168
23618WAT     H271097   1.091   2.561   1.230
23619WAT      O71098   0.167   8.943   0.978
23619WAT     H171099   0.073   8.911   0.991
23619WAT     H271100   0.230   8.867   0.994
23620WAT      O71101   3.088   6.226   2.327
23620WAT     H171102   3.008   6.174   2.357
23620WAT     H271103   3.085   6.236   2.227
23621WAT      O71104   4.575   0.453   4.364
23621WAT     H171105   4.615   0.377   4.313
23621WAT     H271106   4.525   0.513   4.301
23622WAT      O71107   2.368   9.490   4.290
23622WAT     H171108   2.352   9.564   4.356
23622WAT     H271109   2.448   9.437   4.317
23623WAT      O71110   1.321   4.993   4.360
23623WAT     H171111   1.308   4.896   4.376
23623WAT     H271112   1.232   5.036   4.341
23624WAT      O71113   0.828   8.273   9.206
23624WAT     H171114   0.765   8.240   9.276
23624WAT     H271115   0.785   8.346   9.154
23625WAT      O71116   1.262   4.984   6.179
23625WAT     H171117   1.164   4.971   6.167
23625WAT     H271118   1.291   4.945   6.267
23626WAT      O71119   1.552   5.772   1.786
23626WAT     H171120   1.540   5.855   1.841
23626WAT     H271121   1.530   5.692   1.842
23627WAT      O71122   7.402   6.818   3.488
23627WAT     H171123   7.468   6.828   3.413
23627WAT     H271124   7.434   6.871   3.567
23628WAT      O71125   5.014   8.187   8.327
23628WAT     H171126   5.074   8.176   8.406
23628WAT     H271127   5.016   8.104   8.271
23629WAT      O71128   8.072   0.334   8.110
23629WAT     H171129   8.013   0.255   8.130
23629WAT     H271130   8.114   0.367   8.195
23630WAT      O71131   7.390   9.643   2.249
23630WAT     H171132   7.445   9.674   2.326
23630WAT     H271133   7.305   9.695   2.245
23631WAT      O71134   0.127   1.223   3.836
23631WAT     H171135   0.031   1.195   3.841
23631WAT     H271136   0.185   1.151   3.875
23632WAT      O71137   7.804   5.462   5.060
23632WAT     H171138   7.873   5.485   4.991
23632WAT     H271139   7.828   5.374   5.103
23633WAT      O71140   2.467   1.110   7.113
23633WAT     H171141   2.553   1.152   7.082
23633WAT     H271142   2.484   1.059   7.198
23634WAT      O71143   8.144   5.716   8.725
23634WAT     H171144   8.234   5.760   8.735
23634WAT     H271145   8.155   5.626   8.684
23635WAT      O71146   8.076   8.462   6.770
23635WAT     H171147   8.035   8.370   6.771
23635WAT     H271148   8.032   8.519   6.838
23636WAT      O71149   5.115   4.163   1.177
23636WAT     H171150   5.084   4.142   1.270
23636WAT     H271151   5.142   4.078   1.131
23637WAT      O71152   2.835   1.861   9.776
23637WAT     H171153   2.847   1.792   9.704
23637WAT     H271154   2.813   1.815   9.862
23638WAT      O71155   7.599   8.295   5.349
23638WAT     H171156   7.594   8.213   5.406
23638WAT     H271157   7.671   8.284   5.281
23639WAT      O71158   5.062   5.868   6.246
23639WAT     H171159   5.063   5.799   6.318
23639WAT     H271160   5.025   5.954   6.283
23640WAT      O71161   0.889   2.462   8.553
23640WAT     H171162   0.835   2.444   8.471
23640WAT     H271163   0.985   2.471   8.528
23641WAT      O71164   4.341   9.622   4.247
23641WAT     H171165   4.356   9.524   4.260
23641WAT     H271166   4.354   9.670   4.333
23642WAT      O71167   4.526   3.652   9.069
23642WAT     H171168   4.455   3.594   9.030
23642WAT     H271169   4.550   3.620   9.160
23643WAT      O71170   0.307   2.358   0.157
23643WAT     H171171   0.335   2.296   0.231
23643WAT     H271172   0.377   2.357   0.085
23644WAT      O71173   6.747   8.770   4.872
23644WAT     H171174   6.832   8.718   4.882
23644WAT     H271175   6.760   8.845   4.808
23645WAT      O71176   1.774   6.670   5.889
23645WAT     H171177   1.794   6.761   5.853
23645WAT     H271178   1.858   6.615   5.889
23646WAT      O71179   0.766   0.567   2.069
23646WAT     H171180   0.763   0.468   2.084
23646WAT     H271181   0.851   0.603   2.107
23647WAT      O71182   9.548   0.695   6.673
23647WAT     H171183   9.526   0.635   6.597
23647WAT     H271184   9.547   0.790   6.642
23648WAT      O71185   8.858   1.766   8.051
23648WAT     H171186   8.858   1.864   8.031
23648WAT     H271187   8.951   1.736   8.071
23649WAT      O71188   5.890   1.928   5.204
23649WAT     H171189   5.858   1.877   5.284
23649WAT     H271190   5.847   2.019   5.203
23650WAT      O71191   7.160   5.231   4.066
23650WAT     H171192   7.177   5.207   3.971
23650WAT     H271193   7.232   5.291   4.100
23651WAT      O71194   3.852   0.229   7.444
23651WAT     H171195   3.933   0.289   7.445
23651WAT     H271196   3.814   0.226   7.352
23652WAT      O71197   8.405   7.972   3.347
23652WAT     H171198   8.320   8.017   3.319
23652WAT     H271199   8.483   8.028   3.321
23653WAT      O71200   3.537   4.136   0.279
23653WAT     H171201   3.598   4.072   0.326
23653WAT     H271202   3.565   4.230   0.299
23654WAT      O71203   4.055   6.730   6.575
23654WAT     H171204   4.056   6.783   6.490
23654WAT     H271205   3.961   6.703   6.596
23655WAT      O71206   7.399   0.964   0.170
23655WAT     H171207   7.320   0.998   0.222
23655WAT     H271208   7.455   0.905   0.228
23656WAT      O71209   8.190   3.981   7.901
23656WAT     H171210   8.137   4.043   7.843
23656WAT     H271211   8.284   4.014   7.908
23657WAT      O71212   2.265   8.094   6.859
23657WAT     H171213   2.266   8.057   6.766
23657WAT     H271214   2.352   8.076   6.903
23658WAT      O71215   5.985   8.958   9.550
23658WAT     H171216   6.027   8.871   9.523
23658WAT     H271217   6.001   8.974   9.647
23659WAT      O71218   6.334   4.325   0.709
23659WAT     H171219   6.392   4.405   0.694
23659WAT     H271220   6.265   4.320   0.637
23660WAT      O71221   6.373   5.652   5.072
23660WAT     H171222   6.346   5.569   5.023
23660WAT     H271223   6.445   5.698   5.022
23661WAT      O71224   9.274   0.973   7.771
23661WAT     H171225   9.289   0.895   7.832
23661WAT     H271226   9.345   1.041   7.786
23662WAT      O71227   1.337   4.762   0.872
23662WAT     H171228   1.282   4.821   0.813
23662WAT     H271229   1.403   4.712   0.816
23663WAT      O71230   5.943   5.578   8.605
23663WAT     H171231   5.939   5.481   8.625
23663WAT     H271232   5.878   5.627   8.663
23664WAT      O71233   5.882   2.767   0.484
23664WAT     H171234   5.805   2.755   0.546
23664WAT     H271235   5.861   2.725   0.396
23665WAT      O71236   4.364   6.710   0.185
23665WAT     H171237   4.421   6.704   0.103
23665WAT     H271238   4.290   6.777   0.170
23666WAT      O71239   4.514   1.563   8.049
23666WAT     H171240   4.525   1.647   8.102
23666WAT     H271241   4.604   1.523   8.030
23667WAT      O71242   2.441   3.143   5.149
23667WAT     H171243   2.355   3.159   5.197
23667WAT     H271244   2.498   3.225   5.155
23668WAT      O71245   4.417   5.655   2.934
23668WAT     H171246   4.432   5.558   2.911
23668WAT     H271247   4.452   5.673   3.026
23669WAT      O71248   6.281   3.774   1.368
23669WAT     H171249   6.313   3.713   1.441
23669WAT     H271250   6.340   3.762   1.288
23670WAT      O71251   9.764   9.777   3.631
23670WAT     H171252   9.667   9.754   3.643
23670WAT     H271253   9.777   9.875   3.642
23671WAT      O71254   0.579   7.945   6.207
23671WAT     H171255   0.530   7.998   6.138
23671WAT     H271256   0.653   7.893   6.163
23672WAT      O71257   0.732   4.748   9.205
23672WAT     H171258   0.676   4.830   9.211
23672WAT     H271259   0.673   4.667   9.207
23673WAT      O71260   9.815   2.007   7.606
23673WAT     H171261   9.756   1.927   7.614
23673WAT     H271262   9.823   2.051   7.696
23674WAT      O71263   3.752   7.492   7.993
23674WAT     H171264   3.818   7.499   8.068
23674WAT     H271265   3.711   7.582   7.976
23675WAT      O71266   1.370   5.645   4.582
23675WAT     H171267   1.313   5.594   4.647
23675WAT     H271268   1.342   5.741   4.582
23676WAT      O71269   4.389   5.486   2.105
23676WAT     H171270   4.472   5.491   2.161
23676WAT     H271271   4.408   5.524   2.014
23677WAT      O71272   4.975   1.371   7.555
23677WAT     H171273   5.020   1.356   7.467
23677WAT     H271274   5.039   1.416   7.618
23678WAT      O71275   8.274   7.813   4.339
23678WAT     H171276   8.300   7.738   4.279
23678WAT     H271277   8.350   7.835   4.400
23679WAT      O71278   7.061   2.892   3.041
23679WAT     H171279   7.061   2.961   3.113
23679WAT     H271280   6.966   2.871   3.015
23680WAT      O71281   3.862   9.102   0.152
23680WAT     H171282   3.848   9.126   0.056
23680WAT     H271283   3.952   9.059   0.163
23681WAT      O71284   6.636   4.161   7.121
23681WAT     H171285   6.609   4.179   7.026
23681WAT     H271286   6.695   4.235   7.153
23682WAT      O71287   7.548   8.062   8.650
23682WAT     H171288   7.567   8.093   8.743
23682WAT     H271289   7.532   8.141   8.591
23683WAT      O71290   9.264   2.612   0.465
23683WAT     H171291   9.292   2.652   0.378
23683WAT     H271292   9.304   2.521   0.475
23684WAT      O71293   5.243   5.507   8.020
23684WAT     H171294   5.296   5.423   8.004
23684WAT     H271295   5.257   5.537   8.114
23685WAT      O71296   6.662   7.998   8.356
23685WAT     H171297   6.631   8.092   8.342
23685WAT     H271298   6.643   7.945   8.274
23686WAT      O71299   1.741   0.248   5.211
23686WAT     H171300   1.796   0.166   5.195
23686WAT     H271301   1.768   0.320   5.146
23687WAT      O71302   1.419   3.211   7.624
23687WAT     H171303   1.442   3.175   7.534
23687WAT     H271304   1.342   3.159   7.662
23688WAT      O71305   4.537   4.612   5.983
23688WAT     H171306   4.514   4.526   6.028
23688WAT     H271307   4.508   4.609   5.888
23689WAT      O71308   7.471   2.999   9.598
23689WAT     H171309   7.463   3.040   9.508
23689WAT     H271310   7.560   3.023   9.638
23690WAT      O71311   8.373   0.780   2.010
23690WAT     H171312   8.469   0.766   2.030
23690WAT     H271313   8.328   0.692   1.999
23691WAT      O71314   1.529   8.459   9.531
23691WAT     H171315   1.618   8.501   9.550
23691WAT     H271316   1.527   8.427   9.436
23692WAT      O71317   8.358   8.489   5.484
23692WAT     H171318   8.451   8.460   5.460
23692WAT     H271319   8.293   8.451   5.419
23693WAT      O71320   3.427   1.959   9.811
23693WAT     H171321   3.469   2.002   9.731
23693WAT     H271322   3.395   2.029   9.874
23694WAT      O71323   0.586   0.663   2.971
23694WAT     H171324   0.496   0.660   3.015
23694WAT     H271325   0.582   0.616   2.883
23695WAT      O71326   6.519   6.758   8.163
23695WAT     H171327   6.420   6.748   8.155
23695WAT     H271328   6.541   6.853   8.181
23696WAT      O71329   5.092   8.663   4.622
23696WAT     H171330   5.010   8.615   4.590
23696WAT     H271331   5.068   8.756   4.647
23697WAT      O71332   9.679   2.766   5.915
23697WAT     H171333   9.752   2.832   5.902
23697WAT     H271334   9.599   2.794   5.861
23698WAT      O71335   5.954   4.590   7.206
23698WAT     H171336   5.946   4.518   7.275
23698WAT     H271337   6.049   4.623   7.203
23699WAT      O71338   7.277   6.136   2.634
23699WAT     H171339   7.302   6.061   2.695
23699WAT     H271340   7.334   6.133   2.552
23700WAT      O71341   7.846   6.214   6.477
23700WAT     H171342   7.813   6.229   6.383
23700WAT     H271343   7.915   6.282   6.499
23701WAT      O71344   5.595   0.796   4.470
23701WAT     H171345   5.651   0.811   4.388
23701WAT     H271346   5.608   0.873   4.533
23702WAT      O71347   5.138   0.110   5.831
23702WAT     H171348   5.105   0.092   5.923
23702WAT     H271349   5.226   0.065   5.817
23703WAT      O71350   0.672   5.493   9.515
23703WAT     H171351   0.626   5.488   9.426
23703WAT     H271352   0.631   5.425   9.576
23704WAT      O71353   7.710   8.902   5.728
23704WAT     H171354   7.733   8.869   5.637
23704WAT     H271355   7.684   8.825   5.786
23705WAT      O71356   7.237   3.066   4.223
23705WAT     H171357   7.142   3.080   4.251
23705WAT     H271358   7.240   3.000   4.148
23706WAT      O71359   1.782   5.239   5.714
23706WAT     H171360   1.849   5.168   5.736
23706WAT     H271361   1.761   5.292   5.796
23707WAT      O71362   7.434   0.463   0.648
23707WAT     H171363   7.526   0.496   0.671
23707WAT     H271364   7.441   0.377   0.598
23708WAT      O71365   0.122   0.497   3.306
23708WAT     H171366   0.089   0.434   3.236
23708WAT     H271367   0.109   0.591   3.275
23709WAT      O71368   1.896   3.015   4.272
23709WAT     H171369   1.873   3.015   4.175
23709WAT     H271370   1.869   3.103   4.312
23710WAT      O71371   1.620   3.438   0.150
23710WAT     H171372   1.589   3.345   0.168
23710WAT     H271373   1.542   3.494   0.121
23711WAT      O71374   6.518   0.570   7.504
23711WAT     H171375   6.519   0.669   7.521
23711WAT     H271376   6.596   0.546   7.446
23712WAT      O71377   5.630   4.115   4.373
23712WAT     H171378   5.586   4.053   4.438
23712WAT     H271379   5.593   4.207   4.385
23713WAT      O71380   6.121   6.146   1.041
23713WAT     H171381   6.211   6.103   1.043
23713WAT     H271382   6.051   6.079   1.066
23714WAT      O71383   3.755   6.975   4.025
23714WAT     H171384   3.732   6.892   3.974
23714WAT     H271385   3.691   7.048   3.999
23715WAT      O71386   7.599   4.273   0.721
23715WAT     H171387   7.534   4.196   0.725
23715WAT     H271388   7.588   4.330   0.802
23716WAT      O71389   8.094   7.570   5.517
23716WAT     H171390   8.025   7.520   5.465
23716WAT     H271391   8.139   7.508   5.580
23717WAT      O71392   1.881   9.805   4.783
23717WAT     H171393   1.813   9.865   4.743
23717WAT     H271394   1.844   9.712   4.788
23718WAT      O71395   1.431   7.186   0.549
23718WAT     H171396   1.380   7.140   0.476
23718WAT     H271397   1.376   7.186   0.632
23719WAT      O71398   5.619   2.751   5.485
23719WAT     H171399   5.674   2.775   5.565
23719WAT     H271400   5.679   2.718   5.412
23720WAT      O71401   3.650   6.629   9.719
23720WAT     H171402   3.646   6.616   9.818
23720WAT     H271403   3.573   6.582   9.675
23721WAT      O71404   9.288   7.549   0.992
23721WAT     H171405   9.304   7.496   0.908
23721WAT     H271406   9.342   7.634   0.987
23722WAT      O71407   5.166   0.453   1.304
23722WAT     H171408   5.156   0.467   1.205
23722WAT     H271409   5.076   0.452   1.346
23723WAT      O71410   4.575   5.620   7.626
23723WAT     H171411   4.625   5.608   7.711
23723WAT     H271412   4.559   5.530   7.584
23724WAT      O71413   3.252   1.666   7.821
23724WAT     H171414   3.274   1.568   7.815
23724WAT     H271415   3.236   1.690   7.916
23725WAT      O71416   7.079   3.195   0.221
23725WAT     H171417   7.044   3.167   0.311
23725WAT     H271418   7.176   3.172   0.215
23726WAT      O71419   3.125   7.142   4.713
23726WAT     H171420   3.223   7.158   4.718
23726WAT     H271421   3.098   7.131   4.617
23727WAT      O71422   4.177   1.687   5.621
23727WAT     H171423   4.135   1.695   5.712
23727WAT     H271424   4.105   1.674   5.553
23728WAT      O71425   1.699   0.158   1.305
23728WAT     H171426   1.695   0.256   1.283
23728WAT     H271427   1.773   0.141   1.369
23729WAT      O71428   7.981   8.316   3.223
23729WAT     H171429   7.923   8.395   3.201
23729WAT     H271430   8.001   8.316   3.321
23730WAT      O71431   8.157   7.150   1.828
23730WAT     H171432   8.058   7.152   1.819
23730WAT     H271433   8.182   7.130   1.923
23731WAT      O71434   8.317   5.317   6.137
23731WAT     H171435   8.308   5.403   6.086
23731WAT     H271436   8.332   5.242   6.073
23732WAT      O71437   7.009   9.178   0.879
23732WAT     H171438   6.917   9.219   0.884
23732WAT     H271439   7.021   9.137   0.789
23733WAT      O71440   9.395   0.927   6.001
23733WAT     H171441   9.490   0.960   6.006
23733WAT     H271442   9.342   0.988   5.942
23734WAT      O71443   3.718   4.663   0.808
23734WAT     H171444   3.782   4.634   0.737
23734WAT     H271445   3.706   4.763   0.804
23735WAT      O71446   9.132   1.961   3.423
23735WAT     H171447   9.149   1.888   3.356
23735WAT     H271448   9.147   2.050   3.381
23736WAT      O71449   0.193   2.586   9.459
23736WAT     H171450   0.135   2.620   9.386
23736WAT     H271451   0.137   2.538   9.526
23737WAT      O71452   6.343   3.273   3.654
23737WAT     H171453   6.318   3.347   3.592
23737WAT     H271454   6.260   3.236   3.697
23738WAT      O71455   2.697   6.102   2.537
23738WAT     H171456   2.621   6.056   2.492
23738WAT     H271457   2.686   6.098   2.636
23739WAT      O71458   7.528   5.010   3.860
23739WAT     H171459   7.624   4.995   3.881
23739WAT     H271460   7.485   4.923   3.835
23740WAT      O71461   3.770   9.743   2.346
23740WAT     H171462   3.710   9.691   2.407
23740WAT     H271463   3.806   9.683   2.276
23741WAT      O71464   8.446   5.568   2.729
23741WAT     H171465   8.379   5.495   2.742
23741WAT     H271466   8.531   5.529   2.694
23742WAT      O71467   9.195   2.161   1.285
23742WAT     H171468   9.288   2.192   1.302
23742WAT     H271469   9.189   2.062   1.296
23743WAT      O71470   9.820   5.524   4.559
23743WAT     H171471   9.817   5.467   4.641
23743WAT     H271472   9.787   5.473   4.481
23744WAT      O71473   4.504   3.475   5.472
23744WAT     H171474   4.589   3.525   5.455
23744WAT     H271475   4.433   3.509   5.410
23745WAT      O71476   2.085   5.616   7.679
23745WAT     H171477   2.118   5.521   7.675
23745WAT     H271478   2.161   5.677   7.700
23746WAT      O71479   6.693   9.815   9.277
23746WAT     H171480   6.705   9.887   9.345
23746WAT     H271481   6.595   9.793   9.269
23747WAT      O71482   2.432   6.055   9.489
23747WAT     H171483   2.426   5.984   9.418
23747WAT     H271484   2.449   6.012   9.578
23748WAT      O71485   6.343   8.676   2.941
23748WAT     H171486   6.417   8.717   2.995
23748WAT     H271487   6.323   8.585   2.977
23749WAT      O71488   5.169   7.211   5.670
23749WAT     H171489   5.099   7.241   5.605
23749WAT     H271490   5.215   7.130   5.634
23750WAT      O71491   8.214   9.595   7.505
23750WAT     H171492   8.154   9.658   7.457
23750WAT     H271493   8.295   9.644   7.537
23751WAT      O71494   7.418   8.010   3.870
23751WAT     H171495   7.465   8.037   3.786
23751WAT     H271496   7.474   8.036   3.949
23752WAT      O71497   9.673   5.249   2.212
23752WAT     H171498   9.729   5.323   2.250
23752WAT     H271499   9.656   5.266   2.115
23753WAT      O71500   8.106   4.391   2.712
23753WAT     H171501   8.127   4.308   2.762
23753WAT     H271502   8.186   4.451   2.710
23754WAT      O71503   2.323   5.748   7.593
23754WAT     H171504   2.350   5.739   7.497
23754WAT     H271505   2.394   5.708   7.652
23755WAT      O71506   1.168   9.247   0.268
23755WAT     H171507   1.174   9.285   0.360
23755WAT     H271508   1.194   9.150   0.269
23756WAT      O71509   4.343   3.252   8.494
23756WAT     H171510   4.431   3.230   8.451
23756WAT     H271511   4.279   3.285   8.425
23757WAT      O71512   7.754   9.079   7.761
23757WAT     H171513   7.757   9.073   7.860
23757WAT     H271514   7.735   9.174   7.734
23758WAT      O71515   0.891   5.576   1.315
23758WAT     H171516   0.986   5.600   1.334
23758WAT     H271517   0.869   5.489   1.358
23759WAT      O71518   6.159   6.677   1.473
23759WAT     H171519   6.207   6.665   1.386
23759WAT     H271520   6.123   6.589   1.504
23760WAT      O71521   5.202   7.821   7.045
23760WAT     H171522   5.274   7.804   7.113
23760WAT     H271523   5.133   7.880   7.085
23761WAT      O71524   1.305   4.301   1.437
23761WAT     H171525   1.281   4.386   1.391
23761WAT     H271526   1.297   4.313   1.536
23762WAT      O71527   7.850   3.945   4.855
23762WAT     H171528   7.914   3.907   4.789
23762WAT     H271529   7.756   3.925   4.826
23763WAT      O71530   8.864   7.805   6.392
23763WAT     H171531   8.851   7.721   6.445
23763WAT     H271532   8.806   7.802   6.310
23764WAT      O71533   3.881   4.612   0.601
23764WAT     H171534   3.866   4.513   0.596
23764WAT     H271535   3.979   4.631   0.610
23765WAT      O71536   1.020   2.200   6.885
23765WAT     H171537   0.967   2.121   6.852
23765WAT     H271538   1.078   2.234   6.811
23766WAT      O71539   9.819   5.306   7.850
23766WAT     H171540   9.829   5.315   7.949
23766WAT     H271541   9.763   5.226   7.829
23767WAT      O71542   7.386   0.134   4.056
23767WAT     H171543   7.463   0.167   4.002
23767WAT     H271544   7.305   0.125   3.998
23768WAT      O71545   5.365   1.257   7.140
23768WAT     H171546   5.442   1.230   7.082
23768WAT     H271547   5.384   1.232   7.235
23769WAT      O71548   0.886   9.005   4.486
23769WAT     H171549   0.902   9.099   4.456
23769WAT     H271550   0.796   8.998   4.529
23770WAT      O71551   4.852   7.522   4.899
23770WAT     H171552   4.888   7.430   4.911
23770WAT     H271553   4.854   7.570   4.987
23771WAT      O71554   0.696   6.440   8.007
23771WAT     H171555   0.771   6.507   8.012
23771WAT     H271556   0.684   6.409   7.913
23772WAT      O71557   4.050   9.783   8.458
23772WAT     H171558   4.034   9.686   8.476
23772WAT     H271559   4.127   9.792   8.395
23773WAT      O71560   1.742   6.090   2.652
23773WAT     H171561   1.651   6.131   2.667
23773WAT     H271562   1.752   6.066   2.556
23774WAT      O71563   8.233   9.500   5.827
23774WAT     H171564   8.247   9.406   5.857
23774WAT     H271565   8.136   9.524   5.835
23775WAT      O71566   2.561   5.245   5.546
23775WAT     H171567   2.641   5.282   5.498
23775WAT     H271568   2.539   5.304   5.624
23776WAT      O71569   4.223   1.357   4.158
23776WAT     H171570   4.290   1.348   4.231
23776WAT     H271571   4.247   1.294   4.084
23777WAT      O71572   2.706   3.266   9.484
23777WAT     H171573   2.762   3.197   9.438
23777WAT     H271574   2.611   3.258   9.454
23778WAT      O71575   2.674   6.861   1.675
23778WAT     H171576   2.745   6.829   1.738
23778WAT     H271577   2.715   6.923   1.608
23779WAT      O71578   6.544   9.804   8.553
23779WAT     H171579   6.602   9.815   8.634
23779WAT     H271580   6.564   9.717   8.509
23780WAT      O71581   0.370   4.068   3.654
23780WAT     H171582   0.410   4.144   3.604
23780WAT     H271583   0.324   4.006   3.590
23781WAT      O71584   9.343   2.501   3.424
23781WAT     H171585   9.391   2.503   3.512
23781WAT     H271586   9.364   2.416   3.376
23782WAT      O71587   0.478   8.419   1.939
23782WAT     H171588   0.535   8.468   2.005
23782WAT     H271589   0.382   8.431   1.963
23783WAT      O71590   0.312   8.094   6.542
23783WAT     H171591   0.310   8.035   6.461
23783WAT     H271592   0.394   8.151   6.540
23784WAT      O71593   3.000   9.542   7.426
23784WAT     H171594   2.903   9.542   7.401
23784WAT     H271595   3.012   9.494   7.514
23785WAT      O71596   5.548   1.214   5.878
23785WAT     H171597   5.551   1.211   5.978
23785WAT     H271598   5.598   1.135   5.842
23786WAT      O71599   1.593   4.588   2.205
23786WAT     H171600   1.635   4.589   2.114
23786WAT     H271601   1.523   4.516   2.209
23787WAT      O71602   3.183   1.367   7.493
23787WAT     H171603   3.126   1.448   7.482
23787WAT     H271604   3.139   1.289   7.449
23788WAT      O71605   1.366   4.535   4.619
23788WAT     H171606   1.367   4.506   4.715
23788WAT     H271607   1.452   4.580   4.597
23789WAT      O71608   1.240   4.318   0.352
23789WAT     H171609   1.155   4.362   0.321
23789WAT     H271610   1.220   4.259   0.430
23790WAT      O71611   6.880   1.214   8.331
23790WAT     H171612   6.828   1.293   8.363
23790WAT     H271613   6.963   1.203   8.387
23791WAT      O71614   3.592   2.400   1.615
23791WAT     H171615   3.580   2.441   1.706
23791WAT     H271616   3.572   2.469   1.545
23792WAT      O71617   1.828   4.089   6.710
23792WAT     H171618   1.729   4.099   6.716
23792WAT     H271619   1.851   3.992   6.705
23793WAT      O71620   5.942   7.462   5.263
23793WAT     H171621   5.925   7.501   5.172
23793WAT     H271622   5.906   7.524   5.333
23794WAT      O71623   2.653   1.435   4.657
23794WAT     H171624   2.595   1.461   4.734
23794WAT     H271625   2.597   1.393   4.585
23795WAT      O71626   6.545   2.515   4.669
23795WAT     H171627   6.504   2.553   4.752
23795WAT     H271628   6.644   2.525   4.673
23796WAT      O71629   8.597   5.851   6.387
23796WAT     H171630   8.641   5.901   6.462
23796WAT     H271631   8.665   5.797   6.338
23797WAT      O71632   5.995   6.185   0.347
23797WAT     H171633   6.019   6.135   0.430
23797WAT     H271634   6.067   6.173   0.278
23798WAT      O71635   6.270   6.881   8.309
23798WAT     H171636   6.232   6.814   8.244
23798WAT     H271637   6.294   6.834   8.394
23799WAT      O71638   3.696   7.444   2.531
23799WAT     H171639   3.615   7.410   2.579
23799WAT     H271640   3.669   7.477   2.441
23800WAT      O71641   0.603   0.084   6.958
23800WAT     H171642   0.558   0.123   6.877
23800WAT     H271643   0.679   0.143   6.986
23801WAT      O71644   9.849   9.383   1.156
23801WAT     H171645   9.926   9.364   1.095
23801WAT     H271646   9.850   9.480   1.181
23802WAT      O71647   4.156   3.076   5.359
23802WAT     H171648   4.191   3.055   5.268
23802WAT     H271649   4.232   3.099   5.419
23803WAT      O71650   4.349   1.043   4.430
23803WAT     H171651   4.343   0.980   4.353
23803WAT     H271652   4.436   1.032   4.476
23804WAT      O71653   6.949   3.880   2.815
23804WAT     H171654   6.883   3.863   2.742
23804WAT     H271655   6.995   3.967   2.798
23805WAT      O71656   6.356   5.805   0.299
23805WAT     H171657   6.284   5.807   0.229
23805WAT     H271658   6.322   5.847   0.383
23806WAT      O71659   3.807   4.782   3.666
23806WAT     H171660   3.818   4.880   3.680
23806WAT     H271661   3.897   4.740   3.655
23807WAT      O71662   4.346   3.791   6.049
23807WAT     H171663   4.364   3.758   6.142
23807WAT     H271664   4.255   3.832   6.046
23808WAT      O71665   7.645   7.127   6.287
23808WAT     H171666   7.621   7.224   6.281
23808WAT     H271667   7.659   7.101   6.382
23809WAT      O71668   5.895   0.837   4.681
23809WAT     H171669   5.861   0.855   4.773
23809WAT     H271670   5.862   0.748   4.650
23810WAT      O71671   3.593   0.464   3.656
23810WAT     H171672   3.675   0.416   3.628
23810WAT     H271673   3.536   0.404   3.712
23811WAT      O71674   1.557   3.965   0.586
23811WAT     H171675   1.542   3.867   0.576
23811WAT     H271676   1.655   3.984   0.593
23812WAT      O71677   9.341   7.411   4.264
23812WAT     H171678   9.296   7.488   4.219
23812WAT     H271679   9.437   7.407   4.235
23813WAT      O71680   0.309   3.810   4.910
23813WAT     H171681   0.382   3.759   4.865
23813WAT     H271682   0.347   3.868   4.982
23814WAT      O71683   6.141   9.022   0.213
23814WAT     H171684   6.197   9.105   0.216
23814WAT     H271685   6.096   9.010   0.302
23815WAT      O71686   5.850   8.781   9.825
23815WAT     H171687   5.822   8.764   9.730
23815WAT     H271688   5.941   8.741   9.840
23816WAT      O71689   5.655   0.476   3.008
23816WAT     H171690   5.666   0.560   3.061
23816WAT     H271691   5.587   0.418   3.052
23817WAT      O71692   9.633   0.793   8.166
23817WAT     H171693   9.721   0.839   8.167
23817WAT     H271694   9.618   0.751   8.077
23818WAT      O71695   4.874   8.144   5.569
23818WAT     H171696   4.859   8.067   5.508
23818WAT     H271697   4.919   8.112   5.652
23819WAT      O71698   8.268   3.562   8.529
23819WAT     H171699   8.325   3.536   8.451
23819WAT     H271700   8.175   3.529   8.515
23820WAT      O71701   0.090   8.653   3.083
23820WAT     H171702   0.033   8.735   3.083
23820WAT     H271703   0.173   8.669   3.136
23821WAT      O71704   1.375   5.372   7.927
23821WAT     H171705   1.377   5.273   7.914
23821WAT     H271706   1.339   5.393   8.018
23822WAT      O71707   9.518   8.554   7.407
23822WAT     H171708   9.575   8.615   7.461
23822WAT     H271709   9.426   8.550   7.446
23823WAT      O71710   2.406   1.309   7.532
23823WAT     H171711   2.327   1.272   7.484
23823WAT     H271712   2.376   1.378   7.598
23824WAT      O71713   3.532   4.033   3.604
23824WAT     H171714   3.526   3.979   3.519
23824WAT     H271715   3.627   4.035   3.635
23825WAT      O71716   5.736   9.434   7.698
23825WAT     H171717   5.665   9.495   7.732
23825WAT     H271718   5.705   9.391   7.613
23826WAT      O71719   8.325   2.886   2.324
23826WAT     H171720   8.289   2.930   2.406
23826WAT     H271721   8.332   2.954   2.251
23827WAT      O71722   0.589   6.722   2.126
23827WAT     H171723   0.613   6.784   2.200
23827WAT     H271724   0.490   6.726   2.109
23828WAT      O71725   1.011   9.037   5.041
23828WAT     H171726   0.970   9.128   5.052
23828WAT     H271727   0.946   8.967   5.073
23829WAT      O71728   0.653   7.740   9.625
23829WAT     H171729   0.685   7.653   9.663
23829WAT     H271730   0.650   7.808   9.698
23830WAT      O71731   2.415   2.822   8.966
23830WAT     H171732   2.423   2.856   9.060
23830WAT     H271733   2.322   2.791   8.950
23831WAT      O71734   5.295   6.996   5.522
23831WAT     H171735   5.286   6.933   5.599
23831WAT     H271736   5.392   7.013   5.504
23832WAT      O71737   1.410   5.674   2.617
23832WAT     H171738   1.336   5.622   2.574
23832WAT     H271739   1.395   5.772   2.602
23833WAT      O71740   9.055   0.527   5.729
23833WAT     H171741   9.105   0.537   5.814
23833WAT     H271742   8.957   0.525   5.748
23834WAT      O71743   1.475   5.594   0.529
23834WAT     H171744   1.394   5.536   0.531
23834WAT     H271745   1.549   5.546   0.481
23835WAT      O71746   1.232   0.896   4.064
23835WAT     H171747   1.141   0.910   4.025
23835WAT     H271748   1.297   0.956   4.018
23836WAT      O71749   3.931   5.832   6.754
23836WAT     H171750   4.023   5.813   6.790
23836WAT     H271751   3.863   5.801   6.820
23837WAT      O71752   5.206   7.050   6.420
23837WAT     H171753   5.234   7.028   6.513
23837WAT     H271754   5.108   7.073   6.419
23838WAT      O71755   9.794   9.506   5.638
23838WAT     H171756   9.879   9.490   5.588
23838WAT     H271757   9.794   9.451   5.722
23839WAT      O71758   3.769   6.971   6.402
23839WAT     H171759   3.861   7.008   6.420
23839WAT     H271760   3.731   7.016   6.321
23840WAT      O71761   4.731   2.049   4.808
23840WAT     H171762   4.668   2.121   4.837
23840WAT     H271763   4.724   2.038   4.708
23841WAT      O71764   5.155   1.654   0.633
23841WAT     H171765   5.185   1.562   0.659
23841WAT     H271766   5.087   1.686   0.698
23842WAT      O71767   6.750   8.879   7.686
23842WAT     H171768   6.779   8.802   7.743
23842WAT     H271769   6.708   8.845   7.603
23843WAT      O71770   5.601   0.786   2.282
23843WAT     H171771   5.509   0.805   2.248
23843WAT     H271772   5.596   0.736   2.369
23844WAT      O71773   9.743   0.610   2.470
23844WAT     H171774   9.718   0.699   2.432
23844WAT     H271775   9.711   0.538   2.409
23845WAT      O71776   8.780   9.070   2.540
23845WAT     H171777   8.776   8.993   2.603
23845WAT     H271778   8.704   9.133   2.558
23846WAT      O71779   7.012   5.675   0.294
23846WAT     H171780   7.109   5.656   0.305
23846WAT     H271781   6.960   5.628   0.366
23847WAT      O71782   5.178   2.870   1.396
23847WAT     H171783   5.169   2.966   1.425
23847WAT     H271784   5.208   2.867   1.300
23848WAT      O71785   1.566   5.834   1.056
23848WAT     H171786   1.650   5.844   1.003
23848WAT     H271787   1.550   5.738   1.076
23849WAT      O71788   2.904   7.050   6.862
23849WAT     H171789   2.845   6.995   6.803
23849WAT     H271790   2.936   6.994   6.938
23850WAT      O71791   4.210   3.927   7.221
23850WAT     H171792   4.178   3.869   7.296
23850WAT     H271793   4.188   4.023   7.241
23851WAT      O71794   5.723   7.617   7.122
23851WAT     H171795   5.794   7.654   7.182
23851WAT     H271796   5.700   7.524   7.152
23852WAT      O71797   6.878   5.385   7.130
23852WAT     H171798   6.902   5.450   7.202
23852WAT     H271799   6.811   5.427   7.068
23853WAT      O71800   1.432   9.595   4.330
23853WAT     H171801   1.410   9.681   4.284
23853WAT     H271802   1.450   9.612   4.427
23854WAT      O71803   1.310   7.637   4.204
23854WAT     H171804   1.245   7.562   4.213
23854WAT     H271805   1.370   7.638   4.284
23855WAT      O71806   6.910   6.781   9.542
23855WAT     H171807   6.997   6.823   9.514
23855WAT     H271808   6.905   6.780   9.642
23856WAT      O71809   0.063   5.762   5.275
23856WAT     H171810   0.075   5.782   5.178
23856WAT     H271811   0.152   5.745   5.317
23857WAT      O71812   8.217   0.400   8.354
23857WAT     H171813   8.295   0.461   8.362
23857WAT     H271814   8.197   0.359   8.444
23858WAT      O71815   9.234   1.901   9.288
23858WAT     H171816   9.301   1.975   9.302
23858WAT     H271817   9.147   1.940   9.261
23859WAT      O71818   9.262   8.505   0.466
23859WAT     H171819   9.257   8.498   0.566
23859WAT     H271820   9.223   8.422   0.425
23860WAT      O71821   6.641   7.870   0.248
23860WAT     H171822   6.730   7.859   0.204
23860WAT     H271823   6.582   7.793   0.224
23861WAT      O71824   9.408   8.986   5.098
23861WAT     H171825   9.402   8.886   5.104
23861WAT     H271826   9.485   9.011   5.039
23862WAT      O71827   1.253   1.435   3.098
23862WAT     H171828   1.264   1.353   3.042
23862WAT     H271829   1.279   1.416   3.192
23863WAT      O71830   7.851   1.051   2.490
23863WAT     H171831   7.887   0.989   2.420
23863WAT     H271832   7.852   1.005   2.579
23864WAT      O71833   6.702   4.515   0.832
23864WAT     H171834   6.771   4.472   0.774
23864WAT     H271835   6.621   4.537   0.778
23865WAT      O71836   0.719   6.512   9.658
23865WAT     H171837   0.728   6.551   9.750
23865WAT     H271838   0.808   6.509   9.614
23866WAT      O71839   9.175   9.615   8.945
23866WAT     H171840   9.206   9.588   8.854
23866WAT     H271841   9.186   9.714   8.956
23867WAT      O71842   6.888   0.239   7.020
23867WAT     H171843   6.906   0.333   6.988
23867WAT     H271844   6.975   0.197   7.048
23868WAT      O71845   5.908   3.550   4.151
23868WAT     H171846   5.902   3.458   4.191
23868WAT     H271847   5.995   3.592   4.178
23869WAT      O71848   8.286   5.944   6.790
23869WAT     H171849   8.206   5.886   6.780
23869WAT     H271850   8.287   5.985   6.882
23870WAT      O71851   0.629   3.637   9.287
23870WAT     H171852   0.670   3.722   9.253
23870WAT     H271853   0.697   3.564   9.283
23871WAT      O71854   9.039   9.139   2.450
23871WAT     H171855   9.103   9.076   2.495
23871WAT     H271856   8.949   9.131   2.493
23872WAT      O71857   0.981   1.755   6.378
23872WAT     H171858   0.931   1.696   6.314
23872WAT     H271859   1.043   1.814   6.326
23873WAT      O71860   4.043   6.122   2.413
23873WAT     H171861   3.973   6.190   2.437
23873WAT     H271862   4.011   6.031   2.441
23874WAT      O71863   4.720   4.887   5.817
23874WAT     H171864   4.780   4.967   5.828
23874WAT     H271865   4.729   4.851   5.724
23875WAT      O71866   8.703   1.800   4.740
23875WAT     H171867   8.746   1.808   4.830
23875WAT     H271868   8.665   1.708   4.729
23876WAT      O71869   2.553   5.380   4.549
23876WAT     H171870   2.498   5.368   4.632
23876WAT     H271871   2.649   5.362   4.570
23877WAT      O71872   5.986   5.497   0.435
23877WAT     H171873   5.931   5.555   0.374
23877WAT     H271874   5.993   5.541   0.524
23878WAT      O71875   9.056   4.791   4.673
23878WAT     H171876   9.134   4.761   4.618
23878WAT     H271877   9.087   4.861   4.738
23879WAT      O71878   5.945   2.831   9.016
23879WAT     H171879   6.042   2.822   8.997
23879WAT     H271880   5.923   2.783   9.101
23880WAT      O71881   5.335   9.410   8.910
23880WAT     H171882   5.418   9.408   8.854
23880WAT     H271883   5.256   9.426   8.850
23881WAT      O71884   5.037   2.065   0.663
23881WAT     H171885   5.128   2.100   0.684
23881WAT     H271886   5.040   2.013   0.578
23882WAT      O71887   1.094   0.965   0.527
23882WAT     H171888   1.023   0.971   0.598
23882WAT     H271889   1.176   0.923   0.566
23883WAT      O71890   1.048   3.203   2.076
23883WAT     H171891   1.096   3.197   1.989
23883WAT     H271892   0.979   3.130   2.082
23884WAT      O71893   2.877   3.980   0.861
23884WAT     H171894   2.906   3.890   0.891
23884WAT     H271895   2.811   4.018   0.927
23885WAT      O71896   1.019   8.481   2.161
23885WAT     H171897   0.933   8.498   2.112
23885WAT     H271898   1.089   8.450   2.096
23886WAT      O71899   1.167   3.050   4.854
23886WAT     H171900   1.244   2.991   4.880
23886WAT     H271901   1.090   2.993   4.824
23887WAT      O71902   7.248   3.039   6.755
23887WAT     H171903   7.185   3.033   6.678
23887WAT     H271904   7.196   3.047   6.840
23888WAT      O71905   3.850   6.765   2.323
23888WAT     H171906   3.783   6.726   2.386
23888WAT     H271907   3.943   6.745   2.356
23889WAT      O71908   0.918   6.972   5.218
23889WAT     H171909   0.852   7.037   5.256
23889WAT     H271910   0.877   6.881   5.215
23890WAT      O71911   8.968   2.003   0.717
23890WAT     H171912   9.025   2.071   0.764
23890WAT     H271913   8.941   2.038   0.628
23891WAT      O71914   3.652   7.250   8.576
23891WAT     H171915   3.717   7.285   8.644
23891WAT     H271916   3.569   7.218   8.623
23892WAT      O71917   1.340   2.862   2.168
23892WAT     H171918   1.411   2.793   2.184
23892WAT     H271919   1.356   2.906   2.080
23893WAT      O71920   2.677   2.556   7.131
23893WAT     H171921   2.617   2.558   7.052
23893WAT     H271922   2.653   2.479   7.190
23894WAT      O71923   4.620   9.360   8.761
23894WAT     H171924   4.627   9.264   8.736
23894WAT     H271925   4.611   9.416   8.679
23895WAT      O71926   2.785   4.062   3.562
23895WAT     H171927   2.813   4.130   3.495
23895WAT     H271928   2.724   4.104   3.629
23896WAT      O71929   0.365   7.673   6.435
23896WAT     H171930   0.307   7.594   6.415
23896WAT     H271931   0.311   7.757   6.430
23897WAT      O71932   3.585   2.403   7.125
23897WAT     H171933   3.613   2.398   7.221
23897WAT     H271934   3.500   2.352   7.112
23898WAT      O71935   1.171   6.892   0.451
23898WAT     H171936   1.263   6.855   0.464
23898WAT     H271937   1.110   6.857   0.521
23899WAT      O71938   1.562   8.286   3.673
23899WAT     H171939   1.576   8.298   3.575
23899WAT     H271940   1.507   8.361   3.708
23900WAT      O71941   4.004   5.191   5.145
23900WAT     H171942   3.960   5.240   5.071
23900WAT     H271943   4.079   5.136   5.109
23901WAT      O71944   7.590   0.935   2.831
23901WAT     H171945   7.624   0.952   2.924
23901WAT     H271946   7.653   0.974   2.765
23902WAT      O71947   6.468   7.705   9.364
23902WAT     H171948   6.562   7.672   9.371
23902WAT     H271949   6.406   7.627   9.362
23903WAT      O71950   1.587   1.380   1.737
23903WAT     H171951   1.680   1.343   1.728
23903WAT     H271952   1.574   1.414   1.830
23904WAT      O71953   4.593   2.338   7.554
23904WAT     H171954   4.667   2.284   7.593
23904WAT     H271955   4.582   2.423   7.605
23905WAT      O71956   0.202   6.141   7.697
23905WAT     H171957   0.280   6.081   7.680
23905WAT     H271958   0.117   6.094   7.671
23906WAT      O71959   8.431   1.054   6.503
23906WAT     H171960   8.498   1.006   6.447
23906WAT     H271961   8.375   0.988   6.553
23907WAT      O71962   4.195   4.140   9.600
23907WAT     H171963   4.185   4.084   9.682
23907WAT     H271964   4.143   4.225   9.611
23908WAT      O71965   8.108   1.663   6.234
23908WAT     H171966   8.078   1.569   6.221
23908WAT     H271967   8.188   1.681   6.177
23909WAT      O71968   7.937   2.209   6.760
23909WAT     H171969   7.993   2.165   6.829
23909WAT     H271970   7.845   2.172   6.762
23910WAT      O71971   2.925   6.375   7.423
23910WAT     H171972   2.868   6.454   7.398
23910WAT     H271973   3.021   6.396   7.402
23911WAT      O71974   0.397   1.939   5.422
23911WAT     H171975   0.491   1.914   5.399
23911WAT     H271976   0.339   1.858   5.419
23912WAT      O71977   8.810   1.559   7.885
23912WAT     H171978   8.738   1.499   7.920
23912WAT     H271979   8.825   1.633   7.950
23913WAT      O71980   2.191   4.019   3.054
23913WAT     H171981   2.271   3.995   3.109
23913WAT     H271982   2.151   4.104   3.088
23914WAT      O71983   0.152   1.716   3.637
23914WAT     H171984   0.247   1.742   3.655
23914WAT     H271985   0.091   1.792   3.660
23915WAT      O71986   2.647   0.915   5.612
23915WAT     H171987   2.684   0.996   5.658
23915WAT     H271988   2.695   0.833   5.645
23916WAT      O71989   2.404   5.589   6.291
23916WAT     H171990   2.492   5.553   6.258
23916WAT     H271991   2.417   5.629   6.381
23917WAT      O71992   8.914   5.635   7.769
23917WAT     H171993   9.001   5.647   7.722
23917WAT     H271994   8.866   5.556   7.730
23918WAT      O71995   2.863   3.224   1.324
23918WAT     H171996   2.889   3.313   1.288
23918WAT     H271997   2.765   3.221   1.339
23919WAT      O71998   5.293   9.481   5.766
23919WAT     H171999   5.320   9.497   5.861
23919WAT     H272000   5.324   9.557   5.709
23920WAT      O72001   8.050   0.823   5.033
23920WAT     H172002   8.053   0.763   4.953
23920WAT     H272003   7.963   0.811   5.080
23921WAT      O72004   4.228   9.459   8.772
23921WAT     H172005   4.135   9.493   8.757
23921WAT     H272006   4.226   9.391   8.845
23922WAT      O72007   3.964   1.224   5.994
23922WAT     H172008   3.961   1.142   5.936
23922WAT     H272009   3.996   1.302   5.941
23923WAT      O72010   1.975   8.982   9.496
23923WAT     H172011   1.978   8.913   9.568
23923WAT     H272012   1.994   8.939   9.407
23924WAT      O72013   7.478   9.492   1.217
23924WAT     H172014   7.403   9.558   1.211
23924WAT     H272015   7.498   9.472   1.313
23925WAT      O72016   0.538   7.631   4.174
23925WAT     H172017   0.513   7.715   4.127
23925WAT     H272018   0.529   7.553   4.112
23926WAT      O72019   6.032   5.554   6.236
23926WAT     H172020   5.982   5.482   6.188
23926WAT     H272021   6.022   5.641   6.187
23927WAT      O72022   7.340   6.191   0.931
23927WAT     H172023   7.342   6.281   0.974
23927WAT     H272024   7.300   6.199   0.840
23928WAT      O72025   3.158   0.281   6.326
23928WAT     H172026   3.230   0.246   6.266
23928WAT     H272027   3.199   0.342   6.394
23929WAT      O72028   8.229   6.541   8.654
23929WAT     H172029   8.215   6.470   8.585
23929WAT     H272030   8.325   6.540   8.683
23930WAT      O72031   2.070   7.136   0.443
23930WAT     H172032   1.980   7.092   0.445
23930WAT     H272033   2.121   7.112   0.526
23931WAT      O72034   1.865   8.819   7.247
23931WAT     H172035   1.943   8.757   7.242
23931WAT     H272036   1.824   8.812   7.338
23932WAT      O72037   5.907   9.675   6.992
23932WAT     H172038   5.883   9.578   6.992
23932WAT     H272039   5.924   9.705   7.086
23933WAT      O72040   3.553   5.203   7.359
23933WAT     H172041   3.578   5.107   7.373
23933WAT     H272042   3.605   5.240   7.282
23934WAT      O72043   9.191   0.378   5.067
23934WAT     H172044   9.166   0.352   5.160
23934WAT     H272045   9.186   0.477   5.057
23935WAT      O72046   7.145   3.358   7.747
23935WAT     H172047   7.230   3.403   7.720
23935WAT     H272048   7.153   3.260   7.729
23936WAT      O72049   9.224   0.235   4.147
23936WAT     H172050   9.177   0.147   4.154
23936WAT     H272051   9.185   0.287   4.072
23937WAT      O72052   9.104   0.842   5.903
23937WAT     H172053   9.155   0.927   5.886
23937WAT     H272054   9.163   0.764   5.885
23938WAT      O72055   0.980   5.152   2.724
23938WAT     H172056   0.962   5.213   2.647
23938WAT     H272057   0.920   5.176   2.801
23939WAT      O72058   2.788   6.207   5.202
23939WAT     H172059   2.814   6.228   5.296
23939WAT     H272060   2.725   6.277   5.168
23940WAT      O72061   6.287   7.489   1.201
23940WAT     H172062   6.278   7.494   1.102
23940WAT     H272063   6.246   7.571   1.242
23941WAT      O72064   5.951   0.856   2.549
23941WAT     H172065   5.865   0.893   2.583
23941WAT     H272066   5.988   0.791   2.616
23942WAT      O72067   7.578   9.805   6.354
23942WAT     H172068   7.501   9.782   6.414
23942WAT     H272069   7.664   9.784   6.401
23943WAT      O72070   6.035   1.294   8.120
23943WAT     H172071   5.994   1.269   8.032
23943WAT     H272072   6.071   1.387   8.114
23944WAT      O72073   1.754   8.174   4.766
23944WAT     H172074   1.697   8.095   4.742
23944WAT     H272075   1.753   8.239   4.690
23945WAT      O72076   1.027   8.089   1.103
23945WAT     H172077   1.099   8.042   1.153
23945WAT     H272078   0.939   8.074   1.149
23946WAT      O72079   3.302   6.410   3.099
23946WAT     H172080   3.279   6.356   3.018
23946WAT     H272081   3.322   6.349   3.176
23947WAT      O72082   9.605   3.037   0.884
23947WAT     H172083   9.549   3.110   0.844
23947WAT     H272084   9.600   3.042   0.983
23948WAT      O72085   3.871   2.698   9.260
23948WAT     H172086   3.911   2.608   9.270
23948WAT     H272087   3.865   2.722   9.163
23949WAT      O72088   3.945   7.387   4.717
23949WAT     H172089   4.032   7.341   4.698
23949WAT     H272090   3.928   7.456   4.647
23950WAT      O72091   6.232   6.720   3.155
23950WAT     H172092   6.199   6.751   3.244
23950WAT     H272093   6.316   6.770   3.132
23951WAT      O72094   5.259   6.796   4.917
23951WAT     H172095   5.216   6.721   4.967
23951WAT     H272096   5.247   6.782   4.819
23952WAT      O72097   5.184   1.725   2.047
23952WAT     H172098   5.103   1.727   2.105
23952WAT     H272099   5.170   1.783   1.967
23953WAT      O72100   3.675   0.903   9.155
23953WAT     H172101   3.677   0.977   9.222
23953WAT     H272102   3.591   0.850   9.167
23954WAT      O72103   9.097   9.318   3.944
23954WAT     H172104   8.999   9.336   3.942
23954WAT     H272105   9.128   9.294   3.852
23955WAT      O72106   9.621   6.425   1.837
23955WAT     H172107   9.531   6.457   1.867
23955WAT     H272108   9.627   6.428   1.737
23956WAT      O72109   3.712   5.708   0.428
23956WAT     H172110   3.617   5.692   0.403
23956WAT     H272111   3.769   5.708   0.346
23957WAT      O72112   0.175   0.198   3.098
23957WAT     H172113   0.239   0.177   3.024
23957WAT     H272114   0.138   0.112   3.135
23958WAT      O72115   3.428   9.536   6.307
23958WAT     H172116   3.504   9.477   6.332
23958WAT     H272117   3.370   9.553   6.387
23959WAT      O72118   6.477   7.643   0.179
23959WAT     H172119   6.407   7.608   0.241
23959WAT     H272120   6.434   7.669   0.092
23960WAT      O72121   0.406   1.035   8.285
23960WAT     H172122   0.333   0.987   8.334
23960WAT     H272123   0.374   1.059   8.194
23961WAT      O72124   2.753   8.386   2.059
23961WAT     H172125   2.660   8.372   2.093
23961WAT     H272126   2.793   8.299   2.034
23962WAT      O72127   9.503   7.740   5.339
23962WAT     H172128   9.437   7.725   5.265
23962WAT     H272129   9.455   7.742   5.426
23963WAT      O72130   0.790   6.143   6.998
23963WAT     H172131   0.748   6.062   6.956
23963WAT     H272132   0.718   6.202   7.035
23964WAT      O72133   9.612   7.746   5.971
23964WAT     H172134   9.640   7.665   6.022
23964WAT     H272135   9.670   7.824   5.996
23965WAT      O72136   9.813   1.119   5.773
23965WAT     H172137   9.824   1.151   5.867
23965WAT     H272138   9.888   1.056   5.750
23966WAT      O72139   8.181   7.156   8.085
23966WAT     H172140   8.263   7.188   8.039
23966WAT     H272141   8.148   7.073   8.039
23967WAT      O72142   0.685   8.824   0.275
23967WAT     H172143   0.588   8.845   0.261
23967WAT     H272144   0.730   8.811   0.187
23968WAT      O72145   3.577   6.734   6.012
23968WAT     H172146   3.631   6.818   6.011
23968WAT     H272147   3.637   6.655   6.007
23969WAT      O72148   2.528   3.589   8.806
23969WAT     H172149   2.593   3.582   8.730
23969WAT     H272150   2.459   3.518   8.797
23970WAT      O72151   6.464   9.533   8.941
23970WAT     H172152   6.543   9.583   8.907
23970WAT     H272153   6.406   9.594   8.996
23971WAT      O72154   1.651   7.917   1.465
23971WAT     H172155   1.730   7.927   1.526
23971WAT     H272156   1.577   7.871   1.513
23972WAT      O72157   5.070   9.479   1.351
23972WAT     H172158   4.975   9.467   1.378
23972WAT     H272159   5.130   9.450   1.426
23973WAT      O72160   4.851   5.292   3.024
23973WAT     H172161   4.852   5.211   3.082
23973WAT     H272162   4.926   5.286   2.958
23974WAT      O72163   4.153   3.993   3.964
23974WAT     H172164   4.190   3.902   3.944
23974WAT     H272165   4.066   4.005   3.917
23975WAT      O72166   6.750   2.671   9.188
23975WAT     H172167   6.663   2.712   9.161
23975WAT     H272168   6.780   2.711   9.274
23976WAT      O72169   1.031   7.544   6.223
23976WAT     H172170   0.981   7.496   6.152
23976WAT     H272171   1.081   7.621   6.182
23977WAT      O72172   3.105   8.977   3.792
23977WAT     H172173   3.133   8.953   3.699
23977WAT     H272174   3.062   8.897   3.835
23978WAT      O72175   8.820   9.397   8.245
23978WAT     H172176   8.814   9.310   8.196
23978WAT     H272177   8.772   9.468   8.193
23979WAT      O72178   5.013   8.078   6.284
23979WAT     H172179   5.080   8.146   6.253
23979WAT     H272180   5.055   7.987   6.282
23980WAT      O72181   2.817   0.226   8.522
23980WAT     H172182   2.874   0.185   8.593
23980WAT     H272183   2.731   0.177   8.515
23981WAT      O72184   1.820   8.407   6.442
23981WAT     H172185   1.826   8.384   6.539
23981WAT     H272186   1.762   8.340   6.395
23982WAT      O72187   5.933   1.183   7.890
23982WAT     H172188   5.904   1.099   7.845
23982WAT     H272189   6.016   1.217   7.845
23983WAT      O72190   1.407   8.205   3.980
23983WAT     H172191   1.493   8.218   3.931
23983WAT     H272192   1.419   8.230   4.077
23984WAT      O72193   9.334   7.131   7.153
23984WAT     H172194   9.362   7.180   7.070
23984WAT     H272195   9.270   7.058   7.127
23985WAT      O72196   3.719   3.078   8.625
23985WAT     H172197   3.661   3.029   8.689
23985WAT     H272198   3.676   3.166   8.601
23986WAT      O72199   4.998   7.031   7.396
23986WAT     H172200   5.060   7.002   7.323
23986WAT     H272201   5.048   7.088   7.462
23987WAT      O72202   7.343   0.046   2.483
23987WAT     H172203   7.283   0.026   2.405
23987WAT     H272204   7.303   0.008   2.566
23988WAT      O72205   7.042   1.070   5.083
23988WAT     H172206   6.945   1.090   5.097
23988WAT     H272207   7.087   1.149   5.042
23989WAT      O72208   6.367   7.380   8.769
23989WAT     H172209   6.416   7.311   8.823
23989WAT     H272210   6.362   7.465   8.821
23990WAT      O72211   4.994   1.212   5.551
23990WAT     H172212   4.946   1.236   5.466
23990WAT     H272213   4.950   1.259   5.627
23991WAT      O72214   4.692   9.791   5.078
23991WAT     H172215   4.746   9.794   5.162
23991WAT     H272216   4.606   9.742   5.096
23992WAT      O72217   0.864   7.275   9.363
23992WAT     H172218   0.839   7.179   9.351
23992WAT     H272219   0.797   7.333   9.316
23993WAT      O72220   0.028   0.516   6.499
23993WAT     H172221  -0.038   0.565   6.442
23993WAT     H272222   0.118   0.518   6.456
23994WAT      O72223   9.634   4.203   3.101
23994WAT     H172224   9.591   4.132   3.045
23994WAT     H272225   9.733   4.189   3.103
23995WAT      O72226   3.595   7.710   1.728
23995WAT     H172227   3.566   7.759   1.810
23995WAT     H272228   3.689   7.733   1.706
23996WAT      O72229   5.108   8.566   7.026
23996WAT     H172230   5.184   8.565   6.961
23996WAT     H272231   5.083   8.472   7.050
23997WAT      O72232   5.997   6.062   1.463
23997WAT     H172233   5.992   6.053   1.562
23997WAT     H272234   5.941   6.140   1.434
23998WAT      O72235   8.691   7.029   7.225
23998WAT     H172236   8.686   6.973   7.307
23998WAT     H272237   8.610   7.015   7.169
23999WAT      O72238   1.013   9.796   2.622
23999WAT     H172239   1.097   9.809   2.675
23999WAT     H272240   0.934   9.810   2.682
24000WAT      O72241   7.041   4.040   7.135
24000WAT     H172242   7.017   4.129   7.173
24000WAT     H272243   6.959   3.991   7.107
24001WAT      O72244   6.867   2.596   6.290
24001WAT     H172245   6.810   2.665   6.334
24001WAT     H272246   6.957   2.594   6.335
24002WAT      O72247   1.547   4.586   1.193
24002WAT     H172248   1.589   4.652   1.131
24002WAT     H272249   1.608   4.570   1.271
24003WAT      O72250   7.130   8.170   1.120
24003WAT     H172251   7.082   8.082   1.118
24003WAT     H272252   7.071   8.238   1.165
24004WAT      O72253   9.813   8.261   6.667
24004WAT     H172254   9.722   8.297   6.687
24004WAT     H272255   9.871   8.269   6.748
24005WAT      O72256   6.905   0.950   0.426
24005WAT     H172257   6.945   0.866   0.461
24005WAT     H272258   6.806   0.940   0.419
24006WAT      O72259   4.352   3.268   2.949
24006WAT     H172260   4.404   3.192   2.911
24006WAT     H272261   4.398   3.303   3.031
24007WAT      O72262   0.212   9.363   2.091
24007WAT     H172263   0.182   9.333   2.000
24007WAT     H272264   0.196   9.289   2.157
24008WAT      O72265   4.426   2.043   8.752
24008WAT     H172266   4.439   2.019   8.848
24008WAT     H272267   4.436   2.142   8.741
24009WAT      O72268   0.652   4.559   3.515
24009WAT     H172269   0.612   4.650   3.510
24009WAT     H272270   0.662   4.522   3.423
24010WAT      O72271   0.833   3.756   6.436
24010WAT     H172272   0.932   3.739   6.436
24010WAT     H272273   0.811   3.825   6.504
24011WAT      O72274   6.821   0.841   1.120
24011WAT     H172275   6.766   0.913   1.161
24011WAT     H272276   6.891   0.881   1.061
24012WAT      O72277   9.383   3.373   7.350
24012WAT     H172278   9.346   3.380   7.442
24012WAT     H272279   9.471   3.421   7.345
24013WAT      O72280   7.845   5.329   3.737
24013WAT     H172281   7.823   5.354   3.643
24013WAT     H272282   7.937   5.290   3.742
24014WAT      O72283   9.462   7.951   9.396
24014WAT     H172284   9.479   7.892   9.317
24014WAT     H272285   9.412   8.032   9.366
24015WAT      O72286   2.683   5.718   8.249
24015WAT     H172287   2.771   5.722   8.203
24015WAT     H272288   2.689   5.656   8.328
24016WAT      O72289   6.572   7.126   6.375
24016WAT     H172290   6.573   7.052   6.308
24016WAT     H272291   6.626   7.203   6.340
24017WAT      O72292   3.477   6.977   6.655
24017WAT     H172293   3.392   7.016   6.692
24017WAT     H272294   3.550   7.044   6.663
24018WAT      O72295   3.528   3.275   5.267
24018WAT     H172296   3.447   3.238   5.221
24018WAT     H272297   3.582   3.328   5.201
24019WAT      O72298   4.624   3.708   2.335
24019WAT     H172299   4.532   3.708   2.297
24019WAT     H272300   4.621   3.683   2.432
24020WAT      O72301   5.501   2.522   6.040
24020WAT     H172302   5.466   2.561   6.125
24020WAT     H272303   5.555   2.591   5.991
24021WAT      O72304   4.780   2.184   2.255
24021WAT     H172305   4.831   2.210   2.338
24021WAT     H272306   4.772   2.085   2.251
24022WAT      O72307   0.752   5.761   4.577
24022WAT     H172308   0.747   5.788   4.674
24022WAT     H272309   0.675   5.802   4.528
24023WAT      O72310   5.768   4.537   0.304
24023WAT     H172311   5.772   4.552   0.205
24023WAT     H272312   5.738   4.620   0.350
24024WAT      O72313   0.867   0.967   8.920
24024WAT     H172314   0.964   0.952   8.899
24024WAT     H272315   0.857   0.996   9.015
24025WAT      O72316   5.011   2.017   9.215
24025WAT     H172317   5.106   2.048   9.225
24025WAT     H272318   5.009   1.930   9.165
24026WAT      O72319   2.856   9.112   4.211
24026WAT     H172320   2.881   9.129   4.116
24026WAT     H272321   2.931   9.064   4.257
24027WAT      O72322   1.275   5.132   5.820
24027WAT     H172323   1.187   5.091   5.844
24027WAT     H272324   1.260   5.222   5.778
24028WAT      O72325   0.962   4.894   2.131
24028WAT     H172326   1.013   4.903   2.216
24028WAT     H272327   0.895   4.820   2.139
24029WAT      O72328   3.933   7.706   3.644
24029WAT     H172329   4.004   7.758   3.692
24029WAT     H272330   3.916   7.621   3.694
24030WAT      O72331   3.146   5.949   9.136
24030WAT     H172332   3.087   5.963   9.057
24030WAT     H272333   3.227   5.896   9.107
24031WAT      O72334   5.385   6.344   7.345
24031WAT     H172335   5.382   6.384   7.436
24031WAT     H272336   5.467   6.287   7.337
24032WAT      O72337   1.446   7.692   9.204
24032WAT     H172338   1.536   7.663   9.234
24032WAT     H272339   1.387   7.707   9.283
24033WAT      O72340   4.840   2.745   1.515
24033WAT     H172341   4.742   2.723   1.511
24033WAT     H272342   4.891   2.663   1.545
24034WAT      O72343   4.418   7.779   3.547
24034WAT     H172344   4.360   7.730   3.612
24034WAT     H272345   4.366   7.799   3.464
24035WAT      O72346   6.195   4.062   8.899
24035WAT     H172347   6.245   4.149   8.896
24035WAT     H272348   6.257   3.987   8.876
24036WAT      O72349   6.943   8.774   6.619
24036WAT     H172350   6.955   8.832   6.700
24036WAT     H272351   6.866   8.712   6.635
24037WAT      O72352   4.886   1.724   9.721
24037WAT     H172353   4.966   1.750   9.774
24037WAT     H272354   4.835   1.806   9.694
24038WAT      O72355   0.054   3.365   8.085
24038WAT     H172356   0.130   3.358   8.150
24038WAT     H272357   0.039   3.276   8.042
24039WAT      O72358   0.626   1.681   9.064
24039WAT     H172359   0.544   1.690   9.121
24039WAT     H272360   0.632   1.588   9.028
24040WAT      O72361   1.564   6.761   3.378
24040WAT     H172362   1.565   6.700   3.457
24040WAT     H272363   1.507   6.840   3.397
24041WAT      O72364   5.311   5.125   1.783
24041WAT     H172365   5.365   5.060   1.729
24041WAT     H272366   5.339   5.121   1.878
24042WAT      O72367   8.752   1.979   1.825
24042WAT     H172368   8.818   2.030   1.770
24042WAT     H272369   8.720   1.899   1.775
24043WAT      O72370   8.653   1.174   4.241
24043WAT     H172371   8.678   1.263   4.203
24043WAT     H272372   8.725   1.107   4.222
24044WAT      O72373   5.682   0.400   4.768
24044WAT     H172374   5.685   0.433   4.862
24044WAT     H272375   5.611   0.330   4.759
24045WAT      O72376   4.956   8.849   3.819
24045WAT     H172377   5.051   8.822   3.804
24045WAT     H272378   4.935   8.844   3.917
24046WAT      O72379   0.768   8.382   1.354
24046WAT     H172380   0.850   8.417   1.310
24046WAT     H272381   0.773   8.399   1.453
24047WAT      O72382   4.560   1.685   5.751
24047WAT     H172383   4.569   1.773   5.799
24047WAT     H272384   4.615   1.616   5.798
24048WAT      O72385   8.711   5.093   7.995
24048WAT     H172386   8.671   5.009   8.032
24048WAT     H272387   8.782   5.127   8.057
24049WAT      O72388   6.061   3.131   8.535
24049WAT     H172389   6.156   3.157   8.524
24049WAT     H272390   6.007   3.168   8.460
24050WAT      O72391   2.998   6.299   1.127
24050WAT     H172392   3.091   6.329   1.106
24050WAT     H272393   2.999   6.248   1.213
24051WAT      O72394   2.716   0.699   2.599
24051WAT     H172395   2.748   0.765   2.667
24051WAT     H272396   2.782   0.625   2.590
24052WAT      O72397   7.862   2.781   2.076
24052WAT     H172398   7.920   2.862   2.065
24052WAT     H272399   7.770   2.800   2.040
24053WAT      O72400   0.822   4.972   0.482
24053WAT     H172401   0.738   5.018   0.511
24053WAT     H272402   0.811   4.938   0.388
24054WAT      O72403   5.481   7.382   6.147
24054WAT     H172404   5.474   7.309   6.216
24054WAT     H272405   5.396   7.384   6.093
24055WAT      O72406   4.339   7.533   2.658
24055WAT     H172407   4.308   7.621   2.694
24055WAT     H272408   4.434   7.541   2.628
24056WAT      O72409   3.378   3.933   1.720
24056WAT     H172410   3.393   3.941   1.622
24056WAT     H272411   3.349   3.840   1.743
24057WAT      O72412   1.095   6.436   8.844
24057WAT     H172413   1.162   6.402   8.778
24057WAT     H272414   1.107   6.387   8.930
24058WAT      O72415   9.504   2.756   3.417
24058WAT     H172416   9.575   2.741   3.486
24058WAT     H272417   9.466   2.669   3.388
24059WAT      O72418   4.741   3.338   0.855
24059WAT     H172419   4.670   3.272   0.878
24059WAT     H272420   4.699   3.428   0.840
24060WAT      O72421   7.975   6.820   9.452
24060WAT     H172422   8.001   6.747   9.389
24060WAT     H272423   7.875   6.823   9.460
24061WAT      O72424   6.893   7.849   0.125
24061WAT     H172425   6.865   7.838   0.029
24061WAT     H272426   6.988   7.881   0.128
24062WAT      O72427   8.547   5.484   4.301
24062WAT     H172428   8.558   5.405   4.361
24062WAT     H272429   8.533   5.454   4.207
24063WAT      O72430   3.416   3.824   6.917
24063WAT     H172431   3.458   3.780   6.838
24063WAT     H272432   3.381   3.914   6.891
24064WAT      O72433   0.192   1.241   1.425
24064WAT     H172434   0.093   1.253   1.416
24064WAT     H272435   0.222   1.278   1.513
24065WAT      O72436   2.695   3.758   1.384
24065WAT     H172437   2.730   3.839   1.336
24065WAT     H272438   2.603   3.737   1.350
24066WAT      O72439   4.947   3.582   4.927
24066WAT     H172440   4.980   3.619   4.840
24066WAT     H272441   4.850   3.562   4.920
24067WAT      O72442   2.462   6.554   4.278
24067WAT     H172443   2.497   6.505   4.199
24067WAT     H272444   2.387   6.614   4.250
24068WAT      O72445   5.283   3.443   9.059
24068WAT     H172446   5.246   3.372   9.119
24068WAT     H272447   5.240   3.531   9.081
24069WAT      O72448   5.725   0.972   5.592
24069WAT     H172449   5.727   1.070   5.572
24069WAT     H272450   5.705   0.959   5.690
24070WAT      O72451   6.253   7.420   7.254
24070WAT     H172452   6.350   7.442   7.247
24070WAT     H272453   6.214   7.411   7.162
24071WAT      O72454   4.198   6.199   6.722
24071WAT     H172455   4.145   6.222   6.640
24071WAT     H272456   4.136   6.178   6.798
24072WAT      O72457   6.315   0.533   2.068
24072WAT     H172458   6.334   0.452   2.013
24072WAT     H272459   6.349   0.519   2.161
24073WAT      O72460   7.713   3.464   4.120
24073WAT     H172461   7.690   3.556   4.089
24073WAT     H272462   7.659   3.442   4.202
24074WAT      O72463   1.016   4.391   0.934
24074WAT     H172464   1.098   4.365   0.882
24074WAT     H272465   1.041   4.458   1.004
24075WAT      O72466   9.550   5.533   8.071
24075WAT     H172467   9.588   5.479   8.146
24075WAT     H272468   9.450   5.534   8.078
24076WAT      O72469   7.741   5.555   5.835
24076WAT     H172470   7.750   5.593   5.743
24076WAT     H272471   7.669   5.486   5.836
24077WAT      O72472   8.706   1.755   4.457
24077WAT     H172473   8.671   1.773   4.549
24077WAT     H272474   8.701   1.838   4.402
24078WAT      O72475   0.187   8.676   1.678
24078WAT     H172476   0.172   8.722   1.591
24078WAT     H272477   0.285   8.671   1.697
24079WAT      O72478   6.310   3.627   5.921
24079WAT     H172479   6.263   3.690   5.983
24079WAT     H272480   6.253   3.546   5.906
24080WAT      O72481   3.848   7.469   3.746
24080WAT     H172482   3.763   7.487   3.697
24080WAT     H272483   3.833   7.397   3.814
24081WAT      O72484   7.879   2.080   1.601
24081WAT     H172485   7.796   2.135   1.595
24081WAT     H272486   7.941   2.121   1.668
24082WAT      O72487   0.691   1.827   3.383
24082WAT     H172488   0.695   1.732   3.349
24082WAT     H272489   0.748   1.835   3.464
24083WAT      O72490   5.335   0.004   4.603
24083WAT     H172491   5.251  -0.049   4.593
24083WAT     H272492   5.380   0.013   4.514
24084WAT      O72493   2.940   3.632   0.224
24084WAT     H172494   2.848   3.669   0.241
24084WAT     H272495   2.938   3.577   0.140
24085WAT      O72496   8.285   8.631   9.101
24085WAT     H172497   8.290   8.687   9.018
24085WAT     H272498   8.247   8.685   9.176
24086WAT      O72499   0.856   3.711   0.813
24086WAT     H172500   0.912   3.720   0.732
24086WAT     H272501   0.909   3.667   0.886
24087WAT      O72502   5.673   7.049   8.441
24087WAT     H172503   5.687   6.989   8.362
24087WAT     H272504   5.578   7.043   8.471
24088WAT      O72505   9.320   8.615   7.985
24088WAT     H172506   9.339   8.519   7.963
24088WAT     H272507   9.232   8.622   8.031
24089WAT      O72508   5.800   3.914   2.685
24089WAT     H172509   5.715   3.862   2.675
24089WAT     H272510   5.853   3.876   2.760
24090WAT      O72511   9.394   6.665   6.034
24090WAT     H172512   9.397   6.565   6.027
24090WAT     H272513   9.328   6.691   6.105
24091WAT      O72514   1.692   1.045   7.201
24091WAT     H172515   1.756   1.090   7.263
24091WAT     H272516   1.739   0.971   7.152
24092WAT      O72517   1.011   8.700   6.331
24092WAT     H172518   1.063   8.629   6.285
24092WAT     H272519   1.070   8.749   6.395
24093WAT      O72520   4.859   0.620   8.798
24093WAT     H172521   4.769   0.599   8.761
24093WAT     H272522   4.858   0.611   8.897
24094WAT      O72523   1.047   0.437   0.964
24094WAT     H172524   1.145   0.451   0.946
24094WAT     H272525   1.008   0.379   0.892
24095WAT      O72526   4.743   4.759   6.050
24095WAT     H172527   4.670   4.694   6.034
24095WAT     H272528   4.756   4.816   5.968
24096WAT      O72529   2.890   4.663   5.433
24096WAT     H172530   2.967   4.657   5.496
24096WAT     H272531   2.910   4.729   5.361
24097WAT      O72532   8.468   4.730   2.550
24097WAT     H172533   8.443   4.646   2.502
24097WAT     H272534   8.497   4.799   2.484
24098WAT      O72535   4.936   4.048   0.687
24098WAT     H172536   4.979   4.081   0.603
24098WAT     H272537   4.846   4.091   0.697
24099WAT      O72538   0.260   0.451   3.693
24099WAT     H172539   0.359   0.461   3.686
24099WAT     H272540   0.228   0.386   3.623
24100WAT      O72541   3.101   3.766   6.237
24100WAT     H172542   3.038   3.807   6.171
24100WAT     H272543   3.064   3.775   6.329
24101WAT      O72544   1.599   5.403   0.403
24101WAT     H172545   1.509   5.365   0.382
24101WAT     H272546   1.658   5.330   0.438
24102WAT      O72547   2.291   3.512   2.230
24102WAT     H172548   2.222   3.442   2.209
24102WAT     H272549   2.382   3.472   2.226
24103WAT      O72550   6.660   0.426   7.698
24103WAT     H172551   6.676   0.487   7.621
24103WAT     H272552   6.642   0.333   7.664
24104WAT      O72553   4.800   0.874   2.056
24104WAT     H172554   4.750   0.790   2.036
24104WAT     H272555   4.877   0.884   1.993
24105WAT      O72556   0.434   9.660   9.589
24105WAT     H172557   0.480   9.613   9.513
24105WAT     H272558   0.404   9.593   9.657
24106WAT      O72559   7.003   9.194   9.800
24106WAT     H172560   6.917   9.243   9.807
24106WAT     H272561   6.985   9.098   9.778
24107WAT      O72562   4.031   9.656   9.842
24107WAT     H172563   4.005   9.708   9.923
24107WAT     H272564   4.094   9.583   9.868
24108WAT      O72565   3.066   6.287   2.026
24108WAT     H172566   3.133   6.227   1.983
24108WAT     H272567   2.974   6.252   2.009
24109WAT      O72568   4.578   0.281   7.939
24109WAT     H172569   4.535   0.264   8.028
24109WAT     H272570   4.542   0.217   7.872
24110WAT      O72571   0.895   0.782   8.198
24110WAT     H172572   0.832   0.859   8.185
24110WAT     H272573   0.914   0.771   8.295
24111WAT      O72574   5.472   6.333   5.718
24111WAT     H172575   5.501   6.395   5.791
24111WAT     H272576   5.500   6.240   5.740
24112WAT      O72577   6.767   5.371   9.053
24112WAT     H172578   6.799   5.286   9.011
24112WAT     H272579   6.839   5.409   9.111
24113WAT      O72580   1.416   1.842   6.904
24113WAT     H172581   1.504   1.838   6.952
24113WAT     H272582   1.354   1.774   6.942
24114WAT      O72583   2.743   0.260   4.982
24114WAT     H172584   2.775   0.170   4.952
24114WAT     H272585   2.776   0.277   5.075
24115WAT      O72586   2.747   7.168   9.494
24115WAT     H172587   2.829   7.195   9.443
24115WAT     H272588   2.751   7.070   9.515
24116WAT      O72589   3.581   3.960   4.382
24116WAT     H172590   3.565   4.027   4.455
24116WAT     H272591   3.497   3.946   4.331
24117WAT      O72592   8.942   9.119   7.301
24117WAT     H172593   8.919   9.179   7.378
24117WAT     H272594   8.858   9.078   7.265
24118WAT      O72595   2.987   3.839   4.783
24118WAT     H172596   3.063   3.851   4.718
24118WAT     H272597   2.948   3.748   4.772
24119WAT      O72598   5.087   2.213   4.593
24119WAT     H172599   5.179   2.205   4.630
24119WAT     H272600   5.059   2.125   4.554
24120WAT      O72601   9.747   5.944   2.614
24120WAT     H172602   9.698   6.030   2.626
24120WAT     H272603   9.811   5.953   2.537
24121WAT      O72604   9.297   5.172   7.434
24121WAT     H172605   9.271   5.224   7.352
24121WAT     H272606   9.252   5.083   7.432
24122WAT      O72607   5.708   4.576   0.048
24122WAT     H172608   5.759   4.513  -0.010
24122WAT     H272609   5.663   4.645  -0.010
24123WAT      O72610   0.937   4.348   8.112
24123WAT     H172611   0.872   4.302   8.052
24123WAT     H272612   0.894   4.428   8.154
24124WAT      O72613   9.402   5.436   1.350
24124WAT     H172614   9.306   5.411   1.341
24124WAT     H272615   9.430   5.493   1.273
24125WAT      O72616   1.815   0.565   3.143
24125WAT     H172617   1.722   0.538   3.167
24125WAT     H272618   1.814   0.653   3.095
24126WAT      O72619   4.376   0.015   4.079
24126WAT     H172620   4.283   0.018   4.043
24126WAT     H272621   4.381  -0.050   4.155
24127WAT      O72622   5.789   9.170   4.419
24127WAT     H172623   5.867   9.193   4.477
24127WAT     H272624   5.729   9.250   4.411
24128WAT      O72625   8.975   0.434   8.197
24128WAT     H172626   8.978   0.338   8.225
24128WAT     H272627   9.009   0.443   8.103
24129WAT      O72628   2.640   8.176   9.037
24129WAT     H172629   2.722   8.233   9.037
24129WAT     H272630   2.567   8.221   9.088
24130WAT      O72631   3.485   9.762   9.721
24130WAT     H172632   3.470   9.681   9.779
24130WAT     H272633   3.543   9.738   9.644
24131WAT      O72634   9.429   5.523   3.538
24131WAT     H172635   9.434   5.423   3.531
24131WAT     H272636   9.507   5.557   3.589
24132WAT      O72637   2.997   0.175   4.282
24132WAT     H172638   2.946   0.259   4.268
24132WAT     H272639   2.942   0.111   4.334
24133WAT      O72640   9.217   7.896   2.364
24133WAT     H172641   9.204   7.938   2.454
24133WAT     H272642   9.282   7.820   2.373
24134WAT      O72643   3.102   3.888   8.248
24134WAT     H172644   3.160   3.808   8.266
24134WAT     H272645   3.066   3.923   8.335
24135WAT      O72646   3.101   4.768   1.792
24135WAT     H172647   3.171   4.806   1.853
24135WAT     H272648   3.079   4.835   1.720
24136WAT      O72649   0.121   5.478   9.267
24136WAT     H172650   0.183   5.421   9.213
24136WAT     H272651   0.174   5.531   9.333
24137WAT      O72652   4.114   8.969   5.808
24137WAT     H172653   4.194   8.909   5.814
24137WAT     H272654   4.063   8.949   5.724
24138WAT      O72655   0.136   4.560   7.254
24138WAT     H172656   0.235   4.562   7.269
24138WAT     H272657   0.090   4.614   7.325
24139WAT      O72658   1.896   5.470   2.267
24139WAT     H172659   1.819   5.476   2.331
24139WAT     H272660   1.928   5.375   2.263
24140WAT      O72661   8.110   3.289   0.912
24140WAT     H172662   8.097   3.191   0.925
24140WAT     H272663   8.132   3.332   0.999
24141WAT      O72664   6.877   9.344   3.626
24141WAT     H172665   6.962   9.294   3.611
24141WAT     H272666   6.822   9.342   3.543
24142WAT      O72667   7.276   7.011   7.867
24142WAT     H172668   7.230   7.099   7.881
24142WAT     H272669   7.352   7.004   7.931
24143WAT      O72670   2.530   5.481   7.550
24143WAT     H172671   2.542   5.569   7.504
24143WAT     H272672   2.485   5.417   7.488
24144WAT      O72673   4.568   9.404   7.869
24144WAT     H172674   4.664   9.399   7.897
24144WAT     H272675   4.549   9.333   7.802
24145WAT      O72676   1.589   8.393   5.638
24145WAT     H172677   1.515   8.419   5.576
24145WAT     H272678   1.666   8.359   5.584
24146WAT      O72679   4.219   8.268   2.562
24146WAT     H172680   4.235   8.181   2.516
24146WAT     H272681   4.258   8.265   2.654
24147WAT      O72682   0.664   9.383   4.617
24147WAT     H172683   0.639   9.472   4.579
24147WAT     H272684   0.606   9.312   4.577
24148WAT      O72685   4.186   4.149   2.527
24148WAT     H172686   4.103   4.137   2.581
24148WAT     H272687   4.163   4.157   2.430
24149WAT      O72688   0.093   7.548   7.057
24149WAT     H172689   0.102   7.449   7.047
24149WAT     H272690   0.011   7.579   7.009
24150WAT      O72691   9.294   1.881   0.141
24150WAT     H172692   9.287   1.820   0.220
24150WAT     H272693   9.346   1.836   0.069
24151WAT      O72694   0.540   2.912   2.692
24151WAT     H172695   0.519   2.992   2.636
24151WAT     H272696   0.638   2.912   2.714
24152WAT      O72697   9.529   7.034   8.740
24152WAT     H172698   9.606   7.089   8.772
24152WAT     H272699   9.517   7.048   8.642
24153WAT      O72700   9.693   9.517   8.955
24153WAT     H172701   9.737   9.600   8.988
24153WAT     H272702   9.688   9.450   9.029
24154WAT      O72703   9.825   5.088   9.482
24154WAT     H172704   9.764   5.166   9.496
24154WAT     H272705   9.805   5.045   9.394
24155WAT      O72706   9.837   1.432   5.287
24155WAT     H172707   9.903   1.398   5.354
24155WAT     H272708   9.813   1.359   5.223
24156WAT      O72709   5.608   4.100   3.088
24156WAT     H172710   5.644   4.186   3.125
24156WAT     H272711   5.536   4.066   3.149
24157WAT      O72712   0.708   3.075   0.512
24157WAT     H172713   0.788   3.020   0.538
24157WAT     H272714   0.684   3.056   0.417
24158WAT      O72715   5.300   8.171   1.203
24158WAT     H172716   5.343   8.183   1.293
24158WAT     H272717   5.224   8.106   1.210
24159WAT      O72718   3.822   8.064   7.470
24159WAT     H172719   3.781   8.115   7.546
24159WAT     H272720   3.786   8.098   7.383
24160WAT      O72721   7.208   9.518   5.086
24160WAT     H172722   7.300   9.484   5.069
24160WAT     H272723   7.142   9.444   5.072
24161WAT      O72724   6.795   1.226   2.954
24161WAT     H172725   6.868   1.294   2.946
24161WAT     H272726   6.715   1.257   2.902
24162WAT      O72727   4.469   0.120   0.215
24162WAT     H172728   4.450   0.112   0.117
24162WAT     H272729   4.397   0.074   0.267
24163WAT      O72730   3.278   9.699   2.117
24163WAT     H172731   3.341   9.648   2.059
24163WAT     H272732   3.184   9.683   2.086
24164WAT      O72733   8.259   3.967   0.059
24164WAT     H172734   8.217   4.033  -0.003
24164WAT     H272735   8.249   3.875   0.022
24165WAT      O72736   4.779   8.610   7.207
24165WAT     H172737   4.771   8.704   7.174
24165WAT     H272738   4.750   8.605   7.303
24166WAT      O72739   3.699   3.979   0.434
24166WAT     H172740   3.779   4.039   0.444
24166WAT     H272741   3.698   3.913   0.509
24167WAT      O72742   1.589   1.690   2.960
24167WAT     H172743   1.630   1.781   2.964
24167WAT     H272744   1.609   1.641   3.045
24168WAT      O72745   2.529   0.531   4.485
24168WAT     H172746   2.603   0.471   4.514
24168WAT     H272747   2.480   0.566   4.565
24169WAT      O72748   8.092   6.356   8.969
24169WAT     H172749   8.130   6.439   8.928
24169WAT     H272750   8.131   6.276   8.924
24170WAT      O72751   1.159   4.394   4.167
24170WAT     H172752   1.166   4.369   4.263
24170WAT     H272753   1.063   4.391   4.139
24171WAT      O72754   1.054   3.540   8.324
24171WAT     H172755   1.093   3.546   8.232
24171WAT     H272756   1.106   3.598   8.386
24172WAT      O72757   6.127   0.967   6.326
24172WAT     H172758   6.156   0.956   6.421
24172WAT     H272759   6.034   0.930   6.316
24173WAT      O72760   3.435   8.701   3.676
24173WAT     H172761   3.399   8.675   3.765
24173WAT     H272762   3.422   8.799   3.661
24174WAT      O72763   2.731   7.499   3.963
24174WAT     H172764   2.819   7.542   3.980
24174WAT     H272765   2.703   7.516   3.868
24175WAT      O72766   0.520   8.814   6.262
24175WAT     H172767   0.566   8.896   6.296
24175WAT     H272768   0.585   8.756   6.214
24176WAT      O72769   6.391   7.874   8.197
24176WAT     H172770   6.324   7.829   8.138
24176WAT     H272771   6.390   7.972   8.180
24177WAT      O72772   0.145   6.231   9.681
24177WAT     H172773   0.146   6.177   9.764
24177WAT     H272774   0.115   6.174   9.604
24178WAT      O72775   1.067   4.646   7.102
24178WAT     H172776   1.140   4.594   7.147
24178WAT     H272777   1.052   4.731   7.152
24179WAT      O72778   5.310   7.596   3.218
24179WAT     H172779   5.283   7.525   3.284
24179WAT     H272780   5.363   7.666   3.264
24180WAT      O72781   8.592   8.794   6.652
24180WAT     H172782   8.639   8.797   6.564
24180WAT     H272783   8.646   8.844   6.720
24181WAT      O72784   4.874   9.457   1.766
24181WAT     H172785   4.914   9.544   1.793
24181WAT     H272786   4.944   9.386   1.766
24182WAT      O72787   9.719   1.259   4.843
24182WAT     H172788   9.678   1.326   4.781
24182WAT     H272789   9.674   1.171   4.832
24183WAT      O72790   9.750   4.048   2.055
24183WAT     H172791   9.749   3.981   1.981
24183WAT     H272792   9.726   4.138   2.020
24184WAT      O72793   8.703   1.286   5.774
24184WAT     H172794   8.608   1.300   5.747
24184WAT     H272795   8.734   1.197   5.742
24185WAT      O72796   7.932   5.590   3.904
24185WAT     H172797   8.027   5.588   3.936
24185WAT     H272798   7.910   5.502   3.862
24186WAT      O72799   2.058   7.886   5.125
24186WAT     H172800   2.139   7.918   5.174
24186WAT     H272801   2.018   7.809   5.175
24187WAT      O72802   4.408   0.255   8.245
24187WAT     H172803   4.451   0.169   8.271
24187WAT     H272804   4.333   0.276   8.307
24188WAT      O72805   0.621   7.630   5.670
24188WAT     H172806   0.625   7.722   5.633
24188WAT     H272807   0.666   7.627   5.760
24189WAT      O72808   2.864   7.748   4.511
24189WAT     H172809   2.768   7.771   4.531
24189WAT     H272810   2.883   7.655   4.542
24190WAT      O72811   4.051   7.391   9.841
24190WAT     H172812   4.040   7.490   9.830
24190WAT     H272813   4.083   7.351   9.755
24191WAT      O72814   5.584   5.066   0.450
24191WAT     H172815   5.682   5.052   0.445
24191WAT     H272816   5.550   5.035   0.539
24192WAT      O72817   5.014   6.179   9.154
24192WAT     H172818   5.071   6.253   9.118
24192WAT     H272819   5.054   6.144   9.239
24193WAT      O72820   1.978   3.844   1.408
24193WAT     H172821   1.997   3.908   1.334
24193WAT     H272822   2.064   3.812   1.447
24194WAT      O72823   9.232   1.115   3.804
24194WAT     H172824   9.265   1.145   3.714
24194WAT     H272825   9.168   1.040   3.792
24195WAT      O72826   7.028   9.125   1.206
24195WAT     H172827   7.004   9.146   1.111
24195WAT     H272828   7.006   9.029   1.225
24196WAT      O72829   6.455   4.401   0.965
24196WAT     H172830   6.540   4.422   0.916
24196WAT     H272831   6.393   4.351   0.904
24197WAT      O72832   9.563   9.401   6.784
24197WAT     H172833   9.492   9.361   6.841
24197WAT     H272834   9.620   9.462   6.839
24198WAT      O72835   9.278   3.723   2.069
24198WAT     H172836   9.339   3.802   2.064
24198WAT     H272837   9.209   3.738   2.140
24199WAT      O72838   1.439   3.409   3.747
24199WAT     H172839   1.468   3.459   3.665
24199WAT     H272840   1.416   3.474   3.819
24200WAT      O72841   1.294   3.403   4.147
24200WAT     H172842   1.356   3.325   4.141
24200WAT     H272843   1.316   3.456   4.229
24201WAT      O72844   6.623   2.212   7.235
24201WAT     H172845   6.611   2.185   7.331
24201WAT     H272846   6.692   2.154   7.193
24202WAT      O72847   9.502   7.239   5.072
24202WAT     H172848   9.593   7.209   5.042
24202WAT     H272849   9.492   7.220   5.170
24203WAT      O72850   4.569   0.313   5.772
24203WAT     H172851   4.560   0.409   5.746
24203WAT     H272852   4.564   0.304   5.871
24204WAT      O72853   2.381   7.411   1.023
24204WAT     H172854   2.396   7.507   0.999
24204WAT     H272855   2.453   7.382   1.087
24205WAT      O72856   1.171   9.229   3.441
24205WAT     H172857   1.190   9.161   3.512
24205WAT     H272858   1.257   9.267   3.408
24206WAT      O72859   3.557   8.488   6.855
24206WAT     H172860   3.492   8.565   6.851
24206WAT     H272861   3.584   8.473   6.950
24207WAT      O72862   4.871   8.491   4.596
24207WAT     H172863   4.781   8.506   4.553
24207WAT     H272864   4.902   8.398   4.575
24208WAT      O72865   4.132   2.549   3.304
24208WAT     H172866   4.039   2.567   3.270
24208WAT     H272867   4.129   2.534   3.403
24209WAT      O72868   2.519   0.934   4.568
24209WAT     H172869   2.447   0.893   4.512
24209WAT     H272870   2.479   0.966   4.654
24210WAT      O72871   0.749   0.407   5.906
24210WAT     H172872   0.718   0.494   5.868
24210WAT     H272873   0.824   0.371   5.851
24211WAT      O72874   9.173   7.808   4.669
24211WAT     H172875   9.219   7.851   4.746
24211WAT     H272876   9.196   7.856   4.585
24212WAT      O72877   1.475   2.948   8.307
24212WAT     H172878   1.554   2.899   8.270
24212WAT     H272879   1.407   2.961   8.234
24213WAT      O72880   4.677   7.417   7.451
24213WAT     H172881   4.693   7.516   7.458
24213WAT     H272882   4.726   7.381   7.372
24214WAT      O72883   9.660   9.553   2.105
24214WAT     H172884   9.654   9.469   2.052
24214WAT     H272885   9.747   9.555   2.155
24215WAT      O72886   7.752   2.806   8.729
24215WAT     H172887   7.733   2.904   8.730
24215WAT     H272888   7.779   2.776   8.820
24216WAT      O72889   2.155   2.499   6.695
24216WAT     H172890   2.220   2.434   6.734
24216WAT     H272891   2.120   2.463   6.608
24217WAT      O72892   5.416   8.295   2.488
24217WAT     H172893   5.395   8.236   2.410
24217WAT     H272894   5.353   8.373   2.488
24218WAT      O72895   7.710   3.500   8.854
24218WAT     H172896   7.807   3.504   8.832
24218WAT     H272897   7.694   3.543   8.943
24219WAT      O72898   2.206   4.297   4.166
24219WAT     H172899   2.109   4.272   4.152
24219WAT     H272900   2.217   4.340   4.255
24220WAT      O72901   2.818   2.283   6.410
24220WAT     H172902   2.780   2.360   6.462
24220WAT     H272903   2.863   2.318   6.327
24221WAT      O72904   5.917   2.456   8.827
24221WAT     H172905   5.985   2.526   8.806
24221WAT     H272906   5.826   2.498   8.830
24222WAT      O72907   8.422   3.162   6.975
24222WAT     H172908   8.494   3.119   6.921
24222WAT     H272909   8.427   3.128   7.069
24223WAT      O72910   2.890   4.208   2.986
24223WAT     H172911   2.937   4.132   2.942
24223WAT     H272912   2.795   4.183   3.003
24224WAT      O72913   1.439   6.104   5.919
24224WAT     H172914   1.519   6.047   5.898
24224WAT     H272915   1.369   6.089   5.849
24225WAT      O72916   1.736   8.857   7.013
24225WAT     H172917   1.780   8.840   7.101
24225WAT     H272918   1.638   8.836   7.019
24226WAT      O72919   5.283   0.291   7.551
24226WAT     H172920   5.215   0.353   7.514
24226WAT     H272921   5.359   0.281   7.486
24227WAT      O72922   1.108   5.700   7.806
24227WAT     H172923   1.191   5.737   7.849
24227WAT     H272924   1.103   5.602   7.824
24228WAT      O72925   8.816   0.580   5.485
24228WAT     H172926   8.776   0.602   5.396
24228WAT     H272927   8.844   0.664   5.532
24229WAT      O72928   1.339   3.479   7.563
24229WAT     H172929   1.410   3.544   7.536
24229WAT     H272930   1.380   3.391   7.584
24230WAT      O72931   6.462   1.499   7.449
24230WAT     H172932   6.421   1.423   7.399
24230WAT     H272933   6.437   1.493   7.546
24231WAT      O72934   0.017   7.937   0.442
24231WAT     H172935   0.013   7.901   0.535
24231WAT     H272936  -0.076   7.937   0.403
24232WAT      O72937   6.248   1.726   0.160
24232WAT     H172938   6.256   1.630   0.187
24232WAT     H272939   6.339   1.768   0.162
24233WAT      O72940   9.590   8.701   8.984
24233WAT     H172941   9.609   8.620   9.040
24233WAT     H272942   9.668   8.764   8.989
24234WAT      O72943   4.393   2.648   9.862
24234WAT     H172944   4.304   2.606   9.842
24234WAT     H272945   4.463   2.576   9.864
24235WAT      O72946   4.389   5.895   0.567
24235WAT     H172947   4.404   5.922   0.472
24235WAT     H272948   4.472   5.910   0.620
24236WAT      O72949   0.523   4.347   6.628
24236WAT     H172950   0.531   4.445   6.609
24236WAT     H272951   0.584   4.322   6.703
24237WAT      O72952   0.245   0.929   0.570
24237WAT     H172953   0.299   0.850   0.598
24237WAT     H272954   0.305   1.007   0.552
24238WAT      O72955   6.460   7.505   5.628
24238WAT     H172956   6.523   7.582   5.625
24238WAT     H272957   6.466   7.461   5.718
24239WAT      O72958   8.546   2.611   8.438
24239WAT     H172959   8.567   2.608   8.536
24239WAT     H272960   8.631   2.613   8.386
24240WAT      O72961   0.424   8.354   0.223
24240WAT     H172962   0.498   8.421   0.209
24240WAT     H272963   0.459   8.278   0.278
24241WAT      O72964   1.273   4.337   4.824
24241WAT     H172965   1.286   4.250   4.777
24241WAT     H272966   1.284   4.324   4.923
24242WAT      O72967   7.725   2.976   6.423
24242WAT     H172968   7.753   3.004   6.515
24242WAT     H272969   7.748   2.880   6.409
24243WAT      O72970   2.666   1.452   1.048
24243WAT     H172971   2.604   1.478   1.122
24243WAT     H272972   2.640   1.499   0.964
24244WAT      O72973   7.826   4.605   9.850
24244WAT     H172974   7.773   4.537   9.901
24244WAT     H272975   7.835   4.574   9.755
24245WAT      O72976   5.487   6.851   2.835
24245WAT     H172977   5.454   6.762   2.805
24245WAT     H272978   5.514   6.905   2.755
24246WAT      O72979   1.492   5.376   1.307
24246WAT     H172980   1.473   5.416   1.396
24246WAT     H272981   1.455   5.283   1.304
24247WAT      O72982   2.739   8.281   8.522
24247WAT     H172983   2.666   8.281   8.590
24247WAT     H272984   2.819   8.328   8.558
24248WAT      O72985   8.805   3.128   9.113
24248WAT     H172986   8.810   3.075   9.028
24248WAT     H272987   8.779   3.068   9.188
24249WAT      O72988   2.104   9.277   6.715
24249WAT     H172989   2.148   9.187   6.717
24249WAT     H272990   2.025   9.277   6.776
24250WAT      O72991   6.295   7.779   3.650
24250WAT     H172992   6.276   7.813   3.742
24250WAT     H272993   6.277   7.681   3.646
24251WAT      O72994   5.931   2.932   2.436
24251WAT     H172995   6.000   2.861   2.421
24251WAT     H272996   5.923   2.951   2.534
24252WAT      O72997   1.312   2.864   6.768
24252WAT     H172998   1.398   2.878   6.818
24252WAT     H272999   1.331   2.857   6.670
24253WAT      O73000   3.595   5.697   3.758
24253WAT     H173001   3.667   5.674   3.824
24253WAT     H273002   3.606   5.792   3.728
24254WAT      O73003   6.396   2.917   1.910
24254WAT     H173004   6.336   2.996   1.897
24254WAT     H273005   6.349   2.834   1.879
24255WAT      O73006   0.157   7.505   3.243
24255WAT     H173007   0.145   7.487   3.341
24255WAT     H273008   0.100   7.443   3.190
24256WAT      O73009   4.692   4.629   6.536
24256WAT     H173010   4.709   4.722   6.568
24256WAT     H273011   4.630   4.631   6.457
24257WAT      O73012   0.493   3.920   6.751
24257WAT     H173013   0.399   3.950   6.738
24257WAT     H273014   0.533   3.967   6.829
24258WAT      O73015   9.033   4.757   3.002
24258WAT     H173016   9.110   4.761   3.066
24258WAT     H273017   8.956   4.710   3.046
24259WAT      O73018   4.667   1.720   7.324
24259WAT     H173019   4.609   1.650   7.282
24259WAT     H273020   4.715   1.681   7.403
24260WAT      O73021   7.862   9.844   5.973
24260WAT     H173022   7.842   9.834   5.876
24260WAT     H273023   7.788   9.803   6.027
24261WAT      O73024   6.239   8.716   0.923
24261WAT     H173025   6.167   8.776   0.888
24261WAT     H273026   6.207   8.668   1.004
24262WAT      O73027   3.628   5.275   5.314
24262WAT     H173028   3.676   5.352   5.273
24262WAT     H273029   3.623   5.288   5.413
24263WAT      O73030   8.615   8.969   0.500
24263WAT     H173031   8.564   8.895   0.545
24263WAT     H273032   8.559   9.007   0.426
24264WAT      O73033   4.583   1.967   7.380
24264WAT     H173034   4.594   2.032   7.305
24264WAT     H273035   4.611   1.876   7.349
24265WAT      O73036   1.809   0.210   6.026
24265WAT     H173037   1.807   0.111   6.038
24265WAT     H273038   1.805   0.232   5.928
24266WAT      O73039   7.798   7.719   4.866
24266WAT     H173040   7.733   7.679   4.930
24266WAT     H273041   7.775   7.690   4.773
24267WAT      O73042   5.415   2.597   1.596
24267WAT     H173043   5.474   2.570   1.520
24267WAT     H273044   5.439   2.544   1.677
24268WAT      O73045   4.360   2.847   7.791
24268WAT     H173046   4.364   2.778   7.719
24268WAT     H273047   4.342   2.937   7.750
24269WAT      O73048   9.293   0.989   6.378
24269WAT     H173049   9.371   1.051   6.372
24269WAT     H273050   9.209   1.042   6.391
24270WAT      O73051   4.338   5.302   6.096
24270WAT     H173052   4.313   5.389   6.139
24270WAT     H273053   4.375   5.321   6.004
24271WAT      O73054   3.728   9.038   3.327
24271WAT     H173055   3.651   9.079   3.376
24271WAT     H273056   3.810   9.042   3.383
24272WAT      O73057   3.320   9.396   0.286
24272WAT     H173058   3.320   9.445   0.373
24272WAT     H273059   3.393   9.328   0.286
24273WAT      O73060   5.718   7.606   5.804
24273WAT     H173061   5.772   7.685   5.834
24273WAT     H273062   5.732   7.531   5.869
24274WAT      O73063   6.242   5.211   6.969
24274WAT     H173064   6.184   5.293   6.977
24274WAT     H273065   6.337   5.239   6.961
24275WAT      O73066   3.867   5.510   7.561
24275WAT     H173067   3.783   5.460   7.582
24275WAT     H273068   3.874   5.590   7.620
24276WAT      O73069   2.663   1.183   0.992
24276WAT     H173070   2.652   1.273   1.035
24276WAT     H273071   2.674   1.196   0.893
24277WAT      O73072   6.397   9.175   8.378
24277WAT     H173073   6.308   9.192   8.420
24277WAT     H273074   6.409   9.237   8.300
24278WAT      O73075   4.721   0.493   1.691
24278WAT     H173076   4.659   0.560   1.733
24278WAT     H273077   4.816   0.519   1.710
24279WAT      O73078   3.738   0.896   8.400
24279WAT     H173079   3.660   0.945   8.362
24279WAT     H273080   3.711   0.849   8.484
24280WAT      O73081   8.291   9.595   2.285
24280WAT     H173082   8.218   9.610   2.352
24280WAT     H273083   8.322   9.683   2.249
24281WAT      O73084   0.619   8.270   6.711
24281WAT     H173085   0.603   8.197   6.777
24281WAT     H273086   0.578   8.246   6.624
24282WAT      O73087   0.081   1.315   7.241
24282WAT     H173088   0.017   1.371   7.189
24282WAT     H273089   0.101   1.358   7.328
24283WAT      O73090   3.752   6.447   0.533
24283WAT     H173091   3.770   6.499   0.450
24283WAT     H273092   3.787   6.354   0.522
24284WAT      O73093   8.271   0.931   3.857
24284WAT     H173094   8.325   0.870   3.801
24284WAT     H273095   8.200   0.974   3.801
24285WAT      O73096   8.869   4.173   2.852
24285WAT     H173097   8.820   4.089   2.827
24285WAT     H273098   8.935   4.152   2.924
24286WAT      O73099   1.616   8.688   2.371
24286WAT     H173100   1.551   8.624   2.412
24286WAT     H273101   1.688   8.637   2.325
24287WAT      O73102   3.597   5.763   6.825
24287WAT     H173103   3.529   5.832   6.802
24287WAT     H273104   3.556   5.694   6.885
24288WAT      O73105   1.524   3.205   8.438
24288WAT     H173106   1.444   3.265   8.445
24288WAT     H273107   1.495   3.115   8.405
24289WAT      O73108   7.520   9.143   8.870
24289WAT     H173109   7.561   9.162   8.959
24289WAT     H273110   7.424   9.118   8.883
24290WAT      O73111   4.623   3.564   0.800
24290WAT     H173112   4.536   3.574   0.849
24290WAT     H273113   4.634   3.642   0.737
24291WAT      O73114   7.924   4.560   4.220
24291WAT     H173115   7.835   4.554   4.263
24291WAT     H273116   7.940   4.479   4.164
24292WAT      O73117   4.041   4.549   2.021
24292WAT     H173118   4.132   4.509   2.028
24292WAT     H273119   4.030   4.619   2.092
24293WAT      O73120   8.734   0.383   1.786
24293WAT     H173121   8.829   0.359   1.805
24293WAT     H273122   8.692   0.418   1.869
24294WAT      O73123   1.369   6.194   4.376
24294WAT     H173124   1.433   6.270   4.382
24294WAT     H273125   1.324   6.180   4.465
24295WAT      O73126   8.229   8.455   1.169
24295WAT     H173127   8.255   8.359   1.178
24295WAT     H273128   8.251   8.488   1.077
24296WAT      O73129   4.481   5.503   0.721
24296WAT     H173130   4.440   5.535   0.806
24296WAT     H273131   4.562   5.557   0.699
24297WAT      O73132   5.626   6.809   6.231
24297WAT     H173133   5.583   6.753   6.302
24297WAT     H273134   5.627   6.905   6.261
24298WAT      O73135   3.317   5.579   7.904
24298WAT     H173136   3.403   5.600   7.857
24298WAT     H273137   3.251   5.545   7.837
24299WAT      O73138   7.153   0.419   3.837
24299WAT     H173139   7.236   0.476   3.840
24299WAT     H273140   7.173   0.329   3.875
24300WAT      O73141   2.448   7.092   1.037
24300WAT     H173142   2.382   7.118   1.106
24300WAT     H273143   2.439   6.995   1.015
24301WAT      O73144   6.053   5.051   4.164
24301WAT     H173145   6.102   5.129   4.201
24301WAT     H273146   6.084   4.967   4.210
24302WAT      O73147   4.353   3.890   7.897
24302WAT     H173148   4.371   3.799   7.860
24302WAT     H273149   4.296   3.942   7.833
24303WAT      O73150   4.861   1.320   1.903
24303WAT     H173151   4.947   1.275   1.883
24303WAT     H273152   4.796   1.253   1.941
24304WAT      O73153   3.204   3.572   8.285
24304WAT     H173154   3.197   3.507   8.209
24304WAT     H273155   3.289   3.625   8.275
24305WAT      O73156   1.662   7.485   5.250
24305WAT     H173157   1.643   7.425   5.172
24305WAT     H273158   1.595   7.559   5.252
24306WAT      O73159   0.590   1.767   7.249
24306WAT     H173160   0.674   1.813   7.278
24306WAT     H273161   0.528   1.834   7.208
24307WAT      O73162   6.143   6.605   6.648
24307WAT     H173163   6.140   6.695   6.604
24307WAT     H273164   6.229   6.560   6.625
24308WAT      O73165   4.181   1.954   4.530
24308WAT     H173166   4.117   2.026   4.501
24308WAT     H273167   4.199   1.893   4.453
24309WAT      O73168   5.644   3.737   4.590
24309WAT     H173169   5.641   3.823   4.640
24309WAT     H273170   5.642   3.661   4.655
24310WAT      O73171   0.516   3.592   2.067
24310WAT     H173172   0.541   3.688   2.066
24310WAT     H273173   0.599   3.536   2.061
24311WAT      O73174   7.070   5.381   0.753
24311WAT     H173175   7.162   5.419   0.765
24311WAT     H273176   7.003   5.456   0.754
24312WAT      O73177   0.725   5.280   3.913
24312WAT     H173178   0.808   5.296   3.860
24312WAT     H273179   0.742   5.300   4.009
24313WAT      O73180   0.796   2.119   2.810
24313WAT     H173181   0.869   2.051   2.809
24313WAT     H273182   0.730   2.099   2.737
24314WAT      O73183   8.607   4.627   4.080
24314WAT     H173184   8.528   4.570   4.099
24314WAT     H273185   8.614   4.698   4.150
24315WAT      O73186   0.364   3.633   7.099
24315WAT     H173187   0.336   3.606   7.007
24315WAT     H273188   0.445   3.691   7.094
24316WAT      O73189   1.036   1.924   0.822
24316WAT     H173190   1.104   1.865   0.866
24316WAT     H273191   1.039   2.015   0.864
24317WAT      O73192   0.232   1.373   3.057
24317WAT     H173193   0.243   1.472   3.043
24317WAT     H273194   0.141   1.354   3.093
24318WAT      O73195   1.224   4.941   5.475
24318WAT     H173196   1.134   4.930   5.517
24318WAT     H273197   1.226   4.893   5.387
24319WAT      O73198   1.063   3.106   2.924
24319WAT     H173199   1.129   3.041   2.886
24319WAT     H273200   1.049   3.181   2.860
24320WAT      O73201   9.721   3.321   4.328
24320WAT     H173202   9.770   3.301   4.412
24320WAT     H273203   9.655   3.248   4.308
24321WAT      O73204   8.496   1.030   2.875
24321WAT     H173205   8.471   0.986   2.961
24321WAT     H273206   8.537   0.962   2.814
24322WAT      O73207   3.039   9.664   4.201
24322WAT     H173208   3.026   9.567   4.182
24322WAT     H273209   2.952   9.712   4.188
24323WAT      O73210   0.269   7.905   1.492
24323WAT     H173211   0.254   7.859   1.580
24323WAT     H273212   0.345   7.969   1.500
24324WAT      O73213   7.407   3.503   1.161
24324WAT     H173214   7.450   3.413   1.151
24324WAT     H273215   7.400   3.525   1.258
24325WAT      O73216   7.812   9.482   2.881
24325WAT     H173217   7.732   9.495   2.823
24325WAT     H273218   7.783   9.483   2.977
24326WAT      O73219   4.312   0.963   7.071
24326WAT     H173220   4.238   0.962   7.139
24326WAT     H273221   4.398   0.934   7.114
24327WAT      O73222   4.636   2.276   1.353
24327WAT     H173223   4.550   2.325   1.347
24327WAT     H273224   4.631   2.192   1.299
24328WAT      O73225   1.869   5.508   0.907
24328WAT     H173226   1.936   5.555   0.850
24328WAT     H273227   1.808   5.453   0.849
24329WAT      O73228   5.825   9.791   4.334
24329WAT     H173229   5.839   9.886   4.309
24329WAT     H273230   5.740   9.758   4.292
24330WAT      O73231   1.810   0.339   0.273
24330WAT     H173232   1.779   0.433   0.283
24330WAT     H273233   1.733   0.276   0.286
24331WAT      O73234   6.342   6.489   0.086
24331WAT     H173235   6.343   6.583   0.119
24331WAT     H273236   6.247   6.457   0.077
24332WAT      O73237   7.519   6.383   9.279
24332WAT     H173238   7.608   6.426   9.269
24332WAT     H273239   7.454   6.425   9.216
24333WAT      O73240   6.346   1.239   1.266
24333WAT     H173241   6.254   1.262   1.235
24333WAT     H273242   6.397   1.197   1.191
24334WAT      O73243   2.311   4.555   7.323
24334WAT     H173244   2.322   4.617   7.401
24334WAT     H273245   2.398   4.546   7.275
24335WAT      O73246   8.148   4.125   1.251
24335WAT     H173247   8.196   4.164   1.172
24335WAT     H273248   8.195   4.043   1.282
24336WAT      O73249   0.069   9.535   7.973
24336WAT     H173250  -0.027   9.562   7.985
24336WAT     H273251   0.101   9.489   8.055
24337WAT      O73252   6.398   9.820   4.829
24337WAT     H173253   6.331   9.748   4.815
24337WAT     H273254   6.392   9.886   4.753
24338WAT      O73255   5.641   7.397   3.701
24338WAT     H173256   5.736   7.397   3.732
24338WAT     H273257   5.580   7.399   3.781
24339WAT      O73258   1.950   3.429   3.713
24339WAT     H173259   2.031   3.488   3.710
24339WAT     H273260   1.885   3.459   3.643
24340WAT      O73261   5.657   3.614   6.104
24340WAT     H173262   5.605   3.652   6.180
24340WAT     H273263   5.659   3.514   6.112
24341WAT      O73264   6.594   6.377   4.043
24341WAT     H173265   6.678   6.331   4.014
24341WAT     H273266   6.581   6.364   4.141
24342WAT      O73267   3.886   6.341   2.598
24342WAT     H173268   3.913   6.336   2.694
24342WAT     H273269   3.818   6.270   2.579
24343WAT      O73270   8.993   3.806   2.680
24343WAT     H173271   8.894   3.822   2.681
24343WAT     H273272   9.041   3.894   2.683
24344WAT      O73273   8.904   2.994   4.052
24344WAT     H173274   8.816   3.033   4.027
24344WAT     H273275   8.977   3.058   4.028
24345WAT      O73276   7.389   5.953   6.660
24345WAT     H173277   7.395   5.965   6.561
24345WAT     H273278   7.366   5.858   6.681
24346WAT      O73279   6.876   5.526   3.900
24346WAT     H173280   6.949   5.458   3.892
24346WAT     H273281   6.826   5.532   3.813
24347WAT      O73282   7.209   5.080   5.271
24347WAT     H173283   7.240   5.016   5.201
24347WAT     H273284   7.223   5.040   5.361
24348WAT      O73285   4.197   8.943   0.684
24348WAT     H173286   4.106   8.918   0.653
24348WAT     H273287   4.203   9.043   0.692
24349WAT      O73288   2.034   5.427   3.111
24349WAT     H173289   2.015   5.357   3.041
24349WAT     H273290   2.056   5.382   3.198
24350WAT      O73291   1.632   1.975   1.085
24350WAT     H173292   1.731   1.977   1.101
24350WAT     H273293   1.585   2.023   1.159
24351WAT      O73294   1.989   6.973   5.703
24351WAT     H173295   1.923   7.038   5.665
24351WAT     H273296   2.016   6.908   5.632
24352WAT      O73297   5.359   8.741   6.008
24352WAT     H173298   5.289   8.697   5.952
24352WAT     H273299   5.316   8.802   6.075
24353WAT      O73300   7.233   0.812   8.041
24353WAT     H173301   7.290   0.795   8.122
24353WAT     H273302   7.171   0.735   8.028
24354WAT      O73303   7.487   1.095   4.395
24354WAT     H173304   7.480   1.172   4.458
24354WAT     H273305   7.533   1.019   4.441
24355WAT      O73306   4.063   0.468   7.981
24355WAT     H173307   4.078   0.546   7.921
24355WAT     H273308   4.031   0.501   8.070
24356WAT      O73309   7.638   6.978   1.413
24356WAT     H173310   7.703   6.908   1.442
24356WAT     H273311   7.586   7.010   1.492
24357WAT      O73312   4.677   8.724   9.193
24357WAT     H173313   4.695   8.812   9.236
24357WAT     H273314   4.683   8.651   9.262
24358WAT      O73315   2.619   4.162   3.201
24358WAT     H173316   2.605   4.139   3.105
24358WAT     H273317   2.625   4.262   3.210
24359WAT      O73318   2.930   7.310   6.773
24359WAT     H173319   3.018   7.341   6.809
24359WAT     H273320   2.917   7.213   6.795
24360WAT      O73321   0.706   6.092   3.075
24360WAT     H173322   0.756   6.027   3.132
24360WAT     H273323   0.667   6.164   3.132
24361WAT      O73324   1.768   3.313   7.550
24361WAT     H173325   1.766   3.381   7.624
24361WAT     H273326   1.753   3.222   7.588
24362WAT      O73327   6.320   2.853   6.804
24362WAT     H173328   6.228   2.842   6.843
24362WAT     H273329   6.381   2.784   6.841
24363WAT      O73330   7.343   5.541   1.496
24363WAT     H173331   7.270   5.475   1.513
24363WAT     H273332   7.338   5.574   1.402
24364WAT      O73333   5.184   0.669   0.137
24364WAT     H173334   5.228   0.757   0.154
24364WAT     H273335   5.230   0.624   0.060
24365WAT      O73336   2.326   6.483   8.114
24365WAT     H173337   2.346   6.406   8.053
24365WAT     H273338   2.227   6.490   8.126
24366WAT      O73339   5.335   4.222   8.546
24366WAT     H173340   5.331   4.131   8.589
24366WAT     H273341   5.245   4.247   8.511
24367WAT      O73342   0.584   4.532   0.498
24367WAT     H173343   0.560   4.449   0.548
24367WAT     H273344   0.511   4.600   0.510
24368WAT      O73345   8.913   7.395   3.909
24368WAT     H173346   8.890   7.492   3.909
24368WAT     H273347   8.909   7.360   3.815
24369WAT      O73348   0.449   6.038   9.539
24369WAT     H173349   0.528   6.085   9.502
24369WAT     H273350   0.444   6.054   9.638
24370WAT      O73351   8.863   2.399   8.922
24370WAT     H173352   8.961   2.388   8.902
24370WAT     H273353   8.812   2.325   8.879
24371WAT      O73354   5.278   6.378   5.479
24371WAT     H173355   5.320   6.341   5.562
24371WAT     H273356   5.235   6.304   5.428
24372WAT      O73357   7.620   6.982   4.688
24372WAT     H173358   7.656   7.060   4.636
24372WAT     H273359   7.529   7.004   4.723
24373WAT      O73360   5.508   9.317   1.428
24373WAT     H173361   5.567   9.396   1.447
24373WAT     H273362   5.521   9.249   1.500
24374WAT      O73363   1.134   4.558   7.652
24374WAT     H173364   1.125   4.466   7.615
24374WAT     H273365   1.125   4.555   7.752
24375WAT      O73366   0.101   4.577   6.981
24375WAT     H173367   0.113   4.576   7.080
24375WAT     H273368   0.019   4.525   6.957
24376WAT      O73369   0.824   5.188   5.327
24376WAT     H173370   0.896   5.251   5.299
24376WAT     H273371   0.843   5.097   5.290
24377WAT      O73372   3.975   5.893   1.518
24377WAT     H173373   4.018   5.936   1.598
24377WAT     H273374   3.882   5.866   1.541
24378WAT      O73375   4.478   7.800   4.793
24378WAT     H173376   4.412   7.868   4.824
24378WAT     H273377   4.508   7.745   4.870
24379WAT      O73378   1.025   7.736   2.002
24379WAT     H173379   0.932   7.761   1.974
24379WAT     H273380   1.078   7.819   2.020
24380WAT      O73381   0.402   6.295   7.796
24380WAT     H173382   0.352   6.224   7.747
24380WAT     H273383   0.346   6.377   7.802
24381WAT      O73384   5.201   8.220   6.809
24381WAT     H173385   5.280   8.209   6.749
24381WAT     H273386   5.121   8.244   6.754
24382WAT      O73387   5.139   3.370   4.958
24382WAT     H173388   5.121   3.308   5.035
24382WAT     H273389   5.060   3.430   4.944
24383WAT      O73390   1.439   4.321   5.061
24383WAT     H173391   1.479   4.403   5.102
24383WAT     H273392   1.506   4.247   5.062
24384WAT      O73393   5.825   4.434   5.779
24384WAT     H173394   5.850   4.520   5.824
24384WAT     H273395   5.827   4.446   5.680
24385WAT      O73396   4.888   0.441   1.011
24385WAT     H173397   4.988   0.439   1.018
24385WAT     H273398   4.858   0.376   0.941
24386WAT      O73399   7.393   2.734   6.184
24386WAT     H173400   7.468   2.706   6.123
24386WAT     H273401   7.407   2.828   6.213
24387WAT      O73402   4.239   2.465   9.602
24387WAT     H173403   4.310   2.395   9.605
24387WAT     H273404   4.210   2.487   9.696
24388WAT      O73405   7.648   5.909   6.306
24388WAT     H173406   7.732   5.926   6.254
24388WAT     H273407   7.670   5.860   6.391
24389WAT      O73408   4.966   4.418   8.956
24389WAT     H173409   5.065   4.432   8.957
24389WAT     H273410   4.943   4.337   9.010
24390WAT      O73411   6.952   1.362   6.423
24390WAT     H173412   6.977   1.327   6.513
24390WAT     H273413   6.866   1.413   6.429
24391WAT      O73414   1.764   2.503   6.913
24391WAT     H173415   1.739   2.457   6.828
24391WAT     H273416   1.696   2.573   6.934
24392WAT      O73417   0.620   1.392   9.054
24392WAT     H173418   0.572   1.304   9.054
24392WAT     H273419   0.615   1.432   9.145
24393WAT      O73420   6.001   0.356   1.970
24393WAT     H173421   6.101   0.362   1.963
24393WAT     H273422   5.963   0.447   1.978
24394WAT      O73423   1.864   0.394   0.779
24394WAT     H173424   1.881   0.464   0.848
24394WAT     H273425   1.829   0.311   0.823
24395WAT      O73426   6.000   4.590   0.488
24395WAT     H173427   5.911   4.572   0.447
24395WAT     H273428   6.002   4.553   0.581
24396WAT      O73429   6.436   2.842   5.056
24396WAT     H173430   6.397   2.896   4.982
24396WAT     H273431   6.366   2.822   5.124
24397WAT      O73432   7.508   5.431   8.090
24397WAT     H173433   7.554   5.384   8.015
24397WAT     H273434   7.413   5.449   8.064
24398WAT      O73435   9.361   1.260   9.128
24398WAT     H173436   9.275   1.210   9.131
24398WAT     H273437   9.412   1.245   9.213
24399WAT      O73438   3.914   4.757   9.296
24399WAT     H173439   3.831   4.749   9.352
24399WAT     H273440   3.900   4.825   9.225
24400WAT      O73441   7.417   3.242   3.216
24400WAT     H173442   7.422   3.170   3.147
24400WAT     H273443   7.467   3.323   3.185
24401WAT      O73444   5.981   6.603   2.622
24401WAT     H173445   5.920   6.529   2.651
24401WAT     H273446   6.024   6.644   2.702
24402WAT      O73447   8.734   6.864   2.677
24402WAT     H173448   8.825   6.827   2.697
24402WAT     H273449   8.740   6.931   2.604
24403WAT      O73450   9.782   9.484   0.814
24403WAT     H173451   9.861   9.538   0.787
24403WAT     H273452   9.763   9.415   0.744
24404WAT      O73453   8.234   5.958   7.713
24404WAT     H173454   8.257   5.900   7.792
24404WAT     H273455   8.170   6.029   7.741
24405WAT      O73456   5.443   9.129   4.330
24405WAT     H173457   5.494   9.043   4.325
24405WAT     H273458   5.507   9.206   4.340
24406WAT      O73459   2.688   0.450   1.884
24406WAT     H173460   2.746   0.374   1.855
24406WAT     H273461   2.594   0.433   1.854
24407WAT      O73462   5.133   8.331   6.485
24407WAT     H173463   5.216   8.323   6.430
24407WAT     H273464   5.053   8.317   6.427
24408WAT      O73465   2.552   5.258   8.457
24408WAT     H173466   2.627   5.317   8.485
24408WAT     H273467   2.569   5.223   8.365
24409WAT      O73468   2.449   6.148   6.037
24409WAT     H173469   2.427   6.064   5.988
24409WAT     H273470   2.524   6.196   5.992
24410WAT      O73471   5.896   6.120   6.181
24410WAT     H173472   5.916   6.108   6.278
24410WAT     H273473   5.861   6.035   6.143
24411WAT      O73474   3.321   4.995   8.475
24411WAT     H173475   3.350   5.053   8.399
24411WAT     H273476   3.257   5.046   8.534
24412WAT      O73477   1.223   9.798   0.199
24412WAT     H173478   1.205   9.723   0.135
24412WAT     H273479   1.137   9.834   0.235
24413WAT      O73480   9.359   7.352   1.174
24413WAT     H173481   9.331   7.420   1.107
24413WAT     H273482   9.458   7.337   1.167
24414WAT      O73483   9.053   9.485   0.499
24414WAT     H173484   9.148   9.478   0.530
24414WAT     H273485   9.019   9.393   0.476
24415WAT      O73486   4.976   1.495   2.498
24415WAT     H173487   4.995   1.515   2.402
24415WAT     H273488   4.880   1.511   2.517
24416WAT      O73489   1.154   1.074   7.571
24416WAT     H173490   1.113   1.077   7.662
24416WAT     H273491   1.100   1.128   7.507
24417WAT      O73492   7.561   5.013   8.142
24417WAT     H173493   7.560   5.008   8.242
24417WAT     H273494   7.544   4.922   8.104
24418WAT      O73495   8.989   8.807   6.589
24418WAT     H173496   8.921   8.743   6.553
24418WAT     H273497   8.945   8.894   6.612
24419WAT      O73498   3.005   8.550   7.610
24419WAT     H173499   3.093   8.548   7.658
24419WAT     H273500   2.932   8.569   7.675
24420WAT      O73501   9.116   7.385   1.584
24420WAT     H173502   9.162   7.421   1.665
24420WAT     H273503   9.114   7.455   1.513
24421WAT      O73504   5.665   6.900   4.588
24421WAT     H173505   5.655   6.915   4.490
24421WAT     H273506   5.682   6.803   4.604
24422WAT      O73507   4.601   1.320   4.928
24422WAT     H173508   4.656   1.243   4.961
24422WAT     H273509   4.529   1.340   4.994
24423WAT      O73510   7.408   1.486   3.009
24423WAT     H173511   7.498   1.462   3.045
24423WAT     H273512   7.351   1.404   3.002
24424WAT      O73513   3.352   9.573   2.946
24424WAT     H173514   3.282   9.504   2.963
24424WAT     H273515   3.367   9.581   2.847
24425WAT      O73516   0.265   2.362   6.899
24425WAT     H173517   0.203   2.438   6.918
24425WAT     H273518   0.333   2.354   6.972
24426WAT      O73519   7.453   3.597   2.443
24426WAT     H173520   7.474   3.511   2.490
24426WAT     H273521   7.477   3.674   2.502
24427WAT      O73522   6.386   8.729   9.254
24427WAT     H173523   6.371   8.732   9.156
24427WAT     H273524   6.444   8.650   9.276
24428WAT      O73525   2.445   0.106   6.048
24428WAT     H173526   2.507   0.133   5.974
24428WAT     H273527   2.428   0.185   6.108
24429WAT      O73528   6.223   8.342   1.027
24429WAT     H173529   6.132   8.325   0.989
24429WAT     H273530   6.228   8.437   1.059
24430WAT      O73531   4.173   0.768   0.268
24430WAT     H173532   4.080   0.733   0.260
24430WAT     H273533   4.237   0.691   0.276
24431WAT      O73534   3.433   0.386   0.121
24431WAT     H173535   3.519   0.345   0.090
24431WAT     H273536   3.435   0.484   0.104
24432WAT      O73537   9.642   5.062   1.758
24432WAT     H173538   9.737   5.075   1.788
24432WAT     H273539   9.642   5.030   1.663
24433WAT      O73540   8.194   6.465   7.611
24433WAT     H173541   8.245   6.521   7.545
24433WAT     H273542   8.230   6.372   7.609
24434WAT      O73543   8.309   8.405   4.142
24434WAT     H173544   8.262   8.457   4.214
24434WAT     H273545   8.297   8.307   4.159
24435WAT      O73546   2.251   0.511   0.100
24435WAT     H173547   2.319   0.448   0.137
24435WAT     H273548   2.187   0.460   0.042
24436WAT      O73549   6.161   1.318   1.774
24436WAT     H173550   6.190   1.349   1.864
24436WAT     H273551   6.087   1.377   1.741
24437WAT      O73552   3.121   5.684   0.964
24437WAT     H173553   3.184   5.690   1.041
24437WAT     H273554   3.114   5.773   0.920
24438WAT      O73555   0.288   1.206   1.147
24438WAT     H173556   0.253   1.235   1.236
24438WAT     H273557   0.252   1.115   1.126
24439WAT      O73558   9.500   0.629   7.552
24439WAT     H173559   9.420   0.689   7.548
24439WAT     H273560   9.562   0.651   7.476
24440WAT      O73561   5.764   5.469   5.628
24440WAT     H173562   5.860   5.472   5.598
24440WAT     H273563   5.706   5.439   5.552
24441WAT      O73564   0.076   4.857   1.243
24441WAT     H173565   0.129   4.864   1.159
24441WAT     H273566   0.107   4.778   1.296
24442WAT      O73567   0.917   7.963   2.888
24442WAT     H173568   0.932   7.998   2.796
24442WAT     H273569   0.972   7.881   2.902
24443WAT      O73570   3.911   3.485   0.248
24443WAT     H173571   3.837   3.480   0.181
24443WAT     H273572   3.994   3.518   0.204
24444WAT      O73573   8.389   9.594   4.182
24444WAT     H173574   8.446   9.661   4.134
24444WAT     H273575   8.365   9.630   4.272
24445WAT      O73576   1.527   7.276   2.337
24445WAT     H173577   1.527   7.219   2.255
24445WAT     H273578   1.468   7.234   2.407
24446WAT      O73579   4.877   9.479   0.376
24446WAT     H173580   4.802   9.446   0.433
24446WAT     H273581   4.961   9.430   0.398
24447WAT      O73582   3.797   5.028   5.217
24447WAT     H173583   3.716   5.086   5.217
24447WAT     H273584   3.878   5.084   5.200
24448WAT      O73585   3.865   4.920   1.991
24448WAT     H173586   3.772   4.887   2.005
24448WAT     H273587   3.897   4.893   1.900
24449WAT      O73588   6.026   9.168   6.492
24449WAT     H173589   6.000   9.100   6.424
24449WAT     H273590   5.972   9.251   6.478
24450WAT      O73591   6.299   9.100   4.836
24450WAT     H173592   6.340   9.021   4.881
24450WAT     H273593   6.258   9.160   4.905
24451WAT      O73594   5.226   8.343   2.798
24451WAT     H173595   5.242   8.426   2.745
24451WAT     H273596   5.226   8.365   2.896
24452WAT      O73597   4.156   5.550   8.732
24452WAT     H173598   4.238   5.537   8.787
24452WAT     H273599   4.123   5.644   8.744
24453WAT      O73600   7.759   6.755   4.652
24453WAT     H173601   7.698   6.832   4.635
24453WAT     H273602   7.850   6.776   4.617
24454WAT      O73603   6.991   7.707   6.593
24454WAT     H173604   7.038   7.750   6.671
24454WAT     H273605   7.054   7.699   6.516
24455WAT      O73606   7.297   5.409   3.297
24455WAT     H173607   7.302   5.495   3.247
24455WAT     H273608   7.334   5.422   3.389
24456WAT      O73609   8.266   8.905   4.244
24456WAT     H173610   8.184   8.882   4.192
24456WAT     H273611   8.338   8.839   4.224
24457WAT      O73612   8.656   5.482   2.569
24457WAT     H173613   8.627   5.415   2.501
24457WAT     H273614   8.698   5.560   2.523
24458WAT      O73615   0.597   1.547   8.187
24458WAT     H173616   0.559   1.584   8.272
24458WAT     H273617   0.678   1.599   8.161
24459WAT      O73618   4.943   2.984   7.485
24459WAT     H173619   4.875   3.053   7.461
24459WAT     H273620   4.905   2.893   7.467
24460WAT      O73621   1.789   0.602   8.100
24460WAT     H173622   1.721   0.676   8.093
24460WAT     H273623   1.854   0.609   8.024
24461WAT      O73624   3.255   4.618   3.812
24461WAT     H173625   3.186   4.684   3.781
24461WAT     H273626   3.337   4.626   3.755
24462WAT      O73627   6.759   4.985   2.611
24462WAT     H173628   6.818   5.065   2.616
24462WAT     H273629   6.815   4.902   2.608
24463WAT      O73630   0.908   0.540   8.101
24463WAT     H173631   0.957   0.546   8.014
24463WAT     H273632   0.900   0.631   8.142
24464WAT      O73633   4.969   8.230   4.584
24464WAT     H173634   5.067   8.248   4.571
24464WAT     H273635   4.957   8.171   4.663
24465WAT      O73636   1.125   1.483   5.200
24465WAT     H173637   1.175   1.566   5.228
24465WAT     H273638   1.048   1.469   5.262
24466WAT      O73639   0.241   8.213   4.615
24466WAT     H173640   0.209   8.200   4.709
24466WAT     H273641   0.290   8.300   4.608
24467WAT      O73642   3.898   5.856   8.234
24467WAT     H173643   3.856   5.766   8.244
24467WAT     H273644   3.833   5.927   8.260
24468WAT      O73645   0.655   6.121   9.739
24468WAT     H173646   0.595   6.197   9.717
24468WAT     H273647   0.750   6.150   9.730
24469WAT      O73648   3.704   7.914   5.705
24469WAT     H173649   3.641   7.958   5.769
24469WAT     H273650   3.723   7.821   5.736
24470WAT      O73651   9.106   8.463   7.769
24470WAT     H173652   9.117   8.411   7.854
24470WAT     H273653   9.012   8.454   7.736
24471WAT      O73654   3.200   8.858   9.101
24471WAT     H173655   3.158   8.806   9.026
24471WAT     H273656   3.206   8.954   9.076
24472WAT      O73657   7.710   0.145   7.933
24472WAT     H173658   7.740   0.160   8.027
24472WAT     H273659   7.717   0.230   7.881
24473WAT      O73660   6.541   0.362   4.171
24473WAT     H173661   6.563   0.416   4.089
24473WAT     H273662   6.614   0.373   4.238
24474WAT      O73663   7.904   3.275   4.770
24474WAT     H173664   7.905   3.304   4.674
24474WAT     H273665   7.991   3.299   4.813
24475WAT      O73666   2.456   4.819   7.017
24475WAT     H173667   2.449   4.866   7.105
24475WAT     H273668   2.510   4.874   6.954
24476WAT      O73669   4.438   7.925   7.981
24476WAT     H173670   4.444   7.868   7.898
24476WAT     H273671   4.415   7.868   8.059
24477WAT      O73672   5.471   8.022   1.667
24477WAT     H173673   5.412   7.949   1.702
24477WAT     H273674   5.454   8.106   1.717
24478WAT      O73675   0.954   0.017   8.710
24478WAT     H173676   0.875   0.074   8.687
24478WAT     H273677   0.952  -0.067   8.656
24479WAT      O73678   4.794   5.950   2.693
24479WAT     H173679   4.790   5.854   2.664
24479WAT     H273680   4.713   5.998   2.660
24480WAT      O73681   1.179   7.051   1.282
24480WAT     H173682   1.142   6.967   1.322
24480WAT     H273683   1.163   7.127   1.345
24481WAT      O73684   2.006   8.083   9.504
24481WAT     H173685   2.028   8.044   9.415
24481WAT     H273686   1.907   8.081   9.518
24482WAT      O73687   5.213   6.275   8.614
24482WAT     H173688   5.151   6.237   8.682
24482WAT     H273689   5.171   6.269   8.523
24483WAT      O73690   4.105   7.585   2.506
24483WAT     H173691   4.141   7.606   2.597
24483WAT     H273692   4.086   7.487   2.500
24484WAT      O73693   0.613   6.796   1.425
24484WAT     H173694   0.521   6.757   1.420
24484WAT     H273695   0.656   6.767   1.511
24485WAT      O73696   5.696   6.346   6.338
24485WAT     H173697   5.683   6.323   6.242
24485WAT     H273698   5.608   6.349   6.385
24486WAT      O73699   6.941   5.530   8.038
24486WAT     H173700   6.861   5.520   8.097
24486WAT     H273701   7.019   5.559   8.092
24487WAT      O73702   7.652   8.109   9.304
24487WAT     H173703   7.747   8.099   9.333
24487WAT     H273704   7.637   8.058   9.220
24488WAT      O73705   8.526   1.733   5.188
24488WAT     H173706   8.480   1.812   5.146
24488WAT     H273707   8.461   1.679   5.240
24489WAT      O73708   0.339   5.141   7.606
24489WAT     H173709   0.296   5.214   7.552
24489WAT     H273710   0.434   5.165   7.625
24490WAT      O73711   4.510   4.216   3.780
24490WAT     H173712   4.475   4.308   3.764
24490WAT     H273713   4.591   4.200   3.724
24491WAT      O73714   4.613   5.654   0.421
24491WAT     H173715   4.652   5.701   0.500
24491WAT     H273716   4.668   5.676   0.340
24492WAT      O73717   4.996   5.376   8.391
24492WAT     H173718   5.045   5.319   8.325
24492WAT     H273719   4.934   5.438   8.342
24493WAT      O73720   0.319   8.724   6.485
24493WAT     H173721   0.375   8.786   6.429
24493WAT     H273722   0.222   8.742   6.469
24494WAT      O73723   8.090   5.754   6.634
24494WAT     H173724   8.071   5.836   6.580
24494WAT     H273725   8.017   5.688   6.620
24495WAT      O73726   1.587   6.034   4.587
24495WAT     H173727   1.589   6.103   4.659
24495WAT     H273728   1.553   6.074   4.502
24496WAT      O73729   5.535   1.986   0.602
24496WAT     H173730   5.555   1.971   0.505
24496WAT     H273731   5.479   1.911   0.636
24497WAT      O73732   6.216   0.877   0.879
24497WAT     H173733   6.136   0.848   0.827
24497WAT     H273734   6.251   0.799   0.931
24498WAT      O73735   3.083   6.951   7.684
24498WAT     H173736   3.032   6.944   7.770
24498WAT     H273737   3.049   6.882   7.621
24499WAT      O73738   3.292   1.232   9.145
24499WAT     H173739   3.222   1.164   9.124
24499WAT     H273740   3.253   1.301   9.207
24500WAT      O73741   5.629   8.614   1.380
24500WAT     H173742   5.554   8.582   1.438
24500WAT     H273743   5.702   8.545   1.379
24501WAT      O73744   0.476   8.772   1.126
24501WAT     H173745   0.452   8.844   1.190
24501WAT     H273746   0.548   8.715   1.165
24502WAT      O73747   6.616   1.734   3.780
24502WAT     H173748   6.550   1.704   3.710
24502WAT     H273749   6.567   1.774   3.857
24503WAT      O73750   9.125   7.415   3.358
24503WAT     H173751   9.056   7.456   3.418
24503WAT     H273752   9.186   7.487   3.325
24504WAT      O73753   8.474   0.952   5.511
24504WAT     H173754   8.505   0.930   5.418
24504WAT     H273755   8.375   0.960   5.512
24505WAT      O73756   6.488   3.744   7.057
24505WAT     H173757   6.546   3.722   7.136
24505WAT     H273758   6.392   3.741   7.084
24506WAT      O73759   9.581   8.369   6.725
24506WAT     H173760   9.616   8.433   6.794
24506WAT     H273761   9.550   8.420   6.645
24507WAT      O73762   7.455   3.435   9.876
24507WAT     H173763   7.513   3.423   9.796
24507WAT     H273764   7.362   3.461   9.847
24508WAT      O73765   7.601   0.568   4.279
24508WAT     H173766   7.639   0.480   4.253
24508WAT     H273767   7.595   0.627   4.198
24509WAT      O73768   1.678   5.637   3.800
24509WAT     H173769   1.626   5.552   3.807
24509WAT     H273770   1.775   5.617   3.814
24510WAT      O73771   6.628   2.278   9.618
24510WAT     H173772   6.642   2.288   9.716
24510WAT     H273773   6.541   2.232   9.602
24511WAT      O73774   3.045   8.111   6.368
24511WAT     H173775   3.113   8.063   6.423
24511WAT     H273776   2.968   8.049   6.349
24512WAT      O73777   6.791   5.090   4.984
24512WAT     H173778   6.737   5.174   4.985
24512WAT     H273779   6.785   5.045   5.073
24513WAT      O73780   8.867   4.935   8.923
24513WAT     H173781   8.878   5.031   8.950
24513WAT     H273782   8.893   4.924   8.827
24514WAT      O73783   5.240   1.803   0.954
24514WAT     H173784   5.218   1.773   1.047
24514WAT     H273785   5.319   1.863   0.956
24515WAT      O73786   7.875   4.909   5.795
24515WAT     H173787   7.971   4.933   5.784
24515WAT     H273788   7.842   4.863   5.713
24516WAT      O73789   6.170   5.850   4.920
24516WAT     H173790   6.071   5.837   4.908
24516WAT     H273791   6.217   5.826   4.836
24517WAT      O73792   6.539   6.216   7.189
24517WAT     H173793   6.608   6.190   7.122
24517WAT     H273794   6.578   6.210   7.281
24518WAT      O73795   6.587   2.353   2.940
24518WAT     H173796   6.607   2.301   3.023
24518WAT     H273797   6.671   2.394   2.905
24519WAT      O73798   8.136   3.437   1.121
24519WAT     H173799   8.079   3.383   1.184
24519WAT     H273800   8.166   3.521   1.166
24520WAT      O73801   8.443   0.480   7.160
24520WAT     H173802   8.531   0.518   7.128
24520WAT     H273803   8.417   0.404   7.101
24521WAT      O73804   6.130   9.301   2.689
24521WAT     H173805   6.035   9.274   2.705
24521WAT     H273806   6.190   9.223   2.707
24522WAT      O73807   4.225   3.450   1.420
24522WAT     H173808   4.153   3.402   1.370
24522WAT     H273809   4.197   3.464   1.514
24523WAT      O73810   3.911   0.068   7.107
24523WAT     H173811   3.880   0.012   7.184
24523WAT     H273812   4.009   0.054   7.093
24524WAT      O73813   3.988   3.385   7.562
24524WAT     H173814   3.996   3.484   7.577
24524WAT     H273815   3.902   3.365   7.515
24525WAT      O73816   9.350   8.268   1.195
24525WAT     H173817   9.415   8.240   1.266
24525WAT     H273818   9.386   8.348   1.147
24526WAT      O73819   0.775   1.486   9.416
24526WAT     H173820   0.698   1.492   9.353
24526WAT     H273821   0.861   1.481   9.364
24527WAT      O73822   3.867   4.991   4.376
24527WAT     H173823   3.790   5.006   4.438
24527WAT     H273824   3.845   4.918   4.312
24528WAT      O73825   6.343   5.649   8.411
24528WAT     H173826   6.322   5.747   8.415
24528WAT     H273827   6.323   5.608   8.500
24529WAT      O73828   4.161   6.257   5.523
24529WAT     H173829   4.198   6.350   5.529
24529WAT     H273830   4.075   6.259   5.472
24530WAT      O73831   3.560   4.812   3.569
24530WAT     H173832   3.529   4.717   3.560
24530WAT     H273833   3.650   4.815   3.611
24531WAT      O73834   9.338   5.358   9.837
24531WAT     H173835   9.302   5.397   9.752
24531WAT     H273836   9.262   5.321   9.891
24532WAT      O73837   7.353   1.426   7.710
24532WAT     H173838   7.314   1.469   7.792
24532WAT     H273839   7.318   1.472   7.628
24533WAT      O73840   6.130   1.065   2.544
24533WAT     H173841   6.064   0.991   2.552
24533WAT     H273842   6.093   1.138   2.486
24534WAT      O73843   6.405   8.875   3.490
24534WAT     H173844   6.401   8.797   3.426
24534WAT     H273845   6.499   8.888   3.520
24535WAT      O73846   2.433   0.290   4.359
24535WAT     H173847   2.389   0.219   4.413
24535WAT     H273848   2.500   0.338   4.416
24536WAT      O73849   2.474   3.601   4.376
24536WAT     H173850   2.557   3.623   4.324
24536WAT     H273851   2.497   3.592   4.473
24537WAT      O73852   2.483   9.730   2.325
24537WAT     H173853   2.414   9.661   2.303
24537WAT     H273854   2.500   9.730   2.423
24538WAT      O73855   5.681   9.665   0.025
24538WAT     H173856   5.655   9.622  -0.061
24538WAT     H273857   5.611   9.731   0.052
24539WAT      O73858   8.774   3.523   0.665
24539WAT     H173859   8.706   3.450   0.661
24539WAT     H273860   8.744   3.594   0.729
24540WAT      O73861   8.739   7.933   8.649
24540WAT     H173862   8.693   7.955   8.735
24540WAT     H273863   8.818   7.875   8.667
24541WAT      O73864   6.715   5.229   6.355
24541WAT     H173865   6.711   5.199   6.260
24541WAT     H273866   6.727   5.150   6.414
24542WAT      O73867   2.716   3.304   6.609
24542WAT     H173868   2.781   3.278   6.537
24542WAT     H273869   2.649   3.368   6.571
24543WAT      O73870   8.028   7.172   9.668
24543WAT     H173871   8.039   7.100   9.599
24543WAT     H273872   7.932   7.174   9.698
24544WAT      O73873   6.795   7.326   4.304
24544WAT     H173874   6.761   7.322   4.398
24544WAT     H273875   6.825   7.235   4.275
24545WAT      O73876   3.393   3.296   8.597
24545WAT     H173877   3.327   3.223   8.613
24545WAT     H273878   3.462   3.266   8.532
24546WAT      O73879   3.710   6.545   3.215
24546WAT     H173880   3.778   6.600   3.264
24546WAT     H273881   3.680   6.595   3.134
24547WAT      O73882   0.678   5.868   7.587
24547WAT     H173883   0.630   5.859   7.499
24547WAT     H273884   0.777   5.871   7.570
24548WAT      O73885   4.302   5.289   1.944
24548WAT     H173886   4.204   5.270   1.939
24548WAT     H273887   4.318   5.364   2.008
24549WAT      O73888   8.624   4.070   8.686
24549WAT     H173889   8.649   4.159   8.725
24549WAT     H273890   8.525   4.065   8.676
24550WAT      O73891   0.593   6.440   6.520
24550WAT     H173892   0.523   6.510   6.536
24550WAT     H273893   0.631   6.452   6.428
24551WAT      O73894   9.075   1.530   1.632
24551WAT     H173895   9.052   1.486   1.719
24551WAT     H273896   9.017   1.493   1.559
24552WAT      O73897   0.327   9.265   0.202
24552WAT     H173898   0.266   9.339   0.230
24552WAT     H273899   0.317   9.188   0.264
24553WAT      O73900   5.647   0.314   1.456
24553WAT     H173901   5.550   0.321   1.435
24553WAT     H273902   5.659   0.286   1.551
24554WAT      O73903   4.449   7.391   1.330
24554WAT     H173904   4.471   7.484   1.299
24554WAT     H273905   4.534   7.343   1.351
24555WAT      O73906   3.627   0.186   4.613
24555WAT     H173907   3.692   0.256   4.640
24555WAT     H273908   3.549   0.187   4.677
24556WAT      O73909   5.711   1.746   5.850
24556WAT     H173910   5.772   1.694   5.790
24556WAT     H273911   5.752   1.754   5.941
24557WAT      O73912   4.142   2.550   9.845
24557WAT     H173913   4.111   2.465   9.889
24557WAT     H273914   4.099   2.628   9.890
24558WAT      O73915   3.309   5.308   9.019
24558WAT     H173916   3.210   5.319   9.012
24558WAT     H273917   3.339   5.332   9.111
24559WAT      O73918   3.693   2.853   8.460
24559WAT     H173919   3.604   2.808   8.465
24559WAT     H273920   3.685   2.947   8.492
24560WAT      O73921   2.748   6.486   5.933
24560WAT     H173922   2.793   6.446   6.012
24560WAT     H273923   2.723   6.581   5.953
24561WAT      O73924   4.917   8.075   9.880
24561WAT     H173925   4.853   8.136   9.834
24561WAT     H273926   4.884   7.980   9.873
24562WAT      O73927   7.038   4.173   3.046
24562WAT     H173928   7.107   4.241   3.070
24562WAT     H273929   6.955   4.219   3.016
24563WAT      O73930   8.838   1.557   3.695
24563WAT     H173931   8.742   1.584   3.707
24563WAT     H273932   8.897   1.635   3.714
24564WAT      O73933   1.451   1.947   0.161
24564WAT     H173934   1.550   1.937   0.151
24564WAT     H273935   1.405   1.912   0.080
24565WAT      O73936   5.255   0.669   0.401
24565WAT     H173937   5.249   0.585   0.454
24565WAT     H273938   5.231   0.651   0.306
24566WAT      O73939   8.273   2.181   2.577
24566WAT     H173940   8.185   2.215   2.543
24566WAT     H273941   8.319   2.129   2.505
24567WAT      O73942   0.722   4.701   7.259
24567WAT     H173943   0.732   4.633   7.186
24567WAT     H273944   0.800   4.695   7.322
24568WAT      O73945   2.768   4.061   1.796
24568WAT     H173946   2.688   4.064   1.736
24568WAT     H273947   2.754   3.993   1.867
24569WAT      O73948   0.588   9.185   2.304
24569WAT     H173949   0.608   9.278   2.336
24569WAT     H273950   0.630   9.171   2.214
24570WAT      O73951   0.672   3.943   6.298
24570WAT     H173952   0.611   3.979   6.369
24570WAT     H273953   0.725   3.867   6.335
24571WAT      O73954   0.599   5.230   7.632
24571WAT     H173955   0.694   5.235   7.602
24571WAT     H273956   0.589   5.280   7.718
24572WAT      O73957   0.901   7.072   3.287
24572WAT     H173958   0.904   6.998   3.220
24572WAT     H273959   0.972   7.057   3.356
24573WAT      O73960   2.028   2.813   3.158
24573WAT     H173961   2.014   2.784   3.253
24573WAT     H273962   1.941   2.809   3.109
24574WAT      O73963   2.326   8.246   5.903
24574WAT     H173964   2.313   8.158   5.858
24574WAT     H273965   2.367   8.311   5.840
24575WAT      O73966   1.375   5.039   3.902
24575WAT     H173967   1.410   5.116   3.955
24575WAT     H273968   1.352   4.963   3.963
24576WAT      O73969   2.860   4.975   6.567
24576WAT     H173970   2.848   5.064   6.610
24576WAT     H273971   2.949   4.936   6.593
24577WAT      O73972   2.255   0.865   8.539
24577WAT     H173973   2.241   0.918   8.624
24577WAT     H273974   2.172   0.812   8.520
24578WAT      O73975   5.641   6.687   6.897
24578WAT     H173976   5.682   6.778   6.898
24578WAT     H273977   5.619   6.660   6.804
24579WAT      O73978   6.731   0.346   2.119
24579WAT     H173979   6.726   0.297   2.206
24579WAT     H273980   6.820   0.330   2.077
24580WAT      O73981   0.828   3.628   9.661
24580WAT     H173982   0.776   3.623   9.746
24580WAT     H273983   0.887   3.547   9.654
24581WAT      O73984   7.601   3.886   6.708
24581WAT     H173985   7.580   3.894   6.806
24581WAT     H273986   7.670   3.954   6.684
24582WAT      O73987   4.094   6.876   2.055
24582WAT     H173988   4.023   6.808   2.043
24582WAT     H273989   4.136   6.897   1.967
24583WAT      O73990   3.280   3.049   4.441
24583WAT     H173991   3.325   2.984   4.503
24583WAT     H273992   3.181   3.036   4.446
24584WAT      O73993   8.289   2.598   1.518
24584WAT     H173994   8.253   2.689   1.541
24584WAT     H273995   8.375   2.584   1.567
24585WAT      O73996   1.871   8.152   6.640
24585WAT     H173997   1.880   8.058   6.606
24585WAT     H273998   1.893   8.154   6.737
24586WAT      O73999   9.186   9.305   5.577
24586WAT     H174000   9.189   9.261   5.667
24586WAT     H274001   9.143   9.242   5.511
24587WAT      O74002   0.845   6.680   2.770
24587WAT     H174003   0.906   6.635   2.835
24587WAT     H274004   0.899   6.725   2.700
24588WAT      O74005   6.272   8.226   4.208
24588WAT     H174006   6.265   8.292   4.284
24588WAT     H274007   6.215   8.147   4.228
24589WAT      O74008   7.500   9.237   0.175
24589WAT     H174009   7.526   9.141   0.185
24589WAT     H274010   7.412   9.253   0.219
24590WAT      O74011   5.349   9.179   0.937
24590WAT     H174012   5.274   9.212   0.994
24590WAT     H274013   5.431   9.167   0.993
24591WAT      O74014   0.353   3.834   3.137
24591WAT     H174015   0.345   3.844   3.038
24591WAT     H274016   0.430   3.890   3.170
24592WAT      O74017   3.914   0.549   6.471
24592WAT     H174018   3.865   0.463   6.465
24592WAT     H274019   3.891   0.596   6.556
24593WAT      O74020   5.275   0.656   4.787
24593WAT     H174021   5.234   0.708   4.863
24593WAT     H274022   5.320   0.574   4.824
24594WAT      O74023   2.517   1.602   4.063
24594WAT     H174024   2.537   1.626   3.968
24594WAT     H274025   2.423   1.568   4.069
24595WAT      O74026   6.705   8.420   1.684
24595WAT     H174027   6.766   8.376   1.751
24595WAT     H274028   6.761   8.469   1.617
24596WAT      O74029   1.531   7.702   1.796
24596WAT     H174030   1.479   7.742   1.721
24596WAT     H274031   1.566   7.613   1.768
24597WAT      O74032   3.976   9.317   7.817
24597WAT     H174033   4.059   9.275   7.853
24597WAT     H274034   3.996   9.359   7.729
24598WAT      O74035   2.745   9.608   8.084
24598WAT     H174036   2.692   9.611   8.169
24598WAT     H274037   2.831   9.657   8.097
24599WAT      O74038   1.804   6.153   0.460
24599WAT     H174039   1.805   6.132   0.558
24599WAT     H274040   1.720   6.119   0.419
24600WAT      O74041   4.900   8.526   0.984
24600WAT     H174042   4.925   8.433   1.008
24600WAT     H274043   4.834   8.525   0.909
24601WAT      O74044   2.991   6.435   1.732
24601WAT     H174045   2.922   6.446   1.661
24601WAT     H274046   3.021   6.340   1.736
24602WAT      O74047   2.310   3.699   3.003
24602WAT     H174048   2.403   3.688   3.038
24602WAT     H274049   2.313   3.740   2.912
24603WAT      O74050   6.133   6.939   4.468
24603WAT     H174051   6.122   6.983   4.557
24603WAT     H274052   6.179   7.001   4.405
24604WAT      O74053   7.877   3.681   2.436
24604WAT     H174054   7.820   3.612   2.480
24604WAT     H274055   7.822   3.734   2.372
24605WAT      O74056   9.052   2.532   9.388
24605WAT     H174057   9.053   2.570   9.295
24605WAT     H274058   9.115   2.583   9.446
24606WAT      O74059   4.180   5.023   3.143
24606WAT     H174060   4.102   5.084   3.159
24606WAT     H274061   4.192   5.008   3.045
24607WAT      O74062   3.737   6.937   3.591
24607WAT     H174063   3.700   7.016   3.641
24607WAT     H274064   3.829   6.917   3.623
24608WAT      O74065   1.132   8.883   2.750
24608WAT     H174066   1.076   8.965   2.760
24608WAT     H274067   1.108   8.836   2.665
24609WAT      O74068   3.213   1.264   8.625
24609WAT     H174069   3.188   1.354   8.590
24609WAT     H274070   3.130   1.212   8.643
24610WAT      O74071   3.418   5.875   3.293
24610WAT     H174072   3.419   5.783   3.332
24610WAT     H274073   3.451   5.872   3.199
24611WAT      O74074   2.592   5.348   0.131
24611WAT     H174075   2.492   5.341   0.121
24611WAT     H274076   2.619   5.444   0.120
24612WAT      O74077   3.946   4.730   8.763
24612WAT     H174078   3.924   4.642   8.805
24612WAT     H274079   4.042   4.733   8.738
24613WAT      O74080   2.095   8.599   5.707
24613WAT     H174081   2.049   8.519   5.671
24613WAT     H274082   2.043   8.636   5.784
24614WAT      O74083   9.846   0.003   2.686
24614WAT     H174084   9.795   0.089   2.693
24614WAT     H274085   9.940   0.023   2.657
24615WAT      O74086   8.206   6.182   5.464
24615WAT     H174087   8.134   6.174   5.534
24615WAT     H274088   8.252   6.270   5.473
24616WAT      O74089   4.186   5.539   4.776
24616WAT     H174090   4.141   5.628   4.764
24616WAT     H274091   4.272   5.553   4.826
24617WAT      O74092   7.774   0.179   0.028
24617WAT     H174093   7.753   0.265   0.073
24617WAT     H274094   7.776   0.105   0.097
24618WAT      O74095   7.789   6.583   2.135
24618WAT     H174096   7.706   6.538   2.102
24618WAT     H274097   7.796   6.673   2.092
24619WAT      O74098   7.510   5.195   8.353
24619WAT     H174099   7.445   5.267   8.376
24619WAT     H274100   7.508   5.179   8.254
24620WAT      O74101   2.491   0.127   8.971
24620WAT     H174102   2.455   0.218   8.952
24620WAT     H274103   2.529   0.125   9.064
24621WAT      O74104   4.194   4.576   7.928
24621WAT     H174105   4.263   4.637   7.966
24621WAT     H274106   4.107   4.626   7.919
24622WAT      O74107   8.847   9.659   7.958
24622WAT     H174108   8.838   9.655   7.858
24622WAT     H274109   8.936   9.623   7.985
24623WAT      O74110   5.344   0.907   1.168
24623WAT     H174111   5.386   0.825   1.206
24623WAT     H274112   5.370   0.986   1.225
24624WAT      O74113   5.344   9.630   9.671
24624WAT     H174114   5.358   9.729   9.670
24624WAT     H274115   5.328   9.600   9.764
24625WAT      O74116   6.502   6.960   4.256
24625WAT     H174117   6.542   6.958   4.164
24625WAT     H274118   6.514   7.051   4.295
24626WAT      O74119   4.956   1.816   2.140
24626WAT     H174120   4.884   1.867   2.188
24626WAT     H274121   4.954   1.840   2.043
24627WAT      O74122   8.220   2.738   5.670
24627WAT     H174123   8.259   2.652   5.637
24627WAT     H274124   8.154   2.772   5.603
24628WAT      O74125   4.684   9.149   8.402
24628WAT     H174126   4.677   9.248   8.385
24628WAT     H274127   4.672   9.100   8.316
24629WAT      O74128   6.295   8.490   6.877
24629WAT     H174129   6.261   8.413   6.931
24629WAT     H274130   6.231   8.566   6.884
24630WAT      O74131   4.797   8.606   5.781
24630WAT     H174132   4.897   8.612   5.789
24630WAT     H274133   4.755   8.666   5.849
24631WAT      O74134   0.094   5.449   5.475
24631WAT     H174135   0.080   5.498   5.561
24631WAT     H274136   0.182   5.402   5.478
24632WAT      O74137   5.867   2.844   4.130
24632WAT     H174138   5.830   2.926   4.085
24632WAT     H274139   5.922   2.871   4.209
24633WAT      O74140   8.670   8.228   5.064
24633WAT     H174141   8.749   8.245   5.122
24633WAT     H274142   8.589   8.272   5.103
24634WAT      O74143   0.311   6.502   2.249
24634WAT     H174144   0.309   6.430   2.318
24634WAT     H274145   0.217   6.527   2.224
24635WAT      O74146   4.562   2.556   4.642
24635WAT     H174147   4.507   2.482   4.604
24635WAT     H274148   4.658   2.528   4.646
24636WAT      O74149   2.197   9.057   8.580
24636WAT     H174150   2.270   9.078   8.515
24636WAT     H274151   2.115   9.030   8.530
24637WAT      O74152   0.459   5.752   5.606
24637WAT     H174153   0.425   5.748   5.512
24637WAT     H274154   0.404   5.816   5.659
24638WAT      O74155   4.167   0.586   0.560
24638WAT     H174156   4.141   0.506   0.506
24638WAT     H274157   4.259   0.615   0.534
24639WAT      O74158   3.948   9.356   5.285
24639WAT     H174159   3.980   9.288   5.219
24639WAT     H274160   3.848   9.350   5.293
24640WAT      O74161   3.894   7.374   6.432
24640WAT     H174162   3.972   7.397   6.489
24640WAT     H274163   3.917   7.388   6.336
24641WAT      O74164   8.722   9.810   2.144
24641WAT     H174165   8.808   9.791   2.096
24641WAT     H274166   8.714   9.750   2.223
24642WAT      O74167   0.225   5.132   5.489
24642WAT     H174168   0.274   5.218   5.498
24642WAT     H274169   0.290   5.058   5.473
24643WAT      O74170   7.594   7.233   3.889
24643WAT     H174171   7.631   7.303   3.950
24643WAT     H274172   7.619   7.143   3.922
24644WAT      O74173   1.159   3.047   3.630
24644WAT     H174174   1.252   3.013   3.648
24644WAT     H274175   1.123   3.003   3.548
24645WAT      O74176   6.332   2.256   9.609
24645WAT     H174177   6.344   2.189   9.536
24645WAT     H274178   6.330   2.210   9.698
24646WAT      O74179   6.976   7.533   1.485
24646WAT     H174180   7.068   7.532   1.524
24646WAT     H274181   6.954   7.625   1.453
24647WAT      O74182   4.434   1.700   1.141
24647WAT     H174183   4.464   1.714   1.235
24647WAT     H274184   4.478   1.766   1.081
24648WAT      O74185   1.542   3.413   2.411
24648WAT     H174186   1.469   3.413   2.343
24648WAT     H274187   1.514   3.469   2.490
24649WAT      O74188   8.554   6.400   3.081
24649WAT     H174189   8.498   6.385   3.162
24649WAT     H274190   8.639   6.348   3.088
24650WAT      O74191   8.133   3.933   5.980
24650WAT     H174192   8.130   4.022   6.026
24650WAT     H274193   8.225   3.918   5.943
24651WAT      O74194   2.380   4.385   9.467
24651WAT     H174195   2.365   4.482   9.487
24651WAT     H274196   2.444   4.377   9.390
24652WAT      O74197   2.754   0.525   9.016
24652WAT     H174198   2.814   0.468   9.071
24652WAT     H274199   2.660   0.491   9.024
24653WAT      O74200   4.653   7.074   9.099
24653WAT     H174201   4.631   6.980   9.124
24653WAT     H274202   4.657   7.131   9.181
24654WAT      O74203   2.125   7.852   0.534
24654WAT     H174204   2.035   7.818   0.506
24654WAT     H274205   2.193   7.779   0.521
24655WAT      O74206   4.602   2.045   3.357
24655WAT     H174207   4.685   2.024   3.409
24655WAT     H274208   4.586   1.974   3.289
24656WAT      O74209   7.167   3.280   2.946
24656WAT     H174210   7.149   3.335   2.865
24656WAT     H274211   7.084   3.231   2.972
24657WAT      O74212   4.726   4.293   2.763
24657WAT     H174213   4.814   4.315   2.721
24657WAT     H274214   4.652   4.315   2.700
24658WAT      O74215   2.409   1.418   0.890
24658WAT     H174216   2.478   1.483   0.858
24658WAT     H274217   2.333   1.416   0.825
24659WAT      O74218   4.745   4.381   6.124
24659WAT     H174219   4.762   4.426   6.036
24659WAT     H274220   4.780   4.438   6.198
24660WAT      O74221   3.852   8.733   5.029
24660WAT     H174222   3.863   8.830   5.050
24660WAT     H274223   3.936   8.699   4.984
24661WAT      O74224   0.705   1.763   1.161
24661WAT     H174225   0.722   1.671   1.196
24661WAT     H274226   0.792   1.803   1.130
24662WAT      O74227   8.170   6.775   4.914
24662WAT     H174228   8.257   6.730   4.893
24662WAT     H274229   8.139   6.746   5.005
24663WAT      O74230   3.636   0.044   5.333
24663WAT     H174231   3.688   0.108   5.277
24663WAT     H274232   3.680   0.034   5.423
24664WAT      O74233   0.703   6.199   1.714
24664WAT     H174234   0.647   6.221   1.795
24664WAT     H274235   0.798   6.184   1.742
24665WAT      O74236   8.036   5.739   1.090
24665WAT     H174237   8.040   5.838   1.078
24665WAT     H274238   7.984   5.698   1.015
24666WAT      O74239   4.300   5.844   9.569
24666WAT     H174240   4.292   5.905   9.490
24666WAT     H274241   4.265   5.891   9.650
24667WAT      O74242   7.438   4.734   1.671
24667WAT     H174243   7.361   4.796   1.656
24667WAT     H274244   7.506   4.747   1.598
24668WAT      O74245   2.650   6.698   5.581
24668WAT     H174246   2.562   6.653   5.597
24668WAT     H274247   2.681   6.679   5.488
24669WAT      O74248   7.124   5.684   7.563
24669WAT     H174249   7.070   5.661   7.643
24669WAT     H274250   7.069   5.668   7.480
24670WAT      O74251   6.024   1.671   8.416
24670WAT     H174252   6.086   1.749   8.409
24670WAT     H274253   5.941   1.689   8.363
24671WAT      O74254   1.262   8.609   8.793
24671WAT     H174255   1.203   8.673   8.744
24671WAT     H274256   1.267   8.522   8.743
24672WAT      O74257   5.653   1.136   7.317
24672WAT     H174258   5.692   1.174   7.234
24672WAT     H274259   5.564   1.179   7.336
24673WAT      O74260   3.951   6.934   3.795
24673WAT     H174261   4.046   6.909   3.780
24673WAT     H274262   3.908   6.867   3.856
24674WAT      O74263   1.790   1.229   1.657
24674WAT     H174264   1.838   1.230   1.569
24674WAT     H274265   1.725   1.154   1.659
24675WAT      O74266   8.391   7.162   5.227
24675WAT     H174267   8.396   7.168   5.326
24675WAT     H274268   8.443   7.237   5.186
24676WAT      O74269   8.949   4.910   3.265
24676WAT     H174270   8.980   4.973   3.336
24676WAT     H274271   8.857   4.935   3.236
24677WAT      O74272   3.906   7.662   2.103
24677WAT     H174273   3.911   7.566   2.132
24677WAT     H274274   3.934   7.670   2.007
24678WAT      O74275   7.086   0.831   3.239
24678WAT     H174276   6.999   0.844   3.286
24678WAT     H274277   7.072   0.781   3.154
24679WAT      O74278   8.251   7.258   6.310
24679WAT     H174279   8.243   7.160   6.293
24679WAT     H274280   8.332   7.275   6.366
24680WAT      O74281   3.777   2.399   9.767
24680WAT     H174282   3.738   2.342   9.839
24680WAT     H274283   3.704   2.453   9.725
24681WAT      O74284   6.109   4.128   9.166
24681WAT     H174285   6.186   4.072   9.195
24681WAT     H274286   6.113   4.140   9.066
24682WAT      O74287   8.125   4.260   5.030
24682WAT     H174288   8.220   4.283   5.053
24682WAT     H274289   8.064   4.304   5.095
24683WAT      O74290   0.947   2.021   2.120
24683WAT     H174291   0.948   2.117   2.091
24683WAT     H274292   1.010   2.009   2.197
24684WAT      O74293   7.684   5.980   2.833
24684WAT     H174294   7.722   5.934   2.752
24684WAT     H274295   7.726   6.070   2.842
24685WAT      O74296   8.786   8.942   6.815
24685WAT     H174297   8.857   9.005   6.785
24685WAT     H274298   8.827   8.871   6.872
24686WAT      O74299   9.139   8.233   2.925
24686WAT     H174300   9.091   8.242   2.837
24686WAT     H274301   9.235   8.259   2.913
24687WAT      O74302   5.391   1.355   3.171
24687WAT     H174303   5.462   1.286   3.175
24687WAT     H274304   5.315   1.321   3.115
24688WAT      O74305   1.698   8.464   8.974
24688WAT     H174306   1.744   8.380   8.944
24688WAT     H274307   1.693   8.529   8.898
24689WAT      O74308   9.303   1.667   1.632
24689WAT     H174309   9.212   1.631   1.611
24689WAT     H274310   9.373   1.603   1.601
24690WAT      O74311   5.001   6.376   3.294
24690WAT     H174312   5.030   6.337   3.381
24690WAT     H274313   5.034   6.319   3.219
24691WAT      O74314   5.397   0.942   6.226
24691WAT     H174315   5.316   0.906   6.273
24691WAT     H274316   5.403   0.902   6.135
24692WAT      O74317   1.313   9.211   5.232
24692WAT     H174318   1.408   9.227   5.259
24692WAT     H274319   1.253   9.271   5.284
24693WAT      O74320   8.477   5.704   8.744
24693WAT     H174321   8.462   5.713   8.842
24693WAT     H274322   8.462   5.792   8.700
24694WAT      O74323   5.380   9.830   5.834
24694WAT     H174324   5.392   9.751   5.774
24694WAT     H274325   5.450   9.829   5.906
24695WAT      O74326   7.613   6.079   1.311
24695WAT     H174327   7.591   6.166   1.266
24695WAT     H274328   7.674   6.026   1.253
24696WAT      O74329   3.828   7.144   0.160
24696WAT     H174330   3.782   7.230   0.139
24696WAT     H274331   3.816   7.081   0.083
24697WAT      O74332   5.604   7.179   6.946
24697WAT     H174333   5.524   7.198   6.888
24697WAT     H274334   5.644   7.265   6.977
24698WAT      O74335   5.229   3.974   5.206
24698WAT     H174336   5.191   3.902   5.148
24698WAT     H274337   5.192   4.062   5.179
24699WAT      O74338   2.658   8.519   0.231
24699WAT     H174339   2.564   8.509   0.264
24699WAT     H274340   2.699   8.428   0.221
24700WAT      O74341   5.546   4.835   8.419
24700WAT     H174342   5.645   4.827   8.425
24700WAT     H274343   5.520   4.931   8.417
24701WAT      O74344   6.701   4.141   6.813
24701WAT     H174345   6.700   4.151   6.713
24701WAT     H274346   6.787   4.099   6.841
24702WAT      O74347   3.081   5.626   0.033
24702WAT     H174348   3.092   5.667  -0.058
24702WAT     H274349   2.985   5.630   0.060
24703WAT      O74350   1.391   5.991   9.835
24703WAT     H174351   1.369   5.905   9.880
24703WAT     H274352   1.484   5.986   9.798
24704WAT      O74353   6.739   8.090   9.143
24704WAT     H174354   6.722   8.000   9.104
24704WAT     H274355   6.836   8.100   9.165
24705WAT      O74356   5.670   0.494   6.356
24705WAT     H174357   5.699   0.583   6.392
24705WAT     H274358   5.574   0.478   6.379
24706WAT      O74359   4.818   1.145   5.845
24706WAT     H174360   4.786   1.190   5.762
24706WAT     H274361   4.769   1.058   5.856
24707WAT      O74362   1.104   6.495   6.447
24707WAT     H174363   1.119   6.582   6.495
24707WAT     H274364   1.098   6.421   6.513
24708WAT      O74365   9.355   3.263   8.239
24708WAT     H174366   9.324   3.190   8.179
24708WAT     H274367   9.396   3.223   8.321
24709WAT      O74368   5.501   0.057   0.118
24709WAT     H174369   5.560   0.133   0.090
24709WAT     H274370   5.490   0.058   0.217
24710WAT      O74371   6.685   1.668   2.828
24710WAT     H174372   6.778   1.679   2.862
24710WAT     H274373   6.635   1.604   2.886
24711WAT      O74374   5.549   9.266   6.105
24711WAT     H174375   5.553   9.285   6.007
24711WAT     H274376   5.477   9.200   6.123
24712WAT      O74377   4.303   2.368   1.692
24712WAT     H174378   4.255   2.448   1.728
24712WAT     H274379   4.244   2.288   1.698
24713WAT      O74380   4.745   6.806   5.943
24713WAT     H174381   4.770   6.894   5.983
24713WAT     H274382   4.825   6.746   5.942
24714WAT      O74383   6.694   4.421   1.294
24714WAT     H174384   6.771   4.392   1.237
24714WAT     H274385   6.610   4.377   1.262
24715WAT      O74386   9.412   2.936   1.789
24715WAT     H174387   9.312   2.927   1.783
24715WAT     H274388   9.439   2.952   1.884
24716WAT      O74389   4.110   0.036   6.794
24716WAT     H174390   4.033   0.098   6.779
24716WAT     H274391   4.159   0.063   6.877
24717WAT      O74392   2.065   9.316   3.528
24717WAT     H174393   2.123   9.238   3.507
24717WAT     H274394   2.079   9.343   3.624
24718WAT      O74395   2.886   9.612   4.799
24718WAT     H174396   2.951   9.593   4.873
24718WAT     H274397   2.930   9.596   4.711
24719WAT      O74398   2.062   8.975   2.575
24719WAT     H174399   2.019   8.959   2.664
24719WAT     H274400   1.992   8.991   2.506
24720WAT      O74401   2.052   7.108   6.868
24720WAT     H174402   2.123   7.081   6.933
24720WAT     H274403   1.965   7.067   6.895
24721WAT      O74404   3.762   2.291   1.172
24721WAT     H174405   3.721   2.379   1.147
24721WAT     H274406   3.693   2.219   1.165
24722WAT      O74407   4.296   2.735   2.561
24722WAT     H174408   4.303   2.643   2.522
24722WAT     H274409   4.334   2.801   2.497
24723WAT      O74410   0.567   3.510   7.849
24723WAT     H174411   0.550   3.440   7.918
24723WAT     H274412   0.509   3.590   7.869
24724WAT      O74413   5.739   0.658   5.976
24724WAT     H174414   5.676   0.587   6.006
24724WAT     H274415   5.775   0.635   5.886
24725WAT      O74416   2.810   7.978   7.158
24725WAT     H174417   2.796   8.028   7.073
24725WAT     H274418   2.741   8.006   7.224
24726WAT      O74419   5.524   5.995   4.662
24726WAT     H174420   5.472   5.938   4.598
24726WAT     H274421   5.481   6.084   4.670
24727WAT      O74422   3.291   0.374   9.744
24727WAT     H174423   3.347   0.299   9.778
24727WAT     H274424   3.256   0.428   9.821
24728WAT      O74425   4.747   6.965   2.784
24728WAT     H174426   4.715   7.006   2.698
24728WAT     H274427   4.846   6.960   2.783
24729WAT      O74428   4.889   9.525   0.716
24729WAT     H174429   4.948   9.461   0.668
24729WAT     H274430   4.925   9.618   0.706
24730WAT      O74431   8.708   4.561   3.558
24730WAT     H174432   8.764   4.638   3.527
24730WAT     H274433   8.613   4.591   3.568
24731WAT      O74434   1.774   9.351   1.404
24731WAT     H174435   1.805   9.357   1.309
24731WAT     H274436   1.849   9.315   1.461
24732WAT      O74437   2.441   2.982   4.930
24732WAT     H174438   2.457   3.032   5.015
24732WAT     H274439   2.357   3.017   4.887
24733WAT      O74440   6.564   0.086   8.286
24733WAT     H174441   6.524   0.020   8.223
24733WAT     H274442   6.531   0.068   8.379
24734WAT      O74443   5.520   1.189   7.884
24734WAT     H174444   5.555   1.204   7.977
24734WAT     H274445   5.580   1.235   7.818
24735WAT      O74446   4.866   1.533   1.103
24735WAT     H174447   4.863   1.495   1.011
24735WAT     H274448   4.869   1.633   1.098
24736WAT      O74449   5.260   3.244   3.330
24736WAT     H174450   5.256   3.185   3.250
24736WAT     H274451   5.169   3.280   3.351
24737WAT      O74452   4.759   5.652   3.463
24737WAT     H174453   4.733   5.700   3.379
24737WAT     H274454   4.731   5.706   3.542
24738WAT      O74455   2.833   6.498   5.676
24738WAT     H174456   2.830   6.481   5.774
24738WAT     H274457   2.768   6.570   5.652
24739WAT      O74458   2.149   7.594   2.994
24739WAT     H174459   2.122   7.530   2.922
24739WAT     H274460   2.111   7.565   3.081
24740WAT      O74461   8.914   9.688   6.102
24740WAT     H174462   8.987   9.624   6.080
24740WAT     H274463   8.951   9.781   6.109
24741WAT      O74464   2.010   0.940   1.327
24741WAT     H174465   2.080   0.942   1.399
24741WAT     H274466   1.944   0.867   1.346
24742WAT      O74467   8.448   3.796   3.365
24742WAT     H174468   8.498   3.714   3.336
24742WAT     H274469   8.424   3.788   3.462
24743WAT      O74470   0.774   9.489   3.174
24743WAT     H174471   0.746   9.394   3.161
24743WAT     H274472   0.768   9.513   3.271
24744WAT      O74473   4.450   5.010   0.547
24744WAT     H174474   4.435   5.106   0.526
24744WAT     H274475   4.548   4.989   0.538
24745WAT      O74476   6.577   2.945   4.142
24745WAT     H174477   6.616   3.004   4.071
24745WAT     H274478   6.505   2.889   4.101
24746WAT      O74479   2.644   7.321   8.948
24746WAT     H174480   2.646   7.300   8.850
24746WAT     H274481   2.688   7.247   8.999
24747WAT      O74482   9.663   6.948   7.393
24747WAT     H174483   9.614   7.033   7.378
24747WAT     H274484   9.614   6.892   7.461
24748WAT      O74485   0.089   4.334   6.685
24748WAT     H174486   0.040   4.341   6.598
24748WAT     H274487   0.049   4.398   6.750
24749WAT      O74488   3.662   9.072   4.325
24749WAT     H174489   3.747   9.028   4.295
24749WAT     H274490   3.672   9.171   4.320
24750WAT      O74491   6.563   0.557   3.080
24750WAT     H174492   6.558   0.475   3.023
24750WAT     H274493   6.508   0.630   3.038
24751WAT      O74494   9.638   1.775   6.533
24751WAT     H174495   9.552   1.826   6.534
24751WAT     H274496   9.701   1.814   6.600
24752WAT      O74497   1.250   3.146   7.008
24752WAT     H174498   1.160   3.170   6.972
24752WAT     H274499   1.243   3.061   7.062
24753WAT      O74500   7.695   2.785   9.186
24753WAT     H174501   7.657   2.860   9.132
24753WAT     H274502   7.738   2.820   9.268
24754WAT      O74503   2.498   5.692   9.107
24754WAT     H174504   2.454   5.690   9.017
24754WAT     H274505   2.593   5.723   9.096
24755WAT      O74506   9.089   8.294   4.593
24755WAT     H174507   9.062   8.330   4.504
24755WAT     H274508   9.078   8.365   4.663
24756WAT      O74509   8.459   8.155   0.782
24756WAT     H174510   8.360   8.167   0.793
24756WAT     H274511   8.480   8.139   0.686
24757WAT      O74512   3.069   1.230   2.870
24757WAT     H174513   3.021   1.210   2.955
24757WAT     H274514   3.059   1.327   2.848
24758WAT      O74515   3.833   7.449   9.470
24758WAT     H174516   3.913   7.391   9.483
24758WAT     H274517   3.752   7.403   9.505
24759WAT      O74518   7.237   7.836   8.304
24759WAT     H174519   7.326   7.827   8.348
24759WAT     H274520   7.200   7.927   8.322
24760WAT      O74521   6.079   5.725   7.447
24760WAT     H174522   6.158   5.784   7.459
24760WAT     H274523   5.997   5.772   7.480
24761WAT      O74524   6.247   9.516   2.063
24761WAT     H174525   6.207   9.567   1.986
24761WAT     H274526   6.216   9.557   2.149
24762WAT      O74527   4.701   1.122   3.427
24762WAT     H174528   4.648   1.184   3.486
24762WAT     H274529   4.642   1.046   3.399
24763WAT      O74530   6.999   8.966   7.530
24763WAT     H174531   7.050   9.051   7.518
24763WAT     H274532   6.932   8.977   7.604
24764WAT      O74533   8.197   2.620   6.775
24764WAT     H174534   8.120   2.666   6.819
24764WAT     H274535   8.243   2.683   6.713
24765WAT      O74536   7.045   2.184   9.706
24765WAT     H174537   7.130   2.139   9.734
24765WAT     H274538   7.067   2.264   9.649
24766WAT      O74539   4.104   7.303   2.962
24766WAT     H174540   4.151   7.215   2.959
24766WAT     H274541   4.136   7.355   3.042
24767WAT      O74542   8.914   4.301   0.726
24767WAT     H174543   8.929   4.257   0.637
24767WAT     H274544   8.965   4.387   0.730
24768WAT      O74545   3.866   5.984   3.818
24768WAT     H174546   3.927   5.906   3.807
24768WAT     H274547   3.777   5.964   3.777
24769WAT      O74548   6.458   0.197   7.225
24769WAT     H174549   6.434   0.223   7.318
24769WAT     H274550   6.391   0.131   7.191
24770WAT      O74551   0.584   3.679   3.393
24770WAT     H174552   0.587   3.661   3.491
24770WAT     H274553   0.497   3.647   3.356
24771WAT      O74554   2.363   8.970   5.557
24771WAT     H174555   2.383   9.006   5.466
24771WAT     H274556   2.312   8.884   5.548
24772WAT      O74557   2.075   7.762   0.180
24772WAT     H174558   2.109   7.702   0.252
24772WAT     H274559   1.978   7.781   0.196
24773WAT      O74560   4.999   8.161   9.012
24773WAT     H174561   5.063   8.153   9.088
24773WAT     H274562   4.997   8.256   8.980
24774WAT      O74563   3.668   7.812   9.312
24774WAT     H174564   3.601   7.796   9.384
24774WAT     H274565   3.624   7.862   9.237
24775WAT      O74566   9.333   7.878   7.745
24775WAT     H174567   9.327   7.799   7.807
24775WAT     H274568   9.370   7.849   7.657
24776WAT      O74569   2.408   2.679   3.181
24776WAT     H174570   2.345   2.733   3.125
24776WAT     H274571   2.369   2.666   3.272
24777WAT      O74572   9.752   6.205   1.490
24777WAT     H174573   9.677   6.152   1.452
24777WAT     H274574   9.839   6.162   1.466
24778WAT      O74575   0.627   9.838   4.629
24778WAT     H174576   0.599   9.933   4.615
24778WAT     H274577   0.719   9.824   4.593
24779WAT      O74578   5.246   1.134   6.318
24779WAT     H174579   5.321   1.082   6.276
24779WAT     H274580   5.238   1.109   6.414
24780WAT      O74581   3.708   1.934   6.593
24780WAT     H174582   3.758   1.955   6.677
24780WAT     H274583   3.768   1.887   6.529
24781WAT      O74584   7.455   0.740   5.723
24781WAT     H174585   7.371   0.741   5.669
24781WAT     H274586   7.534   0.753   5.662
24782WAT      O74587   8.824   0.052   7.297
24782WAT     H174588   8.865   0.078   7.210
24782WAT     H274589   8.804   0.134   7.351
24783WAT      O74590   7.423   3.288   2.860
24783WAT     H174591   7.327   3.267   2.880
24783WAT     H274592   7.481   3.216   2.898
24784WAT      O74593   9.330   1.527   6.429
24784WAT     H174594   9.386   1.537   6.511
24784WAT     H274595   9.236   1.506   6.456
24785WAT      O74596   8.777   1.192   0.706
24785WAT     H174597   8.692   1.235   0.735
24785WAT     H274598   8.765   1.092   0.703
24786WAT      O74599   3.466   3.569   5.016
24786WAT     H174600   3.532   3.606   4.950
24786WAT     H274601   3.497   3.589   5.109
24787WAT      O74602   3.225   6.516   6.814
24787WAT     H174603   3.206   6.460   6.894
24787WAT     H274604   3.279   6.464   6.748
24788WAT      O74605   6.500   3.509   2.270
24788WAT     H174606   6.493   3.553   2.180
24788WAT     H274607   6.408   3.496   2.307
24789WAT      O74608   6.099   7.172   1.511
24789WAT     H174609   6.098   7.077   1.480
24789WAT     H274610   6.005   7.200   1.535
24790WAT      O74611   3.323   1.720   8.096
24790WAT     H174612   3.382   1.663   8.038
24790WAT     H274613   3.311   1.675   8.185
24791WAT      O74614   5.368   0.016   7.594
24791WAT     H174615   5.285   0.011   7.539
24791WAT     H274616   5.416   0.102   7.573
24792WAT      O74617   0.347   7.295   0.845
24792WAT     H174618   0.370   7.198   0.851
24792WAT     H274619   0.247   7.305   0.837
24793WAT      O74620   7.539   0.193   8.659
24793WAT     H174621   7.460   0.182   8.599
24793WAT     H274622   7.541   0.287   8.694
24794WAT      O74623   3.588   2.148   2.469
24794WAT     H174624   3.577   2.247   2.471
24794WAT     H274625   3.511   2.107   2.420
24795WAT      O74626   1.413   6.405   6.918
24795WAT     H174627   1.392   6.345   6.995
24795WAT     H274628   1.399   6.355   6.832
24796WAT      O74629   8.399   0.078   5.205
24796WAT     H174630   8.319   0.024   5.231
24796WAT     H274631   8.482   0.033   5.239
24797WAT      O74632   5.964   3.572   6.379
24797WAT     H174633   5.965   3.613   6.288
24797WAT     H274634   5.874   3.531   6.396
24798WAT      O74635   0.382   8.817   1.403
24798WAT     H174636   0.288   8.792   1.382
24798WAT     H274637   0.444   8.744   1.374
24799WAT      O74638   8.890   4.284   8.098
24799WAT     H174639   8.875   4.232   8.182
24799WAT     H274640   8.965   4.349   8.112
24800WAT      O74641   4.561   3.121   6.445
24800WAT     H174642   4.627   3.173   6.390
24800WAT     H274643   4.598   3.031   6.466
24801WAT      O74644   1.207   0.876   6.149
24801WAT     H174645   1.275   0.949   6.159
24801WAT     H274646   1.254   0.787   6.148
24802WAT      O74647   0.533   8.516   6.408
24802WAT     H174648   0.628   8.544   6.394
24802WAT     H274649   0.479   8.595   6.434
24803WAT      O74650   1.908   4.478   2.676
24803WAT     H174651   1.884   4.474   2.579
24803WAT     H274652   1.990   4.533   2.688
24804WAT      O74653   1.534   9.415   7.135
24804WAT     H174654   1.619   9.445   7.178
24804WAT     H274655   1.496   9.339   7.187
24805WAT      O74656   4.634   5.331   6.289
24805WAT     H174657   4.537   5.341   6.265
24805WAT     H274658   4.663   5.410   6.343
24806WAT      O74659   4.628   4.626   7.291
24806WAT     H174660   4.690   4.639   7.214
24806WAT     H274661   4.653   4.542   7.341
24807WAT      O74662   3.406   7.168   4.681
24807WAT     H174663   3.438   7.259   4.707
24807WAT     H274664   3.484   7.106   4.675
24808WAT      O74665   1.135   0.916   8.121
24808WAT     H174666   1.105   0.965   8.038
24808WAT     H274667   1.074   0.839   8.138
24809WAT      O74668   7.329   2.198   7.827
24809WAT     H174669   7.358   2.107   7.796
24809WAT     H274670   7.308   2.255   7.747
24810WAT      O74671   1.293   9.440   1.621
24810WAT     H174672   1.306   9.525   1.570
24810WAT     H274673   1.225   9.454   1.693
24811WAT      O74674   6.908   5.879   2.741
24811WAT     H174675   6.877   5.934   2.819
24811WAT     H274676   6.992   5.831   2.765
24812WAT      O74677   9.734   1.443   4.119
24812WAT     H174678   9.747   1.536   4.085
24812WAT     H274679   9.754   1.441   4.217
24813WAT      O74680   5.884   2.914   8.242
24813WAT     H174681   5.896   2.947   8.149
24813WAT     H274682   5.877   2.992   8.304
24814WAT      O74683   4.091   7.615   6.506
24814WAT     H174684   4.098   7.693   6.444
24814WAT     H274685   4.062   7.646   6.596
24815WAT      O74686   4.196   4.201   6.974
24815WAT     H174687   4.116   4.169   7.024
24815WAT     H274688   4.209   4.144   6.892
24816WAT      O74689   5.836   7.737   2.580
24816WAT     H174690   5.851   7.646   2.543
24816WAT     H274691   5.814   7.730   2.678
24817WAT      O74692   5.091   6.047   4.818
24817WAT     H174693   5.182   6.077   4.789
24817WAT     H274694   5.041   6.012   4.739
24818WAT      O74695   8.792   4.427   1.357
24818WAT     H174696   8.853   4.378   1.419
24818WAT     H274697   8.698   4.425   1.393
24819WAT      O74698   8.567   2.315   6.760
24819WAT     H174699   8.625   2.375   6.705
24819WAT     H274700   8.489   2.367   6.794
24820WAT      O74701   1.765   4.592   7.133
24820WAT     H174702   1.765   4.692   7.127
24820WAT     H274703   1.728   4.554   7.048
24821WAT      O74704   6.215   8.669   2.704
24821WAT     H174705   6.203   8.763   2.672
24821WAT     H274706   6.284   8.667   2.776
24822WAT      O74707   2.392   6.918   2.009
24822WAT     H174708   2.484   6.951   2.028
24822WAT     H274709   2.364   6.949   1.918
24823WAT      O74710   6.571   8.150   2.385
24823WAT     H174711   6.607   8.211   2.316
24823WAT     H274712   6.645   8.099   2.428
24824WAT      O74713   4.134   5.581   8.443
24824WAT     H174714   4.151   5.545   8.535
24824WAT     H274715   4.036   5.582   8.425
24825WAT      O74716   2.368   3.613   0.095
24825WAT     H174717   2.286   3.559   0.077
24825WAT     H274718   2.361   3.702   0.050
24826WAT      O74719   2.675   7.093   2.770
24826WAT     H174720   2.666   7.151   2.689
24826WAT     H274721   2.763   7.046   2.768
24827WAT      O74722   5.192   4.960   9.764
24827WAT     H174723   5.122   5.030   9.752
24827WAT     H274724   5.165   4.877   9.713
24828WAT      O74725   1.602   7.700   2.423
24828WAT     H174726   1.531   7.767   2.447
24828WAT     H274727   1.559   7.621   2.379
24829WAT      O74728   7.681   8.794   0.612
24829WAT     H174729   7.586   8.825   0.622
24829WAT     H274730   7.708   8.798   0.516
24830WAT      O74731   2.600   4.672   5.160
24830WAT     H174732   2.587   4.581   5.122
24830WAT     H274733   2.514   4.723   5.156
24831WAT      O74734   5.508   1.190   0.424
24831WAT     H174735   5.489   1.195   0.326
24831WAT     H274736   5.423   1.178   0.474
24832WAT      O74737   3.843   1.248   2.437
24832WAT     H174738   3.890   1.295   2.362
24832WAT     H274739   3.789   1.314   2.489
24833WAT      O74740   1.289   8.660   4.805
24833WAT     H174741   1.349   8.669   4.885
24833WAT     H274742   1.293   8.745   4.751
24834WAT      O74743   4.217   3.414   1.010
24834WAT     H174744   4.277   3.487   0.978
24834WAT     H274745   4.125   3.450   1.024
24835WAT      O74746   9.872   1.639   1.774
24835WAT     H174747   9.833   1.610   1.861
24835WAT     H274748   9.798   1.659   1.709
24836WAT      O74749   4.483   7.760   1.436
24836WAT     H174750   4.434   7.701   1.500
24836WAT     H274751   4.519   7.840   1.485
24837WAT      O74752   5.261   5.700   5.927
24837WAT     H174753   5.310   5.651   5.999
24837WAT     H274754   5.301   5.677   5.838
24838WAT      O74755   3.942   4.921   0.185
24838WAT     H174756   3.915   4.897   0.278
24838WAT     H274757   3.981   4.840   0.140
24839WAT      O74758   9.390   0.982   6.921
24839WAT     H174759   9.406   1.071   6.877
24839WAT     H274760   9.473   0.953   6.968
24840WAT      O74761   3.379   3.901   9.719
24840WAT     H174762   3.347   3.956   9.796
24840WAT     H274763   3.434   3.958   9.658
24841WAT      O74764   2.490   2.487   9.504
24841WAT     H174765   2.565   2.506   9.440
24841WAT     H274766   2.485   2.560   9.572
24842WAT      O74767   4.907   3.704   7.902
24842WAT     H174768   4.858   3.677   7.985
24842WAT     H274769   4.862   3.784   7.862
24843WAT      O74770   7.038   1.302   3.970
24843WAT     H174771   7.012   1.230   3.906
24843WAT     H274772   7.006   1.390   3.936
24844WAT      O74773   5.876   5.758   8.110
24844WAT     H174774   5.953   5.792   8.055
24844WAT     H274775   5.911   5.705   8.187
24845WAT      O74776   6.654   7.388   9.231
24845WAT     H174777   6.685   7.336   9.311
24845WAT     H274778   6.577   7.341   9.188
24846WAT      O74779   6.237   5.049   0.239
24846WAT     H174780   6.164   4.994   0.280
24846WAT     H274781   6.265   5.006   0.153
24847WAT      O74782   5.285   5.044   2.837
24847WAT     H174783   5.370   5.073   2.881
24847WAT     H274784   5.300   4.958   2.788
24848WAT      O74785   8.828   3.530   2.539
24848WAT     H174786   8.907   3.476   2.569
24848WAT     H274787   8.751   3.468   2.519
24849WAT      O74788   4.458   9.621   7.772
24849WAT     H174789   4.500   9.547   7.824
24849WAT     H274790   4.410   9.584   7.692
24850WAT      O74791   9.357   4.468   2.278
24850WAT     H174792   9.429   4.536   2.292
24850WAT     H274793   9.282   4.509   2.228
24851WAT      O74794   8.388   3.679   5.023
24851WAT     H174795   8.364   3.768   5.062
24851WAT     H274796   8.414   3.692   4.927
24852WAT      O74797   1.680   6.254   1.728
24852WAT     H174798   1.731   6.184   1.678
24852WAT     H274799   1.741   6.298   1.795
24853WAT      O74800   1.313   8.110   3.664
24853WAT     H174801   1.267   8.145   3.582
24853WAT     H274802   1.381   8.176   3.695
24854WAT      O74803   5.552   4.727   0.808
24854WAT     H174804   5.511   4.792   0.872
24854WAT     H274805   5.561   4.638   0.852
24855WAT      O74806   1.757   4.583   6.467
24855WAT     H174807   1.776   4.647   6.392
24855WAT     H274808   1.828   4.514   6.472
24856WAT      O74809   4.127   0.444   4.246
24856WAT     H174810   4.185   0.379   4.196
24856WAT     H274811   4.119   0.529   4.193
24857WAT      O74812   0.621   7.271   7.443
24857WAT     H174813   0.579   7.334   7.507
24857WAT     H274814   0.621   7.311   7.351
24858WAT      O74815   2.529   4.441   3.852
24858WAT     H174816   2.561   4.513   3.791
24858WAT     H274817   2.532   4.353   3.805
24859WAT      O74818   0.025   6.096   3.742
24859WAT     H174819  -0.049   6.130   3.800
24859WAT     H274820  -0.011   6.073   3.652
24860WAT      O74821   9.095   7.460   9.813
24860WAT     H174822   9.135   7.371   9.791
24860WAT     H274823   9.042   7.493   9.735
24861WAT      O74824   4.259   1.957   4.955
24861WAT     H174825   4.176   1.906   4.977
24861WAT     H274826   4.333   1.892   4.938
24862WAT      O74827   7.382   4.697   1.114
24862WAT     H174828   7.420   4.606   1.131
24862WAT     H274829   7.340   4.732   1.197
24863WAT      O74830   0.508   0.730   4.023
24863WAT     H174831   0.587   0.773   3.980
24863WAT     H274832   0.535   0.692   4.112
24864WAT      O74833   6.132   0.093   0.967
24864WAT     H174834   6.119   0.021   1.035
24864WAT     H274835   6.053   0.154   0.968
24865WAT      O74836   7.839   0.915   1.118
24865WAT     H174837   7.791   0.901   1.204
24865WAT     H274838   7.873   1.009   1.114
24866WAT      O74839   7.579   5.837   7.783
24866WAT     H174840   7.570   5.806   7.878
24866WAT     H274841   7.490   5.831   7.738
24867WAT      O74842   3.719   7.911   3.358
24867WAT     H174843   3.728   7.816   3.387
24867WAT     H274844   3.673   7.914   3.270
24868WAT      O74845   9.062   0.273   9.770
24868WAT     H174846   9.139   0.255   9.709
24868WAT     H274847   8.984   0.217   9.742
24869WAT      O74848   6.513   1.264   7.088
24869WAT     H174849   6.571   1.228   7.015
24869WAT     H274850   6.566   1.328   7.144
24870WAT      O74851   3.495   5.531   3.576
24870WAT     H174852   3.530   5.604   3.634
24870WAT     H274853   3.566   5.462   3.563
24871WAT      O74854   9.473   9.137   5.733
24871WAT     H174855   9.374   9.125   5.746
24871WAT     H274856   9.488   9.194   5.651
24872WAT      O74857   6.861   4.549   4.161
24872WAT     H174858   6.823   4.636   4.130
24872WAT     H274859   6.890   4.495   4.082
24873WAT      O74860   0.766   2.110   3.606
24873WAT     H174861   0.717   2.193   3.581
24873WAT     H274862   0.702   2.033   3.611
24874WAT      O74863   3.373   9.029   7.916
24874WAT     H174864   3.466   9.039   7.880
24874WAT     H274865   3.323   8.961   7.861
24875WAT      O74866   9.673   0.140   1.690
24875WAT     H174867   9.763   0.099   1.704
24875WAT     H274868   9.636   0.110   1.602
24876WAT      O74869   8.408   3.894   5.891
24876WAT     H174870   8.437   3.950   5.813
24876WAT     H274871   8.419   3.797   5.868
24877WAT      O74872   5.678   3.125   7.053
24877WAT     H174873   5.586   3.094   7.079
24877WAT     H274874   5.675   3.167   6.963
24878WAT      O74875   1.997   4.417   7.592
24878WAT     H174876   1.950   4.349   7.650
24878WAT     H274877   1.953   4.506   7.604
24879WAT      O74878   0.377   5.359   5.465
24879WAT     H174879   0.375   5.401   5.556
24879WAT     H274880   0.466   5.314   5.452
24880WAT      O74881   4.133   3.976   2.776
24880WAT     H174882   4.199   3.910   2.814
24880WAT     H274883   4.081   3.932   2.703
24881WAT      O74884   9.868   6.080   6.643
24881WAT     H174885   9.863   6.145   6.719
24881WAT     H274886   9.890   5.989   6.679
24882WAT      O74887   7.066   6.454   2.141
24882WAT     H174888   7.044   6.472   2.237
24882WAT     H274889   7.132   6.522   2.109
24883WAT      O74890   1.759   8.639   8.652
24883WAT     H174891   1.838   8.695   8.677
24883WAT     H274892   1.789   8.559   8.601
24884WAT      O74893   3.366   4.195   6.995
24884WAT     H174894   3.407   4.150   6.916
24884WAT     H274895   3.284   4.244   6.967
24885WAT      O74896   5.780   1.840   6.130
24885WAT     H174897   5.872   1.809   6.153
24885WAT     H274898   5.725   1.845   6.214
24886WAT      O74899   0.454   0.835   5.710
24886WAT     H174900   0.381   0.838   5.778
24886WAT     H274901   0.502   0.923   5.709
24887WAT      O74902   0.238   0.954   8.889
24887WAT     H174903   0.246   0.979   8.985
24887WAT     H274904   0.300   1.011   8.835
24888WAT      O74905   4.572   3.550   8.729
24888WAT     H174906   4.504   3.547   8.655
24888WAT     H274907   4.623   3.636   8.724
24889WAT      O74908   2.410   5.380   1.342
24889WAT     H174909   2.355   5.442   1.286
24889WAT     H274910   2.450   5.309   1.283
24890WAT      O74911   6.404   6.910   2.156
24890WAT     H174912   6.371   6.967   2.231
24890WAT     H274913   6.329   6.890   2.094
24891WAT      O74914   2.058   8.582   9.419
24891WAT     H174915   2.079   8.597   9.516
24891WAT     H274916   1.987   8.512   9.411
24892WAT      O74917   5.924   0.707   2.326
24892WAT     H174918   5.941   0.767   2.404
24892WAT     H274919   5.898   0.762   2.247
24893WAT      O74920   2.660   6.177   3.621
24893WAT     H174921   2.648   6.192   3.719
24893WAT     H274922   2.702   6.087   3.605
24894WAT      O74923   1.749   3.525   3.562
24894WAT     H174924   1.651   3.524   3.582
24894WAT     H274925   1.767   3.588   3.486
24895WAT      O74926   8.952   1.423   8.738
24895WAT     H174927   8.886   1.393   8.807
24895WAT     H274928   8.927   1.385   8.649
24896WAT      O74929   2.326   6.312   9.526
24896WAT     H174930   2.389   6.379   9.564
24896WAT     H274931   2.375   6.225   9.510
24897WAT      O74932   2.844   5.174   7.228
24897WAT     H174933   2.800   5.089   7.258
24897WAT     H274934   2.774   5.241   7.203
24898WAT      O74935   3.133   9.243   1.014
24898WAT     H174936   3.124   9.186   0.933
24898WAT     H274937   3.043   9.253   1.058
24899WAT      O74938   6.524   4.996   9.157
24899WAT     H174939   6.470   4.913   9.141
24899WAT     H274940   6.463   5.069   9.187
24900WAT      O74941   8.119   5.180   1.527
24900WAT     H174942   8.118   5.099   1.469
24900WAT     H274943   8.154   5.156   1.617
24901WAT      O74944   9.591   0.253   4.594
24901WAT     H174945   9.649   0.334   4.600
24901WAT     H274946   9.512   0.273   4.536
24902WAT      O74947   0.898   5.614   8.372
24902WAT     H174948   0.908   5.516   8.390
24902WAT     H274949   0.959   5.666   8.432
24903WAT      O74950   2.049   0.324   9.037
24903WAT     H174951   2.060   0.393   8.966
24903WAT     H274952   2.035   0.234   8.994
24904WAT      O74953   4.919   4.114   4.503
24904WAT     H174954   4.853   4.164   4.447
24904WAT     H274955   5.001   4.094   4.448
24905WAT      O74956   0.928   0.735   8.454
24905WAT     H174957   0.844   0.695   8.490
24905WAT     H274958   1.006   0.704   8.508
24906WAT      O74959   5.000   8.000   7.113
24906WAT     H174960   5.053   8.075   7.153
24906WAT     H274961   4.903   8.015   7.131
24907WAT      O74962   5.127   0.816   8.025
24907WAT     H174963   5.140   0.726   7.984
24907WAT     H274964   5.113   0.806   8.124
24908WAT      O74965   8.002   8.451   1.339
24908WAT     H174966   8.037   8.467   1.431
24908WAT     H274967   8.076   8.460   1.273
24909WAT      O74968   2.350   1.546   0.335
24909WAT     H174969   2.394   1.603   0.405
24909WAT     H274970   2.371   1.450   0.354
24910WAT      O74971   2.695   7.572   2.167
24910WAT     H174972   2.624   7.604   2.230
24910WAT     H274973   2.784   7.576   2.212
24911WAT      O74974   1.406   9.718   9.279
24911WAT     H174975   1.469   9.793   9.258
24911WAT     H274976   1.332   9.753   9.338
24912WAT      O74977   6.617   6.153   1.392
24912WAT     H174978   6.656   6.143   1.483
24912WAT     H274979   6.621   6.066   1.344
24913WAT      O74980   4.431   5.920   8.604
24913WAT     H174981   4.431   6.003   8.660
24913WAT     H274982   4.472   5.940   8.515
24914WAT      O74983   5.859   1.515   6.096
24914WAT     H174984   5.901   1.480   6.013
24914WAT     H274985   5.914   1.488   6.175
24915WAT      O74986   7.915   9.665   1.238
24915WAT     H174987   7.947   9.759   1.226
24915WAT     H274988   7.816   9.661   1.225
24916WAT      O74989   9.668   6.500   8.078
24916WAT     H174990   9.667   6.599   8.059
24916WAT     H274991   9.714   6.484   8.165
24917WAT      O74992   4.043   1.200   8.841
24917WAT     H174993   4.142   1.195   8.856
24917WAT     H274994   4.025   1.212   8.744
24918WAT      O74995   5.625   0.127   9.488
24918WAT     H174996   5.697   0.062   9.510
24918WAT     H274997   5.662   0.200   9.430
24919WAT      O74998   8.343   9.255   5.977
24919WAT     H174999   8.435   9.290   5.989
24919WAT     H275000   8.340   9.195   5.897
24920WAT      O75001   2.749   6.000   6.940
24920WAT     H175002   2.688   6.012   7.018
24920WAT     H275003   2.740   6.079   6.878
24921WAT      O75004   0.818   7.313   3.039
24921WAT     H175005   0.737   7.292   3.093
24921WAT     H275006   0.824   7.249   2.962
24922WAT      O75007   9.151   8.889   8.751
24922WAT     H175008   9.244   8.853   8.763
24922WAT     H275009   9.091   8.849   8.821
24923WAT      O75010   4.266   9.147   1.167
24923WAT     H175011   4.258   9.246   1.179
24923WAT     H275012   4.288   9.127   1.072
24924WAT      O75013   1.168   0.074   3.796
24924WAT     H175014   1.166  -0.003   3.859
24924WAT     H275015   1.117   0.151   3.835
24925WAT      O75016   0.919   8.966   8.335
24925WAT     H175017   0.910   9.040   8.270
24925WAT     H275018   0.926   9.003   8.428
24926WAT      O75019   1.235   5.738   9.451
24926WAT     H175020   1.254   5.786   9.366
24926WAT     H275021   1.197   5.648   9.431
24927WAT      O75022   3.544   1.723   9.464
24927WAT     H175023   3.536   1.709   9.562
24927WAT     H275024   3.476   1.791   9.434
24928WAT      O75025   2.162   0.481   6.924
24928WAT     H175026   2.129   0.437   6.840
24928WAT     H275027   2.084   0.516   6.976
24929WAT      O75028   2.242   1.526   4.088
24929WAT     H175029   2.157   1.473   4.078
24929WAT     H275030   2.220   1.618   4.121
24930WAT      O75031   0.737   2.478   7.636
24930WAT     H175032   0.731   2.397   7.695
24930WAT     H275033   0.829   2.483   7.596
24931WAT      O75034   1.068   7.568   7.843
24931WAT     H175035   1.148   7.512   7.863
24931WAT     H275036   1.000   7.512   7.795
24932WAT      O75037   6.850   2.567   7.633
24932WAT     H175038   6.855   2.531   7.726
24932WAT     H275039   6.929   2.627   7.616
24933WAT      O75040   3.617   6.189   9.108
24933WAT     H175041   3.640   6.106   9.159
24933WAT     H275042   3.582   6.258   9.172
24934WAT      O75043   8.491   4.600   5.031
24934WAT     H175044   8.506   4.609   4.932
24934WAT     H275045   8.579   4.609   5.078
24935WAT      O75046   4.176   8.924   2.762
24935WAT     H175047   4.205   8.915   2.857
24935WAT     H275048   4.160   9.021   2.740
24936WAT      O75049   2.547   3.294   7.006
24936WAT     H175050   2.622   3.328   7.063
24936WAT     H275051   2.520   3.365   6.941
24937WAT      O75052   8.875   2.803   1.396
24937WAT     H175053   8.786   2.846   1.378
24937WAT     H275054   8.861   2.710   1.430
24938WAT      O75055   5.182   4.967   8.492
24938WAT     H175056   5.112   5.035   8.513
24938WAT     H275057   5.152   4.877   8.522
24939WAT      O75058   8.630   1.000   0.332
24939WAT     H175059   8.551   0.988   0.272
24939WAT     H275060   8.712   0.963   0.288
24940WAT      O75061   3.058   0.343   5.459
24940WAT     H175062   3.152   0.371   5.445
24940WAT     H275063   3.053   0.243   5.463
24941WAT      O75064   6.908   1.159   1.414
24941WAT     H175065   6.906   1.059   1.409
24941WAT     H275066   6.869   1.189   1.501
24942WAT      O75067   3.007   2.217   2.925
24942WAT     H175068   3.033   2.129   2.964
24942WAT     H275069   2.920   2.246   2.964
24943WAT      O75070   5.861   6.559   1.625
24943WAT     H175071   5.935   6.498   1.597
24943WAT     H275072   5.838   6.542   1.721
24944WAT      O75073   1.646   1.769   7.067
24944WAT     H175074   1.614   1.677   7.091
24944WAT     H275075   1.742   1.765   7.039
24945WAT      O75076   4.883   1.543   9.531
24945WAT     H175077   4.870   1.595   9.615
24945WAT     H275078   4.980   1.527   9.516
24946WAT      O75079   7.231   8.173   2.996
24946WAT     H175080   7.212   8.196   2.900
24946WAT     H275081   7.146   8.155   3.044
24947WAT      O75082   4.158   1.842   2.057
24947WAT     H175083   4.188   1.898   1.980
24947WAT     H275084   4.071   1.877   2.092
24948WAT      O75085   6.487   1.706   3.560
24948WAT     H175086   6.429   1.637   3.516
24948WAT     H275087   6.439   1.794   3.558
24949WAT      O75088   3.844   3.166   4.666
24949WAT     H175089   3.791   3.081   4.672
24949WAT     H275090   3.939   3.149   4.692
24950WAT      O75091   2.438   6.584   8.844
24950WAT     H175092   2.527   6.588   8.797
24950WAT     H275093   2.368   6.556   8.778
24951WAT      O75094   3.122   6.977   0.199
24951WAT     H175095   3.086   6.946   0.110
24951WAT     H275096   3.114   6.903   0.266
24952WAT      O75097   1.594   9.181   5.339
24952WAT     H175098   1.688   9.168   5.372
24952WAT     H275099   1.531   9.133   5.400
24953WAT      O75100   2.066   9.509   7.297
24953WAT     H175101   2.083   9.500   7.198
24953WAT     H275102   2.052   9.419   7.336
24954WAT      O75103   6.355   7.043   5.673
24954WAT     H175104   6.333   6.970   5.608
24954WAT     H275105   6.274   7.099   5.688
24955WAT      O75106   3.806   4.599   5.002
24955WAT     H175107   3.741   4.612   4.928
24955WAT     H275108   3.815   4.683   5.055
24956WAT      O75109   7.919   6.338   4.614
24956WAT     H175110   7.987   6.340   4.540
24956WAT     H275111   7.963   6.365   4.700
24957WAT      O75112   6.786   2.915   2.998
24957WAT     H175113   6.765   2.915   3.096
24957WAT     H275114   6.713   2.869   2.948
24958WAT      O75115   5.686   7.154   8.734
24958WAT     H175116   5.665   7.180   8.640
24958WAT     H275117   5.617   7.089   8.767
24959WAT      O75118   1.371   4.063   0.032
24959WAT     H175119   1.312   4.010   0.093
24959WAT     H275120   1.316   4.102  -0.042
24960WAT      O75121   7.832   1.935   6.935
24960WAT     H175122   7.873   1.859   6.986
24960WAT     H275123   7.848   1.921   6.837
24961WAT      O75124   4.809   5.527   4.214
24961WAT     H175125   4.838   5.623   4.211
24961WAT     H275126   4.718   5.518   4.175
24962WAT      O75127   8.017   4.492   7.774
24962WAT     H175128   8.019   4.592   7.768
24962WAT     H275129   7.963   4.465   7.853
24963WAT      O75130   9.493   7.879   6.414
24963WAT     H175131   9.451   7.918   6.497
24963WAT     H275132   9.439   7.800   6.384
24964WAT      O75133   7.152   6.768   7.830
24964WAT     H175134   7.217   6.842   7.812
24964WAT     H275135   7.119   6.776   7.924
24965WAT      O75136   7.622   9.376   0.562
24965WAT     H175137   7.689   9.307   0.588
24965WAT     H275138   7.593   9.361   0.468
24966WAT      O75139   7.171   9.599   7.681
24966WAT     H175140   7.253   9.564   7.635
24966WAT     H275141   7.165   9.698   7.667
24967WAT      O75142   8.377   3.062   8.283
24967WAT     H175143   8.278   3.079   8.286
24967WAT     H275144   8.393   2.963   8.276
24968WAT      O75145   8.878   7.875   2.242
24968WAT     H175146   8.968   7.832   2.245
24968WAT     H275147   8.855   7.899   2.148
24969WAT      O75148   6.783   5.494   4.159
24969WAT     H175149   6.690   5.459   4.155
24969WAT     H275150   6.812   5.523   4.068
24970WAT      O75151   5.495   1.968   7.763
24970WAT     H175152   5.581   2.003   7.728
24970WAT     H275153   5.434   1.946   7.687
24971WAT      O75154   5.456   5.032   6.418
24971WAT     H175155   5.556   5.032   6.412
24971WAT     H275156   5.420   5.106   6.361
24972WAT      O75157   1.510   5.786   8.226
24972WAT     H175158   1.422   5.802   8.270
24972WAT     H275159   1.559   5.873   8.215
24973WAT      O75160   6.785   3.084   8.294
24973WAT     H175161   6.744   3.009   8.242
24973WAT     H275162   6.882   3.091   8.271
24974WAT      O75163   9.305   4.478   4.860
24974WAT     H175164   9.379   4.514   4.803
24974WAT     H275165   9.283   4.545   4.931
24975WAT      O75166   3.834   4.108   6.733
24975WAT     H175167   3.881   4.171   6.795
24975WAT     H275168   3.871   4.119   6.641
24976WAT      O75169   1.912   7.164   3.930
24976WAT     H175170   1.846   7.116   3.872
24976WAT     H275171   1.891   7.262   3.932
24977WAT      O75172   1.225   7.889   9.720
24977WAT     H175173   1.213   7.834   9.803
24977WAT     H275174   1.146   7.876   9.660
24978WAT      O75175   1.111   4.998   0.457
24978WAT     H175176   1.153   5.029   0.372
24978WAT     H275177   1.023   5.045   0.470
24979WAT      O75178   2.106   4.494   4.666
24979WAT     H175179   2.014   4.518   4.637
24979WAT     H275180   2.153   4.445   4.593
24980WAT      O75181   6.160   0.254   2.577
24980WAT     H175182   6.200   0.341   2.546
24980WAT     H275183   6.195   0.179   2.521
24981WAT      O75184   5.668   5.841   0.087
24981WAT     H175185   5.637   5.756   0.129
24981WAT     H275186   5.589   5.893   0.054
24982WAT      O75187   5.150   0.605   8.454
24982WAT     H175188   5.193   0.631   8.541
24982WAT     H275189   5.204   0.532   8.412
24983WAT      O75190   3.830   4.022   5.645
24983WAT     H175191   3.928   4.033   5.663
24983WAT     H275192   3.815   3.937   5.594
24984WAT      O75193   4.266   2.104   9.001
24984WAT     H175194   4.231   2.157   9.078
24984WAT     H275195   4.225   2.138   8.916
24985WAT      O75196   3.838   8.359   2.300
24985WAT     H175197   3.787   8.379   2.384
24985WAT     H275198   3.916   8.421   2.294
24986WAT      O75199   1.882   1.395   7.036
24986WAT     H175200   1.877   1.426   6.941
24986WAT     H275201   1.906   1.298   7.039
24987WAT      O75202   4.655   3.472   3.558
24987WAT     H175203   4.700   3.499   3.474
24987WAT     H275204   4.631   3.375   3.554
24988WAT      O75205   2.128   9.524   5.350
24988WAT     H175206   2.105   9.583   5.427
24988WAT     H275207   2.168   9.579   5.276
24989WAT      O75208   2.512   9.403   9.633
24989WAT     H175209   2.482   9.313   9.602
24989WAT     H275210   2.459   9.429   9.714
24990WAT      O75211   9.150   4.288   3.678
24990WAT     H175212   9.250   4.284   3.681
24990WAT     H275213   9.120   4.382   3.666
24991WAT      O75214   7.739   8.397   2.854
24991WAT     H175215   7.765   8.479   2.906
24991WAT     H275216   7.784   8.317   2.894
24992WAT      O75217   9.576   6.056   5.990
24992WAT     H175218   9.547   5.979   6.046
24992WAT     H275219   9.497   6.090   5.938
24993WAT      O75220   2.666   9.006   9.436
24993WAT     H175221   2.707   8.930   9.386
24993WAT     H275222   2.701   9.093   9.400
24994WAT      O75223   7.075   3.959   2.310
24994WAT     H175224   7.118   4.024   2.372
24994WAT     H275225   7.131   3.876   2.306
24995WAT      O75226   2.863   8.643   0.445
24995WAT     H175227   2.828   8.549   0.446
24995WAT     H275228   2.907   8.660   0.357
24996WAT      O75229   9.170   3.208   5.544
24996WAT     H175230   9.147   3.304   5.561
24996WAT     H275231   9.154   3.155   5.628
24997WAT      O75232   2.498   8.128   4.834
24997WAT     H175233   2.459   8.197   4.772
24997WAT     H275234   2.518   8.170   4.922
24998WAT      O75235   4.948   6.565   1.980
24998WAT     H175236   4.848   6.554   1.983
24998WAT     H275237   4.974   6.651   2.023
24999WAT      O75238   2.889   1.183   7.712
24999WAT     H175239   2.882   1.272   7.666
24999WAT     H275240   2.913   1.198   7.808
25000WAT      O75241   0.801   8.767   5.466
25000WAT     H175242   0.762   8.829   5.535
25000WAT     H275243   0.727   8.727   5.413
25001WAT      O75244   5.746   6.046   4.854
25001WAT     H175245   5.818   6.112   4.832
25001WAT     H275246   5.693   6.026   4.772
25002WAT      O75247   8.897   2.144   1.662
25002WAT     H175248   8.865   2.238   1.666
25002WAT     H275249   8.855   2.098   1.584
25003WAT      O75250   7.765   9.675   4.676
25003WAT     H175251   7.783   9.579   4.699
25003WAT     H275252   7.731   9.723   4.756
25004WAT      O75253   5.633   8.822   8.936
25004WAT     H175254   5.705   8.862   8.879
25004WAT     H275255   5.639   8.723   8.934
25005WAT      O75256   2.926   4.464   3.097
25005WAT     H175257   3.026   4.471   3.102
25005WAT     H275258   2.900   4.397   3.027
25006WAT      O75259   0.520   2.622   1.693
25006WAT     H175260   0.520   2.715   1.658
25006WAT     H275261   0.437   2.607   1.748
25007WAT      O75262   9.667   7.072   0.315
25007WAT     H175263   9.754   7.088   0.361
25007WAT     H275264   9.592   7.110   0.369
25008WAT      O75265   8.199   9.168   7.078
25008WAT     H175266   8.171   9.252   7.032
25008WAT     H275267   8.250   9.190   7.161
25009WAT      O75268   0.006   7.846   5.920
25009WAT     H175269  -0.005   7.885   5.829
25009WAT     H275270   0.037   7.751   5.911
25010WAT      O75271   2.535   8.264   7.878
25010WAT     H175272   2.494   8.310   7.957
25010WAT     H275273   2.619   8.217   7.907
25011WAT      O75274   2.272   9.180   7.948
25011WAT     H175275   2.187   9.129   7.933
25011WAT     H275276   2.251   9.273   7.977
25012WAT      O75277   6.512   4.531   0.645
25012WAT     H175278   6.468   4.610   0.603
25012WAT     H275279   6.597   4.511   0.597
25013WAT      O75280   8.026   8.148   5.801
25013WAT     H175281   8.064   8.123   5.712
25013WAT     H275282   7.945   8.092   5.820
25014WAT      O75283   2.182   4.757   1.781
25014WAT     H175284   2.213   4.663   1.797
25014WAT     H275285   2.090   4.768   1.818
25015WAT      O75286   8.712   5.725   2.869
25015WAT     H175287   8.744   5.719   2.775
25015WAT     H275288   8.766   5.664   2.927
25016WAT      O75289   0.528   2.469   5.299
25016WAT     H175290   0.485   2.424   5.221
25016WAT     H275291   0.595   2.408   5.340
25017WAT      O75292   3.734   3.000   0.053
25017WAT     H175293   3.695   3.089   0.027
25017WAT     H275294   3.663   2.943   0.094
25018WAT      O75295   3.952   2.864   5.103
25018WAT     H175296   3.997   2.775   5.095
25018WAT     H275297   3.874   2.868   5.040
25019WAT      O75298   5.832   6.586   1.296
25019WAT     H175299   5.810   6.491   1.317
25019WAT     H275300   5.843   6.638   1.382
25020WAT      O75301   2.101   0.005   4.087
25020WAT     H175302   2.164  -0.073   4.077
25020WAT     H275303   2.094   0.031   4.183
25021WAT      O75304   5.685   1.656   4.259
25021WAT     H175305   5.722   1.600   4.333
25021WAT     H275306   5.705   1.752   4.277
25022WAT      O75307   6.858   7.182   1.862
25022WAT     H175308   6.905   7.154   1.946
25022WAT     H275309   6.766   7.143   1.860
25023WAT      O75310   4.706   5.603   7.844
25023WAT     H175311   4.638   5.538   7.878
25023WAT     H275312   4.796   5.582   7.883
25024WAT      O75313   8.470   5.917   3.186
25024WAT     H175314   8.390   5.976   3.186
25024WAT     H275315   8.513   5.919   3.276
25025WAT      O75316   7.178   4.763   4.501
25025WAT     H175317   7.234   4.756   4.418
25025WAT     H275318   7.192   4.853   4.543
25026WAT      O75319   5.046   4.160   7.653
25026WAT     H175320   5.084   4.249   7.629
25026WAT     H275321   5.090   4.088   7.599
25027WAT      O75322   3.632   9.189   5.467
25027WAT     H175323   3.666   9.207   5.560
25027WAT     H275324   3.671   9.257   5.404
25028WAT      O75325   6.107   5.535   7.915
25028WAT     H175326   6.014   5.513   7.944
25028WAT     H275327   6.158   5.450   7.898
25029WAT      O75328   7.201   1.505   6.842
25029WAT     H175329   7.183   1.509   6.743
25029WAT     H275330   7.192   1.596   6.881
25030WAT      O75331   5.656   8.654   3.573
25030WAT     H175332   5.754   8.667   3.559
25030WAT     H275333   5.639   8.623   3.667
25031WAT      O75334   5.511   5.321   0.419
25031WAT     H175335   5.513   5.355   0.513
25031WAT     H275336   5.560   5.234   0.414
25032WAT      O75337   1.571   3.778   5.250
25032WAT     H175338   1.593   3.731   5.335
25032WAT     H275339   1.586   3.716   5.173
25033WAT      O75340   7.217   8.647   1.905
25033WAT     H175341   7.146   8.666   1.972
25033WAT     H275342   7.176   8.631   1.816
25034WAT      O75343   5.135   5.128   0.237
25034WAT     H175344   5.051   5.094   0.194
25034WAT     H275345   5.135   5.228   0.237
25035WAT      O75346   3.407   7.877   4.703
25035WAT     H175347   3.458   7.861   4.787
25035WAT     H275348   3.310   7.866   4.720
25036WAT      O75349   8.061   5.950   8.322
25036WAT     H175350   8.037   5.955   8.419
25036WAT     H275351   8.131   6.019   8.302
25037WAT      O75352   8.117   9.327   4.137
25037WAT     H175353   8.188   9.276   4.187
25037WAT     H275354   8.028   9.286   4.156
25038WAT      O75355   0.117   4.351   2.003
25038WAT     H175356   0.041   4.296   1.968
25038WAT     H275357   0.091   4.393   2.090
25039WAT      O75358   3.442   8.278   9.792
25039WAT     H175359   3.408   8.192   9.830
25039WAT     H275360   3.366   8.341   9.778
25040WAT      O75361   2.383   5.136   4.800
25040WAT     H175362   2.450   5.080   4.751
25040WAT     H275363   2.359   5.092   4.887
25041WAT      O75364   1.947   5.062   5.121
25041WAT     H175365   2.019   5.131   5.111
25041WAT     H275366   1.857   5.105   5.113
25042WAT      O75367   5.414   2.125   9.620
25042WAT     H175368   5.461   2.177   9.549
25042WAT     H275369   5.420   2.175   9.707
25043WAT      O75370   3.193   8.512   7.836
25043WAT     H175371   3.255   8.468   7.771
25043WAT     H275372   3.150   8.442   7.893
25044WAT      O75373   6.808   2.301   1.715
25044WAT     H175374   6.762   2.318   1.802
25044WAT     H275375   6.896   2.258   1.732
25045WAT      O75376   8.183   1.823   0.148
25045WAT     H175377   8.113   1.814   0.218
25045WAT     H275378   8.170   1.909   0.099
25046WAT      O75379   8.249   4.825   6.224
25046WAT     H175380   8.241   4.857   6.130
25046WAT     H275381   8.234   4.726   6.226
25047WAT      O75382   4.731   7.520   6.331
25047WAT     H175383   4.702   7.572   6.412
25047WAT     H275384   4.700   7.566   6.248
25048WAT      O75385   2.201   1.081   7.218
25048WAT     H175386   2.298   1.071   7.196
25048WAT     H275387   2.192   1.124   7.308
25049WAT      O75388   6.107   8.437   6.192
25049WAT     H175389   6.149   8.433   6.101
25049WAT     H275390   6.043   8.514   6.196
25050WAT      O75391   5.701   5.679   2.122
25050WAT     H175392   5.788   5.727   2.128
25050WAT     H275393   5.629   5.743   2.095
25051WAT      O75394   0.852   8.251   2.153
25051WAT     H175395   0.948   8.232   2.175
25051WAT     H275396   0.810   8.303   2.227
25052WAT      O75397   5.136   8.538   4.880
25052WAT     H175398   5.227   8.497   4.888
25052WAT     H275399   5.112   8.548   4.783
25053WAT      O75400   0.707   8.003   7.071
25053WAT     H175401   0.662   8.090   7.050
25053WAT     H275402   0.802   8.006   7.040
25054WAT      O75403   6.186   1.830   1.148
25054WAT     H175404   6.245   1.784   1.081
25054WAT     H275405   6.119   1.765   1.184
25055WAT      O75406   7.954   7.496   7.807
25055WAT     H175407   7.929   7.403   7.834
25055WAT     H275408   7.966   7.553   7.888
25056WAT      O75409   9.815   1.899   2.537
25056WAT     H175410   9.882   1.973   2.547
25056WAT     H275411   9.741   1.929   2.476
25057WAT      O75412   8.257   0.386   6.503
25057WAT     H175413   8.173   0.332   6.510
25057WAT     H275414   8.243   0.462   6.439
25058WAT      O75415   6.324   6.910   5.929
25058WAT     H175416   6.331   6.951   5.838
25058WAT     H275417   6.228   6.909   5.958
25059WAT      O75418   5.402   4.984   8.676
25059WAT     H175419   5.362   4.984   8.768
25059WAT     H275420   5.331   4.966   8.608
25060WAT      O75421   9.395   6.324   7.756
25060WAT     H175422   9.336   6.405   7.764
25060WAT     H275423   9.490   6.352   7.765
25061WAT      O75424   4.832   8.844   8.146
25061WAT     H175425   4.752   8.901   8.168
25061WAT     H275426   4.877   8.879   8.064
25062WAT      O75427   3.524   4.568   3.693
25062WAT     H175428   3.556   4.477   3.665
25062WAT     H275429   3.599   4.618   3.737
25063WAT      O75430   1.575   7.249   9.155
25063WAT     H175431   1.546   7.185   9.084
25063WAT     H275432   1.617   7.329   9.113
25064WAT      O75433   6.364   7.924   5.503
25064WAT     H175434   6.302   7.878   5.439
25064WAT     H275435   6.405   8.004   5.459
25065WAT      O75436   2.834   0.983   5.388
25065WAT     H175437   2.779   0.956   5.467
25065WAT     H275438   2.927   1.004   5.419
25066WAT      O75439   2.307   0.938   7.922
25066WAT     H175440   2.371   0.992   7.976
25066WAT     H275441   2.333   0.842   7.924
25067WAT      O75442   9.236   5.229   4.921
25067WAT     H175443   9.245   5.224   4.822
25067WAT     H275444   9.155   5.282   4.945
25068WAT      O75445   1.505   5.192   7.555
25068WAT     H175446   1.427   5.246   7.588
25068WAT     H275447   1.472   5.120   7.493
25069WAT      O75448   4.853   1.031   7.745
25069WAT     H175449   4.849   1.023   7.645
25069WAT     H275450   4.833   1.125   7.771
25070WAT      O75451   5.161   2.256   2.617
25070WAT     H175452   5.208   2.175   2.652
25070WAT     H275453   5.227   2.317   2.573
25071WAT      O75454   1.942   2.343   8.971
25071WAT     H175455   1.968   2.251   9.003
25071WAT     H275456   1.865   2.336   8.908
25072WAT      O75457   2.161   2.646   5.557
25072WAT     H175458   2.221   2.638   5.637
25072WAT     H275459   2.141   2.554   5.522
25073WAT      O75460   5.977   6.094   9.557
25073WAT     H175461   5.934   6.149   9.486
25073WAT     H275462   6.022   6.153   9.623
25074WAT      O75463   5.154   6.492   3.055
25074WAT     H175464   5.079   6.553   3.028
25074WAT     H275465   5.118   6.401   3.077
25075WAT      O75466   8.186   1.669   0.506
25075WAT     H175467   8.137   1.606   0.566
25075WAT     H275468   8.215   1.621   0.423
25076WAT      O75469   6.033   6.163   5.796
25076WAT     H175470   6.022   6.234   5.866
25076WAT     H275471   6.113   6.184   5.740
25077WAT      O75472   8.546   0.164   4.552
25077WAT     H175473   8.569   0.262   4.545
25077WAT     H275474   8.605   0.112   4.490
25078WAT      O75475   0.832   9.016   0.915
25078WAT     H175476   0.924   9.052   0.922
25078WAT     H275477   0.786   9.025   1.004
25079WAT      O75478   5.748   9.461   5.830
25079WAT     H175479   5.790   9.501   5.748
25079WAT     H275480   5.817   9.411   5.882
25080WAT      O75481   1.221   3.962   8.982
25080WAT     H175482   1.187   4.043   9.029
25080WAT     H275483   1.177   3.881   9.018
25081WAT      O75484   4.602   4.338   4.719
25081WAT     H175485   4.580   4.275   4.645
25081WAT     H275486   4.687   4.309   4.763
25082WAT      O75487   9.722   4.286   4.208
25082WAT     H175488   9.628   4.318   4.221
25082WAT     H275489   9.769   4.348   4.145
25083WAT      O75490   3.613   5.364   4.504
25083WAT     H175491   3.583   5.377   4.599
25083WAT     H275492   3.682   5.433   4.482
25084WAT      O75493   5.975   1.438   9.749
25084WAT     H175494   6.035   1.377   9.696
25084WAT     H275495   5.951   1.517   9.693
25085WAT      O75496   7.449   5.397   9.541
25085WAT     H175497   7.508   5.384   9.621
25085WAT     H275498   7.424   5.308   9.503
25086WAT      O75499   4.665   0.714   9.297
25086WAT     H175500   4.620   0.625   9.308
25086WAT     H275501   4.608   0.774   9.240
25087WAT      O75502   0.721   4.034   4.932
25087WAT     H175503   0.760   3.944   4.916
25087WAT     H275504   0.780   4.086   4.994
25088WAT      O75505   1.082   8.238   9.095
25088WAT     H175506   1.081   8.268   9.000
25088WAT     H275507   0.994   8.261   9.137
25089WAT      O75508   0.729   4.453   1.189
25089WAT     H175509   0.718   4.464   1.091
25089WAT     H275510   0.670   4.518   1.237
25090WAT      O75511   1.638   5.154   8.360
25090WAT     H175512   1.589   5.233   8.396
25090WAT     H275513   1.657   5.167   8.263
25091WAT      O75514   6.583   2.247   4.707
25091WAT     H175515   6.642   2.235   4.627
25091WAT     H275516   6.540   2.337   4.703
25092WAT      O75517   6.428   6.595   4.467
25092WAT     H175518   6.432   6.620   4.370
25092WAT     H275519   6.491   6.519   4.484
25093WAT      O75520   8.775   0.035   2.748
25093WAT     H175521   8.831  -0.018   2.684
25093WAT     H275522   8.723  -0.027   2.806
25094WAT      O75523   6.575   3.381   4.831
25094WAT     H175524   6.657   3.435   4.847
25094WAT     H275525   6.495   3.441   4.829
25095WAT      O75526   6.114   7.052   4.719
25095WAT     H175527   6.198   7.071   4.770
25095WAT     H275528   6.042   7.115   4.750
25096WAT      O75529   5.971   0.101   5.416
25096WAT     H175530   6.067   0.086   5.438
25096WAT     H275531   5.964   0.132   5.321
25097WAT      O75532   1.898   0.626   0.382
25097WAT     H175533   1.991   0.646   0.413
25097WAT     H275534   1.842   0.599   0.460
25098WAT      O75535   5.228   5.931   1.181
25098WAT     H175536   5.294   5.899   1.113
25098WAT     H275537   5.241   6.028   1.197
25099WAT      O75538   1.599   4.316   8.939
25099WAT     H175539   1.524   4.338   9.001
25099WAT     H275540   1.673   4.383   8.951
25100WAT      O75541   9.109   2.834   7.806
25100WAT     H175542   9.060   2.908   7.759
25100WAT     H275543   9.137   2.866   7.897
25101WAT      O75544   4.426   9.593   6.937
25101WAT     H175545   4.349   9.586   6.873
25101WAT     H275546   4.468   9.683   6.929
25102WAT      O75547   2.720   8.646   5.518
25102WAT     H175548   2.746   8.684   5.607
25102WAT     H275549   2.697   8.549   5.529
25103WAT      O75550   5.909   5.047   8.148
25103WAT     H175551   5.977   5.120   8.158
25103WAT     H275552   5.923   5.000   8.060
25104WAT      O75553   5.156   9.331   1.111
25104WAT     H175554   5.106   9.401   1.060
25104WAT     H275555   5.149   9.350   1.209
25105WAT      O75556   6.888   6.496   8.266
25105WAT     H175557   6.824   6.562   8.307
25105WAT     H275558   6.977   6.504   8.310
25106WAT      O75559   0.314   5.163   8.097
25106WAT     H175560   0.290   5.256   8.126
25106WAT     H275561   0.289   5.098   8.169
25107WAT      O75562   5.561   3.790   2.819
25107WAT     H175563   5.461   3.783   2.828
25107WAT     H275564   5.604   3.748   2.898
25108WAT      O75565   1.661   3.930   5.709
25108WAT     H175566   1.672   3.944   5.611
25108WAT     H275567   1.714   3.850   5.738
25109WAT      O75568   7.413   2.427   2.153
25109WAT     H175569   7.389   2.406   2.058
25109WAT     H275570   7.511   2.410   2.167
25110WAT      O75571   6.464   9.798   0.087
25110WAT     H175572   6.551   9.776   0.044
25110WAT     H275573   6.441   9.894   0.069
25111WAT      O75574   8.299   1.565   8.579
25111WAT     H175575   8.260   1.502   8.512
25111WAT     H275576   8.269   1.539   8.671
25112WAT      O75577   4.880   0.803   7.890
25112WAT     H175578   4.978   0.798   7.912
25112WAT     H275579   4.862   0.885   7.836
25113WAT      O75580   0.351   6.003   1.256
25113WAT     H175581   0.412   5.932   1.291
25113WAT     H275582   0.369   6.018   1.159
25114WAT      O75583   6.749   9.480   1.547
25114WAT     H175584   6.663   9.526   1.563
25114WAT     H275585   6.804   9.533   1.483
25115WAT      O75586   6.991   8.208   8.044
25115WAT     H175587   6.964   8.112   8.048
25115WAT     H275588   7.040   8.233   8.128
25116WAT      O75589   7.869   8.199   2.973
25116WAT     H175590   7.897   8.217   3.067
25116WAT     H275591   7.941   8.229   2.910
25117WAT      O75592   7.309   6.148   9.042
25117WAT     H175593   7.364   6.095   9.106
25117WAT     H275594   7.253   6.086   8.987
25118WAT      O75595   5.517   9.491   1.737
25118WAT     H175596   5.605   9.536   1.746
25118WAT     H275597   5.467   9.499   1.824
25119WAT      O75598   8.037   8.953   3.921
25119WAT     H175599   8.133   8.936   3.902
25119WAT     H275600   8.028   9.016   3.998
25120WAT      O75601   9.622   1.972   7.072
25120WAT     H175602   9.554   1.923   7.017
25120WAT     H275603   9.695   1.909   7.099
25121WAT      O75604   5.438   9.327   5.356
25121WAT     H175605   5.459   9.423   5.339
25121WAT     H275606   5.383   9.319   5.440
25122WAT      O75607   0.264   5.857   2.282
25122WAT     H175608   0.263   5.791   2.207
25122WAT     H275609   0.330   5.827   2.352
25123WAT      O75610   5.542   1.046   8.442
25123WAT     H175611   5.509   0.970   8.387
25123WAT     H275612   5.637   1.028   8.469
25124WAT      O75613   8.619   3.066   9.748
25124WAT     H175614   8.561   3.148   9.742
25124WAT     H275615   8.632   3.042   9.845
25125WAT      O75616   3.348   0.219   5.690
25125WAT     H175617   3.264   0.204   5.742
25125WAT     H275618   3.355   0.149   5.618
25126WAT      O75619   7.131   4.366   5.719
25126WAT     H175620   7.114   4.437   5.787
25126WAT     H275621   7.062   4.371   5.647
25127WAT      O75622   6.862   9.136   7.270
25127WAT     H175623   6.782   9.108   7.322
25127WAT     H275624   6.932   9.065   7.276
25128WAT      O75625   4.346   8.121   6.418
25128WAT     H175626   4.422   8.128   6.353
25128WAT     H275627   4.287   8.200   6.410
25129WAT      O75628   7.199   4.510   1.808
25129WAT     H175629   7.294   4.484   1.794
25129WAT     H275630   7.140   4.431   1.794
25130WAT      O75631   7.457   1.429   4.908
25130WAT     H175632   7.477   1.444   5.005
25130WAT     H275633   7.371   1.474   4.885
25131WAT      O75634   7.229   7.555   3.090
25131WAT     H175635   7.265   7.462   3.082
25131WAT     H275636   7.281   7.604   3.160
25132WAT      O75637   0.753   0.508   1.290
25132WAT     H175638   0.835   0.488   1.344
25132WAT     H275639   0.682   0.545   1.350
25133WAT      O75640   7.554   8.699   9.093
25133WAT     H175641   7.570   8.619   9.034
25133WAT     H275642   7.609   8.691   9.176
25134WAT      O75643   0.204   5.537   0.836
25134WAT     H175644   0.187   5.627   0.795
25134WAT     H275645   0.250   5.479   0.770
25135WAT      O75646   7.638   5.958   7.196
25135WAT     H175647   7.610   5.922   7.106
25135WAT     H275648   7.648   5.883   7.260
25136WAT      O75649   8.126   3.442   5.353
25136WAT     H175650   8.065   3.507   5.397
25136WAT     H275651   8.095   3.425   5.260
25137WAT      O75652   1.276   3.843   4.029
25137WAT     H175653   1.192   3.847   4.083
25137WAT     H275654   1.336   3.919   4.053
25138WAT      O75655   8.252   8.612   1.387
25138WAT     H175656   8.262   8.698   1.338
25138WAT     H275657   8.257   8.536   1.323
25139WAT      O75658   8.479   5.508   9.680
25139WAT     H175659   8.415   5.474   9.611
25139WAT     H275660   8.535   5.581   9.641
25140WAT      O75661   2.954   1.241   0.567
25140WAT     H175662   3.022   1.285   0.626
25140WAT     H275663   2.938   1.298   0.487
25141WAT      O75664   3.870   8.921   5.620
25141WAT     H175665   3.828   8.917   5.529
25141WAT     H275666   3.803   8.957   5.686
25142WAT      O75667   7.775   6.232   0.510
25142WAT     H175668   7.789   6.157   0.575
25142WAT     H275669   7.677   6.248   0.498
25143WAT      O75670   5.057   8.891   2.340
25143WAT     H175671   5.060   8.847   2.250
25143WAT     H275672   4.995   8.970   2.336
25144WAT      O75673   5.251   2.218   8.838
25144WAT     H175674   5.227   2.290   8.772
25144WAT     H275675   5.175   2.154   8.845
25145WAT      O75676   8.749   5.279   5.827
25145WAT     H175677   8.692   5.215   5.774
25145WAT     H275678   8.712   5.287   5.920
25146WAT      O75679   3.537   3.090   4.989
25146WAT     H175680   3.458   3.090   4.928
25146WAT     H275681   3.585   3.177   4.982
25147WAT      O75682   6.613   4.204   0.120
25147WAT     H175683   6.626   4.260   0.202
25147WAT     H275684   6.671   4.122   0.127
25148WAT      O75685   7.540   8.643   8.810
25148WAT     H175686   7.576   8.732   8.839
25148WAT     H275687   7.614   8.590   8.768
25149WAT      O75688   9.385   7.441   3.075
25149WAT     H175689   9.339   7.354   3.057
25149WAT     H275690   9.455   7.428   3.146
25150WAT      O75691   3.592   4.699   4.004
25150WAT     H175692   3.645   4.632   3.951
25150WAT     H275693   3.510   4.655   4.040
25151WAT      O75694   8.277   2.287   7.070
25151WAT     H175695   8.244   2.371   7.114
25151WAT     H275696   8.205   2.218   7.071
25152WAT      O75697   9.826   4.706   3.627
25152WAT     H175698   9.828   4.613   3.665
25152WAT     H275699   9.734   4.727   3.595
25153WAT      O75700   2.911   4.423   6.976
25153WAT     H175701   2.941   4.443   6.883
25153WAT     H275702   2.991   4.409   7.035
25154WAT      O75703   5.755   1.505   8.037
25154WAT     H175704   5.676   1.548   8.080
25154WAT     H275705   5.748   1.406   8.046
25155WAT      O75706   4.546   1.471   0.285
25155WAT     H175707   4.607   1.432   0.354
25155WAT     H275708   4.599   1.529   0.223
25156WAT      O75709   0.504   0.279   9.040
25156WAT     H175710   0.566   0.343   9.086
25156WAT     H275711   0.473   0.210   9.106
25157WAT      O75712   0.952   8.857   3.002
25157WAT     H175713   1.003   8.834   2.919
25157WAT     H275714   1.005   8.921   3.057
25158WAT      O75715   6.870   6.182   4.562
25158WAT     H175716   6.970   6.184   4.554
25158WAT     H275717   6.838   6.265   4.608
25159WAT      O75718   7.809   0.383   5.757
25159WAT     H175719   7.885   0.444   5.777
25159WAT     H275720   7.743   0.385   5.832
25160WAT      O75721   1.884   9.725   8.550
25160WAT     H175722   1.884   9.632   8.586
25160WAT     H275723   1.817   9.780   8.600
25161WAT      O75724   5.305   6.464   4.919
25161WAT     H175725   5.261   6.507   4.997
25161WAT     H275726   5.400   6.443   4.942
25162WAT      O75727   5.204   3.007   7.376
25162WAT     H175728   5.115   3.012   7.421
25162WAT     H275729   5.220   3.091   7.324
25163WAT      O75730   1.489   7.061   7.726
25163WAT     H175731   1.434   6.985   7.693
25163WAT     H275732   1.448   7.099   7.809
25164WAT      O75733   3.988   7.226   1.345
25164WAT     H175734   3.922   7.181   1.284
25164WAT     H275735   4.043   7.291   1.292
25165WAT      O75736   4.564   3.433   6.481
25165WAT     H175737   4.465   3.438   6.487
25165WAT     H275738   4.591   3.373   6.406
25166WAT      O75739   3.326   2.401   3.924
25166WAT     H175740   3.342   2.476   3.988
25166WAT     H275741   3.344   2.314   3.969
25167WAT      O75742   7.341   3.081   4.645
25167WAT     H175743   7.351   3.002   4.705
25167WAT     H275744   7.412   3.148   4.665
25168WAT      O75745   6.755   4.439   4.894
25168WAT     H175746   6.815   4.453   4.815
25168WAT     H275747   6.687   4.512   4.896
25169WAT      O75748   2.873   5.347   7.912
25169WAT     H175749   2.812   5.416   7.872
25169WAT     H275750   2.880   5.363   8.011
25170WAT      O75751   1.829   4.803   8.567
25170WAT     H175752   1.737   4.829   8.539
25170WAT     H275753   1.892   4.813   8.490
25171WAT      O75754   3.081   4.547   6.478
25171WAT     H175755   3.135   4.624   6.444
25171WAT     H275756   3.095   4.468   6.418
25172WAT      O75757   4.400   8.862   0.527
25172WAT     H175758   4.384   8.778   0.476
25172WAT     H275759   4.321   8.882   0.585
25173WAT      O75760   3.694   2.506   9.424
25173WAT     H175761   3.748   2.422   9.423
25173WAT     H275762   3.709   2.555   9.510
25174WAT      O75763   3.739   3.017   1.152
25174WAT     H175764   3.799   3.085   1.109
25174WAT     H275765   3.671   2.986   1.086
25175WAT      O75766   5.945   6.566   7.618
25175WAT     H175767   6.043   6.584   7.614
25175WAT     H275768   5.903   6.622   7.690
25176WAT      O75769   6.683   2.255   3.182
25176WAT     H175770   6.642   2.227   3.269
25176WAT     H275771   6.756   2.191   3.157
25177WAT      O75772   2.454   9.078   9.821
25177WAT     H175773   2.373   9.057   9.876
25177WAT     H275774   2.510   9.147   9.868
25178WAT      O75775   7.467   2.763   3.462
25178WAT     H175776   7.493   2.858   3.481
25178WAT     H275777   7.550   2.707   3.460
25179WAT      O75778   3.011   6.809   1.211
25179WAT     H175779   3.033   6.857   1.296
25179WAT     H275780   3.070   6.842   1.138
25180WAT      O75781   8.745   8.989   2.102
25180WAT     H175782   8.747   9.007   2.004
25180WAT     H275783   8.823   9.035   2.145
25181WAT      O75784   8.147   2.827   7.595
25181WAT     H175785   8.202   2.779   7.664
25181WAT     H275786   8.055   2.789   7.594
25182WAT      O75787   3.911   4.286   8.546
25182WAT     H175788   3.815   4.265   8.529
25182WAT     H275789   3.937   4.250   8.636
25183WAT      O75790   0.113   7.543   1.718
25183WAT     H175791   0.172   7.624   1.716
25183WAT     H275792   0.018   7.572   1.727
25184WAT      O75793   2.798   0.873   2.813
25184WAT     H175794   2.876   0.903   2.758
25184WAT     H275795   2.829   0.804   2.879
25185WAT      O75796   7.656   7.659   3.230
25185WAT     H175797   7.607   7.581   3.192
25185WAT     H275798   7.610   7.690   3.313
25186WAT      O75799   7.311   4.168   9.480
25186WAT     H175800   7.312   4.107   9.401
25186WAT     H275801   7.353   4.255   9.456
25187WAT      O75802   6.055   8.146   2.329
25187WAT     H175803   5.989   8.217   2.304
25187WAT     H275804   6.019   8.092   2.406
25188WAT      O75805   7.229   2.372   0.830
25188WAT     H175806   7.251   2.430   0.908
25188WAT     H275807   7.281   2.402   0.750
25189WAT      O75808   0.268   4.620   6.640
25189WAT     H175809   0.193   4.682   6.664
25189WAT     H275810   0.312   4.588   6.724
25190WAT      O75811   5.140   1.489   7.765
25190WAT     H175812   5.095   1.451   7.845
25190WAT     H275813   5.153   1.588   7.777
25191WAT      O75814   3.949   7.135   1.806
25191WAT     H175815   4.047   7.144   1.789
25191WAT     H275816   3.898   7.188   1.738
25192WAT      O75817   2.471   0.581   3.487
25192WAT     H175818   2.414   0.518   3.541
25192WAT     H275819   2.568   0.567   3.511
25193WAT      O75820   3.557   7.103   2.567
25193WAT     H175821   3.562   7.175   2.497
25193WAT     H275822   3.640   7.106   2.623
25194WAT      O75823   9.716   4.631   9.387
25194WAT     H175824   9.806   4.614   9.426
25194WAT     H275825   9.661   4.683   9.452
25195WAT      O75826   6.101   9.569   3.287
25195WAT     H175827   6.127   9.605   3.197
25195WAT     H275828   6.007   9.537   3.284
25196WAT      O75829   5.795   4.198   9.874
25196WAT     H175830   5.836   4.165   9.789
25196WAT     H275831   5.729   4.270   9.854
25197WAT      O75832   8.215   4.411   4.291
25197WAT     H175833   8.238   4.398   4.388
25197WAT     H275834   8.167   4.331   4.257
25198WAT      O75835   4.066   0.050   5.179
25198WAT     H175836   4.014   0.096   5.106
25198WAT     H275837   4.047  -0.048   5.176
25199WAT      O75838   6.291   2.552   2.162
25199WAT     H175839   6.268   2.638   2.117
25199WAT     H275840   6.207   2.507   2.193
25200WAT      O75841   1.977   3.023   0.415
25200WAT     H175842   1.986   3.007   0.514
25200WAT     H275843   2.044   3.092   0.387
25201WAT      O75844   8.975   3.511   1.408
25201WAT     H175845   8.966   3.487   1.505
25201WAT     H275846   9.033   3.592   1.399
25202WAT      O75847   0.053   0.397   2.150
25202WAT     H175848  -0.008   0.320   2.133
25202WAT     H275849   0.146   0.373   2.121
25203WAT      O75850   7.787   3.073   6.679
25203WAT     H175851   7.738   3.041   6.760
25203WAT     H275852   7.810   3.170   6.689
25204WAT      O75853   1.873   0.130   4.428
25204WAT     H175854   1.819   0.051   4.397
25204WAT     H275855   1.851   0.149   4.523
25205WAT      O75856   9.152   2.341   4.670
25205WAT     H175857   9.129   2.373   4.579
25205WAT     H275858   9.206   2.410   4.718
25206WAT      O75859   9.003   0.349   6.916
25206WAT     H175860   9.078   0.416   6.912
25206WAT     H275861   8.969   0.333   6.824
25207WAT      O75862   7.768   6.751   1.480
25207WAT     H175863   7.750   6.716   1.388
25207WAT     H275864   7.762   6.677   1.546
25208WAT      O75865   4.944   1.479   8.498
25208WAT     H175866   5.017   1.537   8.460
25208WAT     H275867   4.984   1.398   8.540
25209WAT      O75868   3.768   7.521   3.228
25209WAT     H175869   3.758   7.552   3.322
25209WAT     H275870   3.696   7.561   3.171
25210WAT      O75871   3.756   9.447   7.914
25210WAT     H175872   3.680   9.419   7.856
25210WAT     H275873   3.835   9.388   7.896
25211WAT      O75874   1.020   9.445   8.947
25211WAT     H175875   1.012   9.410   9.041
25211WAT     H275876   1.093   9.395   8.899
25212WAT      O75877   1.286   1.187   5.878
25212WAT     H175878   1.301   1.252   5.952
25212WAT     H275879   1.198   1.205   5.834
25213WAT      O75880   0.439   3.862   8.549
25213WAT     H175881   0.340   3.864   8.562
25213WAT     H275882   0.476   3.953   8.568
25214WAT      O75883   0.224   6.723   9.249
25214WAT     H175884   0.241   6.720   9.151
25214WAT     H275885   0.289   6.665   9.297
25215WAT      O75886   0.137   8.530   1.099
25215WAT     H175887   0.176   8.520   1.190
25215WAT     H275888   0.203   8.574   1.038
25216WAT      O75889   1.383   9.136   5.504
25216WAT     H175890   1.343   9.227   5.493
25216WAT     H275891   1.379   9.109   5.601
25217WAT      O75892   1.128   3.079   0.695
25217WAT     H175893   1.064   3.138   0.745
25217WAT     H275894   1.214   3.127   0.683
25218WAT      O75895   2.921   5.782   8.124
25218WAT     H175896   2.865   5.746   8.049
25218WAT     H275897   3.000   5.722   8.139
25219WAT      O75898   7.748   0.018   0.233
25219WAT     H175899   7.789  -0.034   0.308
25219WAT     H275900   7.655   0.046   0.258
25220WAT      O75901   7.527   0.493   8.694
25220WAT     H175902   7.535   0.542   8.781
25220WAT     H275903   7.585   0.537   8.626
25221WAT      O75904   5.723   5.836   2.713
25221WAT     H175905   5.774   5.907   2.664
25221WAT     H275906   5.650   5.879   2.767
25222WAT      O75907   2.861   0.052   0.661
25222WAT     H175908   2.820  -0.013   0.596
25222WAT     H275909   2.797   0.126   0.680
25223WAT      O75910   2.790   7.485   4.260
25223WAT     H175911   2.710   7.464   4.317
25223WAT     H275912   2.762   7.488   4.164
25224WAT      O75913   7.594   8.970   7.050
25224WAT     H175914   7.552   8.958   7.140
25224WAT     H275915   7.524   8.999   6.985
25225WAT      O75916   3.328   8.698   0.627
25225WAT     H175917   3.356   8.714   0.721
25225WAT     H275918   3.233   8.725   0.615
25226WAT      O75919   0.618   5.451   4.789
25226WAT     H175920   0.686   5.521   4.812
25226WAT     H275921   0.588   5.466   4.695
25227WAT      O75922   5.498   1.953   4.480
25227WAT     H175923   5.495   1.935   4.579
25227WAT     H275924   5.593   1.959   4.450
25228WAT      O75925   4.700   7.818   7.859
25228WAT     H175926   4.711   7.847   7.954
25228WAT     H275927   4.664   7.725   7.856
25229WAT      O75928   1.765   6.918   1.511
25229WAT     H175929   1.682   6.876   1.473
25229WAT     H275930   1.740   7.003   1.557
25230WAT      O75931   7.427   0.597   4.474
25230WAT     H175932   7.499   0.590   4.404
25230WAT     H275933   7.379   0.510   4.480
25231WAT      O75934   5.542   6.008   9.157
25231WAT     H175935   5.477   6.083   9.142
25231WAT     H275936   5.614   6.013   9.088
25232WAT      O75937   9.200   0.361   2.010
25232WAT     H175938   9.197   0.439   2.073
25232WAT     H275939   9.150   0.284   2.050
25233WAT      O75940   3.627   4.171   7.338
25233WAT     H175941   3.554   4.128   7.284
25233WAT     H275942   3.591   4.251   7.385
25234WAT      O75943   8.169   7.328   9.454
25234WAT     H175944   8.143   7.411   9.503
25234WAT     H275945   8.130   7.249   9.500
25235WAT      O75946   9.519   3.659   1.040
25235WAT     H175947   9.513   3.559   1.042
25235WAT     H275948   9.460   3.697   1.111
25236WAT      O75949   5.684   7.116   7.844
25236WAT     H175950   5.692   7.022   7.876
25236WAT     H275951   5.657   7.116   7.747
25237WAT      O75952   6.515   0.340   0.676
25237WAT     H175953   6.600   0.344   0.729
25237WAT     H275954   6.449   0.283   0.724
25238WAT      O75955   3.591   0.882   1.277
25238WAT     H175956   3.556   0.906   1.187
25238WAT     H275957   3.648   0.957   1.312
25239WAT      O75958   0.443   2.473   8.928
25239WAT     H175959   0.356   2.431   8.903
25239WAT     H275960   0.512   2.450   8.861
25240WAT      O75961   6.550   4.333   0.360
25240WAT     H175962   6.497   4.418   0.356
25240WAT     H275963   6.499   4.265   0.414
25241WAT      O75964   9.303   6.398   9.715
25241WAT     H175965   9.387   6.422   9.666
25241WAT     H275966   9.229   6.458   9.685
25242WAT      O75967   5.885   6.391   7.420
25242WAT     H175968   5.817   6.335   7.467
25242WAT     H275969   5.918   6.463   7.482
25243WAT      O75970   4.050   6.846   3.085
25243WAT     H175971   4.150   6.837   3.082
25243WAT     H275972   4.025   6.942   3.074
25244WAT      O75973   1.220   7.762   5.828
25244WAT     H175974   1.256   7.852   5.801
25244WAT     H275975   1.232   7.749   5.926
25245WAT      O75976   5.162   1.149   9.134
25245WAT     H175977   5.178   1.187   9.225
25245WAT     H275978   5.240   1.170   9.075
25246WAT      O75979   2.499   2.840   6.376
25246WAT     H175980   2.418   2.781   6.370
25246WAT     H275981   2.538   2.833   6.468
25247WAT      O75982   1.747   5.628   7.010
25247WAT     H175983   1.763   5.689   6.933
25247WAT     H275984   1.813   5.553   7.007
25248WAT      O75985   0.299   5.065   4.832
25248WAT     H175986   0.201   5.069   4.854
25248WAT     H275987   0.345   5.146   4.867
25249WAT      O75988   7.197   3.013   9.620
25249WAT     H175989   7.294   3.006   9.597
25249WAT     H275990   7.176   3.107   9.647
25250WAT      O75991   8.326   4.843   6.609
25250WAT     H175992   8.336   4.921   6.671
25250WAT     H275993   8.320   4.876   6.515
25251WAT      O75994   2.277   8.830   2.476
25251WAT     H175995   2.188   8.870   2.498
25251WAT     H275996   2.350   8.890   2.507
25252WAT      O75997   8.317   7.952   2.418
25252WAT     H175998   8.388   8.018   2.393
25252WAT     H275999   8.256   7.994   2.486
25253WAT      O76000   5.890   3.632   4.964
25253WAT     H176001   5.823   3.584   4.907
25253WAT     H276002   5.872   3.612   5.060
25254WAT      O76003   2.063   0.123   7.061
25254WAT     H176004   2.041   0.030   7.034
25254WAT     H276005   2.007   0.188   7.009
25255WAT      O76006   2.434   9.696   3.058
25255WAT     H176007   2.411   9.616   3.113
25255WAT     H276008   2.533   9.702   3.047
25256WAT      O76009   8.595   5.281   9.744
25256WAT     H176010   8.548   5.366   9.722
25256WAT     H276011   8.528   5.209   9.763
25257WAT      O76012   2.198   9.158   0.613
25257WAT     H176013   2.286   9.178   0.655
25257WAT     H276014   2.205   9.166   0.513
25258WAT      O76015   6.806   8.066   8.756
25258WAT     H176016   6.845   8.149   8.798
25258WAT     H276017   6.714   8.050   8.793
25259WAT      O76018   9.663   7.786   1.444
25259WAT     H176019   9.589   7.854   1.446
25259WAT     H276020   9.745   7.825   1.485
25260WAT      O76021   3.943   0.798   5.733
25260WAT     H176022   4.003   0.765   5.660
25260WAT     H276023   3.866   0.734   5.744
25261WAT      O76024   8.483   8.868   2.012
25261WAT     H176025   8.472   8.967   2.005
25261WAT     H276026   8.569   8.847   2.058
25262WAT      O76027   4.542   1.818   0.907
25262WAT     H176028   4.479   1.883   0.865
25262WAT     H276029   4.534   1.730   0.861
25263WAT      O76030   0.315   6.847   5.750
25263WAT     H176031   0.262   6.897   5.819
25263WAT     H276032   0.329   6.904   5.670
25264WAT      O76033   4.569   5.290   3.715
25264WAT     H176034   4.646   5.335   3.671
25264WAT     H276035   4.540   5.344   3.795
25265WAT      O76036   0.086   5.914   6.134
25265WAT     H176037   0.053   6.005   6.157
25265WAT     H276038   0.082   5.902   6.035
25266WAT      O76039   1.055   3.243   7.826
25266WAT     H176040   1.130   3.178   7.811
25266WAT     H276041   0.989   3.235   7.752
25267WAT      O76042   6.532   3.467   7.333
25267WAT     H176043   6.563   3.426   7.247
25267WAT     H276044   6.608   3.474   7.396
25268WAT      O76045   2.500   0.375   3.196
25268WAT     H176046   2.444   0.292   3.188
25268WAT     H276047   2.501   0.405   3.291
25269WAT      O76048   3.867   0.667   6.701
25269WAT     H176049   3.789   0.690   6.759
25269WAT     H276050   3.929   0.746   6.695
25270WAT      O76051   3.369   8.438   0.558
25270WAT     H176052   3.402   8.527   0.591
25270WAT     H276053   3.416   8.415   0.473
25271WAT      O76054   3.676   1.762   0.790
25271WAT     H176055   3.588   1.731   0.752
25271WAT     H276056   3.665   1.779   0.888
25272WAT      O76057   6.904   1.456   1.627
25272WAT     H176058   6.968   1.386   1.660
25272WAT     H276059   6.875   1.513   1.705
25273WAT      O76060   9.045   1.650   3.829
25273WAT     H176061   9.091   1.731   3.865
25273WAT     H276062   9.000   1.601   3.903
25274WAT      O76063   3.095   6.302   4.688
25274WAT     H176064   3.037   6.381   4.709
25274WAT     H276065   3.176   6.332   4.638
25275WAT      O76066   0.361   5.290   0.737
25275WAT     H176067   0.358   5.267   0.834
25275WAT     H276068   0.438   5.351   0.719
25276WAT      O76069   2.168   4.657   4.246
25276WAT     H176070   2.203   4.742   4.205
25276WAT     H276071   2.227   4.631   4.323
25277WAT      O76072   9.428   1.696   5.737
25277WAT     H176073   9.391   1.736   5.653
25277WAT     H276074   9.524   1.673   5.724
25278WAT      O76075   0.118   1.673   4.080
25278WAT     H176076   0.032   1.674   4.131
25278WAT     H276077   0.108   1.614   4.000
25279WAT      O76078   1.091   2.884   2.284
25279WAT     H176079   1.081   2.795   2.329
25279WAT     H276080   1.182   2.892   2.245
25280WAT      O76081   4.580   7.842   8.662
25280WAT     H176082   4.677   7.852   8.687
25280WAT     H276083   4.569   7.861   8.564
25281WAT      O76084   6.756   2.462   2.137
25281WAT     H176085   6.766   2.514   2.221
25281WAT     H276086   6.673   2.407   2.141
25282WAT      O76087   5.557   2.229   6.778
25282WAT     H176088   5.501   2.260   6.855
25282WAT     H276089   5.652   2.256   6.793
25283WAT      O76090   4.148   9.684   9.087
25283WAT     H176091   4.067   9.628   9.109
25283WAT     H276092   4.230   9.632   9.108
25284WAT      O76093   3.665   7.492   0.858
25284WAT     H176094   3.658   7.394   0.836
25284WAT     H276095   3.574   7.533   0.857
25285WAT      O76096   2.196   5.630   1.925
25285WAT     H176097   2.174   5.727   1.925
25285WAT     H276098   2.252   5.608   1.845
25286WAT      O76099   6.280   8.115   6.299
25286WAT     H176100   6.235   8.192   6.345
25286WAT     H276101   6.221   8.081   6.226
25287WAT      O76102   5.399   0.939   8.679
25287WAT     H176103   5.425   1.022   8.630
25287WAT     H276104   5.477   0.905   8.731
25288WAT      O76105   1.711   2.441   8.228
25288WAT     H176106   1.613   2.456   8.243
25288WAT     H276107   1.748   2.515   8.173
25289WAT      O76108   3.165   5.861   6.504
25289WAT     H176109   3.216   5.948   6.506
25289WAT     H276110   3.200   5.804   6.430
25290WAT      O76111   4.171   2.979   2.898
25290WAT     H176112   4.222   3.030   2.829
25290WAT     H276113   4.231   2.960   2.976
25291WAT      O76114   4.557   5.831   7.452
25291WAT     H176115   4.580   5.746   7.500
25291WAT     H276116   4.457   5.839   7.445
25292WAT      O76117   8.282   6.292   1.330
25292WAT     H176118   8.222   6.371   1.341
25292WAT     H276119   8.257   6.221   1.395
25293WAT      O76120   3.519   5.625   7.727
25293WAT     H176121   3.609   5.636   7.767
25293WAT     H276122   3.526   5.571   7.643
25294WAT      O76123   6.616   6.829   2.294
25294WAT     H176124   6.696   6.872   2.253
25294WAT     H276125   6.534   6.855   2.244
25295WAT      O76126   9.320   5.141   5.214
25295WAT     H176127   9.233   5.130   5.263
25295WAT     H276128   9.303   5.189   5.128
25296WAT      O76129   6.256   7.129   8.337
25296WAT     H176130   6.187   7.172   8.278
25296WAT     H276131   6.252   7.030   8.326
25297WAT      O76132   8.371   5.116   5.966
25297WAT     H176133   8.312   5.037   5.979
25297WAT     H276134   8.465   5.086   5.949
25298WAT      O76135   5.051   8.565   6.207
25298WAT     H176136   5.039   8.640   6.272
25298WAT     H276137   4.978   8.498   6.220
25299WAT      O76138   9.872   6.435   1.687
25299WAT     H176139   9.895   6.529   1.660
25299WAT     H276140   9.787   6.408   1.642
25300WAT      O76141   3.271   8.029   2.198
25300WAT     H176142   3.301   8.124   2.184
25300WAT     H276143   3.333   7.985   2.263
25301WAT      O76144   1.790   3.244   6.976
25301WAT     H176145   1.742   3.263   7.061
25301WAT     H276146   1.787   3.324   6.917
25302WAT      O76147   4.486   3.030   5.946
25302WAT     H176148   4.580   3.063   5.952
25302WAT     H276149   4.487   2.931   5.936
25303WAT      O76150   1.955   4.812   0.809
25303WAT     H176151   1.937   4.910   0.803
25303WAT     H276152   2.036   4.790   0.754
25304WAT      O76153   7.488   0.282   2.474
25304WAT     H176154   7.502   0.303   2.571
25304WAT     H276155   7.427   0.203   2.466
25305WAT      O76156   8.240   6.655   1.191
25305WAT     H176157   8.320   6.632   1.136
25305WAT     H276158   8.202   6.742   1.159
25306WAT      O76159   4.172   6.957   4.307
25306WAT     H176160   4.110   6.898   4.256
25306WAT     H276161   4.217   6.904   4.379
25307WAT      O76162   4.787   8.033   1.950
25307WAT     H176163   4.796   8.026   2.049
25307WAT     H276164   4.744   8.120   1.927
25308WAT      O76165   7.708   3.513   1.868
25308WAT     H176166   7.801   3.490   1.840
25308WAT     H276167   7.704   3.518   1.968
25309WAT      O76168   1.373   3.972   6.810
25309WAT     H176169   1.291   3.948   6.862
25309WAT     H276170   1.411   4.058   6.846
25310WAT      O76171   0.796   8.238   2.901
25310WAT     H176172   0.721   8.253   2.836
25310WAT     H276173   0.842   8.152   2.879
25311WAT      O76174   8.759   2.533   0.737
25311WAT     H176175   8.840   2.504   0.685
25311WAT     H276176   8.788   2.562   0.829
25312WAT      O76177   9.099   4.604   7.835
25312WAT     H176178   9.072   4.683   7.779
25312WAT     H276179   9.121   4.527   7.775
25313WAT      O76180   7.673   9.086   1.126
25313WAT     H176181   7.635   9.100   1.034
25313WAT     H276182   7.675   8.988   1.146
25314WAT      O76183   8.159   3.400   2.331
25314WAT     H176184   8.101   3.388   2.251
25314WAT     H276185   8.149   3.493   2.366
25315WAT      O76186   8.389   3.761   1.658
25315WAT     H176187   8.352   3.713   1.579
25315WAT     H276188   8.316   3.814   1.702
25316WAT      O76189   5.167   4.619   8.047
25316WAT     H176190   5.176   4.615   8.146
25316WAT     H276191   5.120   4.703   8.021
25317WAT      O76192   0.105   4.661   2.363
25317WAT     H176193   0.089   4.735   2.298
25317WAT     H276194   0.129   4.699   2.452
25318WAT      O76195   3.831   7.730   9.037
25318WAT     H176196   3.813   7.666   9.112
25318WAT     H276197   3.751   7.733   8.976
25319WAT      O76198   4.064   1.983   5.427
25319WAT     H176199   4.074   1.897   5.377
25319WAT     H276200   3.972   1.989   5.465
25320WAT      O76201   2.586   2.278   9.256
25320WAT     H176202   2.517   2.212   9.284
25320WAT     H276203   2.660   2.230   9.208
25321WAT      O76204   8.716   8.593   9.556
25321WAT     H176205   8.790   8.644   9.511
25321WAT     H276206   8.756   8.533   9.625
25322WAT      O76207   7.053   5.052   6.294
25322WAT     H176208   7.136   5.016   6.335
25322WAT     H276209   7.018   4.988   6.225
25323WAT      O76210   3.522   6.584   8.100
25323WAT     H176211   3.617   6.599   8.072
25323WAT     H276212   3.507   6.629   8.188
25324WAT      O76213   2.255   8.867   0.348
25324WAT     H176214   2.253   8.855   0.447
25324WAT     H276215   2.278   8.780   0.304
25325WAT      O76216   9.059   8.653   8.084
25325WAT     H176217   9.010   8.566   8.092
25325WAT     H276218   9.012   8.712   8.019
25326WAT      O76219   4.870   5.268   9.326
25326WAT     H176220   4.809   5.229   9.257
25326WAT     H276221   4.953   5.213   9.333
25327WAT      O76222   5.678   9.191   0.905
25327WAT     H176223   5.703   9.194   0.808
25327WAT     H276224   5.751   9.145   0.956
25328WAT      O76225   5.405   7.117   4.221
25328WAT     H176226   5.467   7.142   4.147
25328WAT     H276227   5.320   7.081   4.184
25329WAT      O76228   8.825   1.347   6.212
25329WAT     H176229   8.744   1.289   6.226
25329WAT     H276230   8.814   1.432   6.262
25330WAT      O76231   7.727   0.171   3.625
25330WAT     H176232   7.759   0.094   3.679
25330WAT     H276233   7.731   0.148   3.527
25331WAT      O76234   9.103   9.395   8.613
25331WAT     H176235   9.089   9.306   8.657
25331WAT     H276236   9.197   9.400   8.579
25332WAT      O76237   9.854   1.175   0.382
25332WAT     H176238   9.853   1.222   0.294
25332WAT     H276239   9.764   1.137   0.401
25333WAT      O76240   5.242   9.451   3.410
25333WAT     H176241   5.267   9.402   3.494
25333WAT     H276242   5.290   9.410   3.333
25334WAT      O76243   1.439   0.846   4.321
25334WAT     H176244   1.353   0.850   4.372
25334WAT     H276245   1.457   0.935   4.278
25335WAT      O76246   4.356   0.722   4.908
25335WAT     H176247   4.352   0.822   4.903
25335WAT     H276248   4.452   0.693   4.909
25336WAT      O76249   6.963   7.752   9.139
25336WAT     H176250   6.879   7.802   9.119
25336WAT     H276251   6.953   7.702   9.225
25337WAT      O76252   0.351   7.404   7.363
25337WAT     H176253   0.353   7.325   7.424
25337WAT     H276254   0.434   7.406   7.307
25338WAT      O76255   1.208   0.799   5.471
25338WAT     H176256   1.207   0.791   5.372
25338WAT     H276257   1.149   0.728   5.511
25339WAT      O76258   1.994   1.384   7.536
25339WAT     H176259   2.009   1.416   7.443
25339WAT     H276260   1.938   1.451   7.586
25340WAT      O76261   4.068   7.296   0.201
25340WAT     H176262   4.077   7.326   0.106
25340WAT     H276263   3.978   7.255   0.216
25341WAT      O76264   9.150   8.814   2.528
25341WAT     H176265   9.236   8.769   2.504
25341WAT     H276266   9.145   8.826   2.627
25342WAT      O76267   7.920   7.066   2.410
25342WAT     H176268   7.822   7.050   2.422
25342WAT     H276269   7.957   7.000   2.345
25343WAT      O76270   4.467   1.411   2.772
25343WAT     H176271   4.531   1.359   2.829
25343WAT     H276272   4.511   1.434   2.685
25344WAT      O76273   3.258   7.886   6.316
25344WAT     H176274   3.347   7.868   6.274
25344WAT     H276275   3.272   7.931   6.405
25345WAT      O76276   9.112   2.146   5.462
25345WAT     H176277   9.071   2.181   5.377
25345WAT     H276278   9.108   2.046   5.461
25346WAT      O76279   0.872   9.677   2.111
25346WAT     H176280   0.850   9.607   2.043
25346WAT     H276281   0.869   9.636   2.202
25347WAT      O76282   2.909   3.748   7.977
25347WAT     H176283   2.942   3.730   8.070
25347WAT     H276284   2.988   3.754   7.915
25348WAT      O76285   3.822   1.828   2.760
25348WAT     H176286   3.817   1.897   2.833
25348WAT     H276287   3.734   1.781   2.752
25349WAT      O76288   1.058   7.352   7.338
25349WAT     H176289   1.144   7.367   7.387
25349WAT     H276290   0.988   7.412   7.375
25350WAT      O76291   1.061   0.314   3.578
25350WAT     H176292   1.082   0.309   3.676
25350WAT     H276293   1.000   0.391   3.561
25351WAT      O76294   2.739   5.503   1.463
25351WAT     H176295   2.668   5.566   1.432
25351WAT     H276296   2.763   5.440   1.389
25352WAT      O76297   0.141   4.625   4.211
25352WAT     H176298   0.087   4.554   4.166
25352WAT     H276299   0.214   4.655   4.150
25353WAT      O76300   9.397   1.442   1.523
25353WAT     H176301   9.470   1.377   1.502
25353WAT     H276302   9.314   1.415   1.475
25354WAT      O76303   2.249   7.447   3.715
25354WAT     H176304   2.317   7.486   3.653
25354WAT     H276305   2.295   7.418   3.800
25355WAT      O76306   7.939   7.065   6.488
25355WAT     H176307   7.999   7.130   6.534
25355WAT     H276308   7.973   6.972   6.503
25356WAT      O76309   8.676   2.198   7.304
25356WAT     H176310   8.644   2.277   7.252
25356WAT     H276311   8.615   2.120   7.287
25357WAT      O76312   9.727   1.225   8.441
25357WAT     H176313   9.794   1.156   8.414
25357WAT     H276314   9.659   1.183   8.501
25358WAT      O76315   6.290   9.355   1.477
25358WAT     H176316   6.359   9.426   1.469
25358WAT     H276317   6.291   9.316   1.569
25359WAT      O76318   3.347   7.766   5.828
25359WAT     H176319   3.383   7.810   5.746
25359WAT     H276320   3.423   7.744   5.890
25360WAT      O76321   7.783   1.420   0.360
25360WAT     H176322   7.814   1.330   0.393
25360WAT     H276323   7.829   1.441   0.274
25361WAT      O76324   7.885   7.563   5.797
25361WAT     H176325   7.909   7.470   5.768
25361WAT     H276326   7.900   7.572   5.895
25362WAT      O76327   4.814   8.348   9.528
25362WAT     H176328   4.848   8.404   9.604
25362WAT     H276329   4.807   8.404   9.445
25363WAT      O76330   4.920   2.225   2.479
25363WAT     H176331   4.868   2.164   2.539
25363WAT     H276332   5.004   2.253   2.525
25364WAT      O76333   5.307   1.863   5.835
25364WAT     H176334   5.369   1.933   5.871
25364WAT     H276335   5.352   1.813   5.762
25365WAT      O76336   2.121   6.276   4.133
25365WAT     H176337   2.203   6.281   4.076
25365WAT     H276338   2.106   6.363   4.179
25366WAT      O76339   3.087   5.265   1.498
25366WAT     H176340   3.091   5.170   1.467
25366WAT     H276341   2.992   5.292   1.509
25367WAT      O76342   9.119   6.191   6.746
25367WAT     H176343   9.143   6.095   6.739
25367WAT     H276344   9.150   6.227   6.834
25368WAT      O76345   0.754   5.431   5.701
25368WAT     H176346   0.742   5.528   5.680
25368WAT     H276347   0.790   5.421   5.794
25369WAT      O76348   5.732   1.624   7.300
25369WAT     H176349   5.663   1.577   7.356
25369WAT     H276350   5.686   1.675   7.227
25370WAT      O76351   5.221   6.480   4.690
25370WAT     H176352   5.249   6.460   4.784
25370WAT     H276353   5.171   6.567   4.687
25371WAT      O76354   3.859   4.385   0.234
25371WAT     H176355   3.865   4.484   0.248
25371WAT     H276356   3.876   4.363   0.138
25372WAT      O76357   0.824   6.644   7.367
25372WAT     H176358   0.791   6.663   7.275
25372WAT     H276359   0.920   6.615   7.362
25373WAT      O76360   1.315   8.802   8.013
25373WAT     H176361   1.386   8.855   7.966
25373WAT     H276362   1.325   8.813   8.112
25374WAT      O76363   0.757   5.606   1.079
25374WAT     H176364   0.664   5.612   1.117
25374WAT     H276365   0.823   5.595   1.153
25375WAT      O76366   4.910   3.992   8.872
25375WAT     H176367   4.818   3.967   8.843
25375WAT     H276368   4.977   3.942   8.817
25376WAT      O76369   4.837   5.566   3.015
25376WAT     H176370   4.841   5.466   3.017
25376WAT     H276371   4.930   5.602   3.005
25377WAT      O76372   0.480   9.320   1.824
25377WAT     H176373   0.384   9.339   1.845
25377WAT     H276374   0.488   9.290   1.729
25378WAT      O76375   2.624   5.295   8.954
25378WAT     H176376   2.603   5.297   9.051
25378WAT     H276377   2.711   5.249   8.939
25379WAT      O76378   4.326   4.889   7.782
25379WAT     H176379   4.382   4.969   7.763
25379WAT     H276380   4.372   4.807   7.748
25380WAT      O76381   5.747   7.923   9.755
25380WAT     H176382   5.686   7.911   9.833
25380WAT     H276383   5.765   7.834   9.713
25381WAT      O76384   2.364   0.347   3.590
25381WAT     H176385   2.461   0.325   3.599
25381WAT     H276386   2.311   0.290   3.654
25382WAT      O76387   4.439   4.663   9.624
25382WAT     H176388   4.388   4.693   9.543
25382WAT     H276389   4.537   4.663   9.603
25383WAT      O76390   1.458   4.092   1.639
25383WAT     H176391   1.432   4.037   1.718
25383WAT     H276392   1.388   4.084   1.568
25384WAT      O76393   8.890   8.885   1.843
25384WAT     H176394   8.836   8.821   1.897
25384WAT     H276395   8.920   8.840   1.758
25385WAT      O76396   3.918   8.986   4.307
25385WAT     H176397   3.938   8.961   4.402
25385WAT     H276398   3.962   9.073   4.286
25386WAT      O76399   1.841   0.495   5.119
25386WAT     H176400   1.880   0.499   5.211
25386WAT     H276401   1.758   0.550   5.116
25387WAT      O76402   1.644   4.664   0.969
25387WAT     H176403   1.658   4.658   0.870
25387WAT     H276404   1.670   4.754   1.002
25388WAT      O76405   7.756   5.928   1.132
25388WAT     H176406   7.743   5.859   1.061
25388WAT     H276407   7.851   5.958   1.133
25389WAT      O76408   5.927   8.606   3.811
25389WAT     H176409   5.889   8.697   3.828
25389WAT     H276410   5.853   8.541   3.792
25390WAT      O76411   8.347   4.831   4.351
25390WAT     H176412   8.322   4.880   4.435
25390WAT     H276413   8.268   4.827   4.290
25391WAT      O76414   9.009   9.515   5.560
25391WAT     H176415   9.069   9.445   5.599
25391WAT     H276416   9.057   9.566   5.489
25392WAT      O76417   6.807   4.072   5.179
25392WAT     H176418   6.906   4.068   5.176
25392WAT     H276419   6.779   4.151   5.235
25393WAT      O76420   1.216   4.829   8.707
25393WAT     H176421   1.281   4.761   8.671
25393WAT     H276422   1.219   4.911   8.649
25394WAT      O76423   8.816   4.106   9.436
25394WAT     H176424   8.900   4.111   9.489
25394WAT     H276425   8.745   4.163   9.478
25395WAT      O76426   7.946   4.541   1.782
25395WAT     H176427   7.964   4.470   1.714
25395WAT     H276428   7.969   4.631   1.743
25396WAT      O76429   0.767   4.571   6.813
25396WAT     H176430   0.840   4.509   6.784
25396WAT     H276431   0.691   4.565   6.748
25397WAT      O76432   5.526   0.127   6.545
25397WAT     H176433   5.452   0.097   6.485
25397WAT     H276434   5.572   0.047   6.584
25398WAT      O76435   6.798   1.673   9.180
25398WAT     H176436   6.791   1.714   9.271
25398WAT     H276437   6.736   1.721   9.118
25399WAT      O76438   6.662   8.108   4.860
25399WAT     H176439   6.733   8.090   4.791
25399WAT     H276440   6.689   8.186   4.916
25400WAT      O76441   5.426   3.217   8.667
25400WAT     H176442   5.353   3.252   8.725
25400WAT     H276443   5.506   3.276   8.674
25401WAT      O76444   0.029   8.056   6.537
25401WAT     H176445   0.127   8.074   6.547
25401WAT     H276446  -0.022   8.134   6.573
25402WAT      O76447   2.737   2.256   6.887
25402WAT     H176448   2.809   2.247   6.818
25402WAT     H276449   2.718   2.353   6.903
25403WAT      O76450   4.239   7.077   2.969
25403WAT     H176451   4.333   7.109   2.981
25403WAT     H276452   4.231   7.029   2.882
25404WAT      O76453   2.227   8.201   1.739
25404WAT     H176454   2.227   8.163   1.832
25404WAT     H276455   2.162   8.277   1.735
25405WAT      O76456   3.294   3.604   0.488
25405WAT     H176457   3.308   3.507   0.505
25405WAT     H276458   3.215   3.637   0.540
25406WAT      O76459   1.983   3.475   2.479
25406WAT     H176460   1.987   3.552   2.414
25406WAT     H276461   1.924   3.500   2.556
25407WAT      O76462   1.177   6.951   4.199
25407WAT     H176463   1.195   6.972   4.295
25407WAT     H276464   1.202   6.856   4.180
25408WAT      O76465   8.714   8.711   2.896
25408WAT     H176466   8.630   8.664   2.919
25408WAT     H276467   8.771   8.722   2.978
25409WAT      O76468   6.200   8.585   1.137
25409WAT     H176469   6.122   8.642   1.161
25409WAT     H276470   6.243   8.550   1.220
25410WAT      O76471   4.867   4.167   5.164
25410WAT     H176472   4.770   4.146   5.167
25410WAT     H276473   4.882   4.260   5.199
25411WAT      O76474   1.790   5.558   9.262
25411WAT     H176475   1.761   5.473   9.306
25411WAT     H276476   1.882   5.582   9.295
25412WAT      O76477   0.557   3.010   7.392
25412WAT     H176478   0.604   2.926   7.418
25412WAT     H276479   0.621   3.073   7.350
25413WAT      O76480   3.010   2.397   4.015
25413WAT     H176481   3.039   2.425   4.106
25413WAT     H276482   3.028   2.471   3.950
25414WAT      O76483   0.929   7.406   5.989
25414WAT     H176484   0.867   7.329   6.004
25414WAT     H276485   0.979   7.392   5.903
25415WAT      O76486   5.376   8.483   9.250
25415WAT     H176487   5.399   8.439   9.164
25415WAT     H276488   5.342   8.575   9.233
25416WAT      O76489   0.732   4.053   3.693
25416WAT     H176490   0.820   4.019   3.661
25416WAT     H276491   0.659   4.018   3.634
25417WAT      O76492   4.524   7.856   4.352
25417WAT     H176493   4.515   7.948   4.389
25417WAT     H276494   4.442   7.832   4.300
25418WAT      O76495   8.661   3.403   3.977
25418WAT     H176496   8.606   3.332   3.932
25418WAT     H276497   8.753   3.402   3.939
25419WAT      O76498   5.857   1.498   3.848
25419WAT     H176499   5.769   1.463   3.880
25419WAT     H276500   5.842   1.583   3.797
25420WAT      O76501   1.194   3.001   8.608
25420WAT     H176502   1.181   3.072   8.540
25420WAT     H276503   1.291   2.975   8.611
25421WAT      O76504   3.424   4.760   6.040
25421WAT     H176505   3.376   4.677   6.067
25421WAT     H276506   3.513   4.764   6.087
25422WAT      O76507   0.664   7.438   9.224
25422WAT     H176508   0.710   7.526   9.215
25422WAT     H276509   0.600   7.441   9.301
25423WAT      O76510   8.353   3.936   5.174
25423WAT     H176511   8.324   3.876   5.249
25423WAT     H276512   8.386   4.022   5.213
25424WAT      O76513   2.858   4.265   1.365
25424WAT     H176514   2.780   4.210   1.394
25424WAT     H276515   2.942   4.223   1.398
25425WAT      O76516   8.417   9.451   6.191
25425WAT     H176517   8.475   9.412   6.120
25425WAT     H276518   8.330   9.401   6.194
25426WAT      O76519   3.563   5.232   8.446
25426WAT     H176520   3.528   5.243   8.353
25426WAT     H276521   3.515   5.294   8.508
25427WAT      O76522   6.911   3.914   7.396
25427WAT     H176523   6.990   3.961   7.357
25427WAT     H276524   6.870   3.971   7.467
25428WAT      O76525   4.858   8.016   1.660
25428WAT     H176526   4.920   7.939   1.679
25428WAT     H276527   4.871   8.087   1.729
25429WAT      O76528   8.660   2.481   2.185
25429WAT     H176529   8.713   2.563   2.166
25429WAT     H276530   8.693   2.406   2.127
25430WAT      O76531   8.360   6.704   7.583
25430WAT     H176532   8.387   6.685   7.677
25430WAT     H276533   8.263   6.726   7.580
25431WAT      O76534   4.761   7.062   0.736
25431WAT     H176535   4.694   7.042   0.806
25431WAT     H276536   4.725   7.132   0.674
25432WAT      O76537   2.961   3.266   4.229
25432WAT     H176538   3.026   3.264   4.304
25432WAT     H276539   2.961   3.357   4.188
25433WAT      O76540   0.818   9.673   3.966
25433WAT     H176541   0.848   9.760   4.005
25433WAT     H276542   0.743   9.689   3.903
25434WAT      O76543   1.208   0.121   0.704
25434WAT     H176544   1.176   0.028   0.690
25434WAT     H276545   1.129   0.184   0.702
25435WAT      O76546   6.757   6.398   7.053
25435WAT     H176547   6.773   6.444   7.140
25435WAT     H276548   6.832   6.333   7.035
25436WAT      O76549   7.400   0.963   8.663
25436WAT     H176550   7.388   1.059   8.636
25436WAT     H276551   7.321   0.910   8.635
25437WAT      O76552   0.649   0.187   0.531
25437WAT     H176553   0.610   0.097   0.551
25437WAT     H276554   0.707   0.180   0.450
25438WAT      O76555   9.867   8.418   2.337
25438WAT     H176556   9.876   8.499   2.394
25438WAT     H276557   9.853   8.446   2.242
25439WAT      O76558   8.249   6.215   9.250
25439WAT     H176559   8.344   6.247   9.257
25439WAT     H276560   8.199   6.275   9.187
25440WAT      O76561   6.962   4.714   3.152
25440WAT     H176562   6.919   4.765   3.077
25440WAT     H276563   6.917   4.626   3.161
25441WAT      O76564   4.059   5.086   0.869
25441WAT     H176565   4.102   5.033   0.797
25441WAT     H276566   3.961   5.094   0.851
25442WAT      O76567   9.472   1.570   2.216
25442WAT     H176568   9.570   1.562   2.200
25442WAT     H276569   9.422   1.531   2.139
25443WAT      O76570   0.832   5.264   7.467
25443WAT     H176571   0.931   5.260   7.451
25443WAT     H276572   0.802   5.359   7.464
25444WAT      O76573   3.084   5.908   4.575
25444WAT     H176574   3.041   5.963   4.646
25444WAT     H276575   3.038   5.819   4.570
25445WAT      O76576   1.406   5.529   4.324
25445WAT     H176577   1.324   5.484   4.289
25445WAT     H276578   1.391   5.559   4.418
25446WAT      O76579   2.662   9.297   5.252
25446WAT     H176580   2.729   9.325   5.183
25446WAT     H276581   2.569   9.317   5.218
25447WAT      O76582   1.452   8.914   8.632
25447WAT     H176583   1.414   8.964   8.554
25447WAT     H276584   1.527   8.968   8.672
25448WAT      O76585   9.767   8.056   2.133
25448WAT     H176586   9.807   8.036   2.044
25448WAT     H276587   9.710   7.979   2.162
25449WAT      O76588   2.205   7.566   4.249
25449WAT     H176589   2.151   7.635   4.202
25449WAT     H276590   2.281   7.611   4.297
25450WAT      O76591   2.534   1.602   1.563
25450WAT     H176592   2.502   1.589   1.657
25450WAT     H276593   2.633   1.615   1.563
25451WAT      O76594   4.183   0.688   7.277
25451WAT     H176595   4.269   0.664   7.232
25451WAT     H276596   4.120   0.610   7.273
25452WAT      O76597   4.332   2.169   0.149
25452WAT     H176598   4.425   2.190   0.119
25452WAT     H276599   4.309   2.076   0.121
25453WAT      O76600   6.403   2.290   5.532
25453WAT     H176601   6.342   2.326   5.461
25453WAT     H276602   6.460   2.365   5.567
25454WAT      O76603   0.751   8.110   2.636
25454WAT     H176604   0.651   8.104   2.638
25454WAT     H276605   0.778   8.196   2.593
25455WAT      O76606   7.333   0.800   4.285
25455WAT     H176607   7.350   0.731   4.356
25455WAT     H276608   7.359   0.890   4.320
25456WAT      O76609   6.699   6.829   4.476
25456WAT     H176610   6.634   6.903   4.494
25456WAT     H276611   6.766   6.860   4.408
25457WAT      O76612   1.332   7.131   1.058
25457WAT     H176613   1.366   7.210   1.109
25457WAT     H276614   1.273   7.076   1.118
25458WAT      O76615   4.130   0.445   0.008
25458WAT     H176616   4.207   0.456  -0.055
25458WAT     H276617   4.062   0.517  -0.008
25459WAT      O76618   8.132   1.311   4.616
25459WAT     H176619   8.208   1.377   4.616
25459WAT     H276620   8.166   1.221   4.586
25460WAT      O76621   3.107   6.430   0.014
25460WAT     H176622   3.012   6.428  -0.018
25460WAT     H276623   3.156   6.352  -0.024
25461WAT      O76624   4.875   8.401   1.586
25461WAT     H176625   4.776   8.405   1.601
25461WAT     H276626   4.896   8.328   1.521
25462WAT      O76627   2.269   0.452   5.273
25462WAT     H176628   2.178   0.420   5.247
25462WAT     H276629   2.326   0.464   5.192
25463WAT      O76630   1.375   2.448   5.627
25463WAT     H176631   1.345   2.475   5.535
25463WAT     H276632   1.323   2.497   5.696
25464WAT      O76633   5.792   3.522   2.216
25464WAT     H176634   5.701   3.562   2.201
25464WAT     H276635   5.855   3.594   2.244
25465WAT      O76636   1.513   7.127   3.818
25465WAT     H176637   1.430   7.080   3.789
25465WAT     H276638   1.593   7.077   3.787
25466WAT      O76639   2.766   8.418   2.697
25466WAT     H176640   2.783   8.417   2.599
25466WAT     H276641   2.848   8.449   2.745
25467WAT      O76642   4.515   6.492   7.216
25467WAT     H176643   4.555   6.557   7.280
25467WAT     H276644   4.495   6.539   7.130
25468WAT      O76645   0.613   0.657   5.313
25468WAT     H176646   0.709   0.628   5.309
25468WAT     H276647   0.582   0.681   5.221
25469WAT      O76648   3.106   7.427   5.301
25469WAT     H176649   3.041   7.454   5.229
25469WAT     H276650   3.188   7.389   5.259
25470WAT      O76651   2.722   8.282   6.158
25470WAT     H176652   2.665   8.363   6.166
25470WAT     H276653   2.670   8.208   6.117
25471WAT      O76654   7.681   3.939   1.103
25471WAT     H176655   7.779   3.951   1.090
25471WAT     H276656   7.646   3.875   1.035
25472WAT      O76657   9.220   3.680   3.841
25472WAT     H176658   9.145   3.642   3.787
25472WAT     H276659   9.203   3.777   3.859
25473WAT      O76660   1.572   1.459   7.906
25473WAT     H176661   1.486   1.497   7.942
25473WAT     H276662   1.582   1.485   7.810
25474WAT      O76663   1.432   2.506   6.392
25474WAT     H176664   1.524   2.527   6.359
25474WAT     H276665   1.411   2.411   6.372
25475WAT      O76666   3.017   4.046   4.407
25475WAT     H176667   2.993   4.124   4.351
25475WAT     H276668   2.943   4.027   4.472
25476WAT      O76669   7.320   3.746   9.641
25476WAT     H176670   7.383   3.798   9.699
25476WAT     H276671   7.236   3.728   9.691
25477WAT      O76672   2.751   0.369   4.547
25477WAT     H176673   2.757   0.272   4.573
25477WAT     H276674   2.810   0.423   4.607
25478WAT      O76675   1.406   1.963   3.455
25478WAT     H176676   1.487   2.004   3.496
25478WAT     H276677   1.412   1.971   3.355
25479WAT      O76678   1.228   6.339   2.774
25479WAT     H176679   1.196   6.254   2.816
25479WAT     H276680   1.217   6.334   2.675
25480WAT      O76681   4.083   2.870   6.646
25480WAT     H176682   4.107   2.874   6.549
25480WAT     H276683   4.164   2.849   6.700
25481WAT      O76684   8.234   1.663   7.978
25481WAT     H176685   8.266   1.603   7.904
25481WAT     H276686   8.194   1.746   7.938
25482WAT      O76687   7.387   4.951   8.798
25482WAT     H176688   7.289   4.949   8.820
25482WAT     H276689   7.400   4.935   8.700
25483WAT      O76690   1.658   8.662   0.945
25483WAT     H176691   1.699   8.694   0.860
25483WAT     H276692   1.714   8.692   1.022
25484WAT      O76693   7.646   9.691   1.165
25484WAT     H176694   7.614   9.784   1.147
25484WAT     H276695   7.568   9.629   1.165
25485WAT      O76696   0.480   0.651   0.136
25485WAT     H176697   0.436   0.690   0.217
25485WAT     H276698   0.462   0.553   0.132
25486WAT      O76699   0.859   9.220   5.803
25486WAT     H176700   0.926   9.205   5.731
25486WAT     H276701   0.848   9.137   5.858
25487WAT      O76702   0.759   3.450   8.346
25487WAT     H176703   0.690   3.515   8.315
25487WAT     H276704   0.849   3.495   8.346
25488WAT      O76705   8.216   0.319   1.800
25488WAT     H176706   8.278   0.259   1.749
25488WAT     H276707   8.187   0.274   1.885
25489WAT      O76708   6.508   4.112   8.896
25489WAT     H176709   6.559   4.126   8.811
25489WAT     H276710   6.455   4.193   8.917
25490WAT      O76711   5.858   9.267   8.271
25490WAT     H176712   5.857   9.173   8.238
25490WAT     H276713   5.778   9.316   8.236
25491WAT      O76714   6.366   5.862   5.848
25491WAT     H176715   6.312   5.843   5.930
25491WAT     H276716   6.308   5.855   5.768
25492WAT      O76717   8.868   3.377   7.397
25492WAT     H176718   8.819   3.330   7.323
25492WAT     H276719   8.807   3.444   7.440
25493WAT      O76720   9.732   0.226   6.590
25493WAT     H176721   9.701   0.316   6.621
25493WAT     H276722   9.757   0.230   6.493
25494WAT      O76723   1.371   3.616   2.920
25494WAT     H176724   1.358   3.681   2.845
25494WAT     H276725   1.282   3.596   2.962
25495WAT      O76726   7.174   2.758   1.222
25495WAT     H176727   7.094   2.733   1.167
25495WAT     H276728   7.168   2.854   1.247
25496WAT      O76729   4.162   5.825   6.930
25496WAT     H176730   4.145   5.876   7.015
25496WAT     H276731   4.251   5.852   6.892
25497WAT      O76732   1.701   6.689   3.689
25497WAT     H176733   1.621   6.629   3.686
25497WAT     H276734   1.781   6.639   3.655
25498WAT      O76735   7.393   1.938   8.526
25498WAT     H176736   7.469   1.992   8.491
25498WAT     H276737   7.376   1.963   8.622
25499WAT      O76738   1.214   5.379   6.782
25499WAT     H176739   1.224   5.342   6.690
25499WAT     H276740   1.127   5.426   6.791
25500WAT      O76741   5.216   6.365   5.841
25500WAT     H176742   5.298   6.323   5.805
25500WAT     H276743   5.214   6.462   5.817
25501WAT      O76744   6.507   5.492   7.854
25501WAT     H176745   6.599   5.456   7.843
25501WAT     H276746   6.488   5.508   7.950
25502WAT      O76747   8.471   8.438   9.137
25502WAT     H176748   8.494   8.440   9.234
25502WAT     H276749   8.405   8.509   9.116
25503WAT      O76750   8.444   5.735   4.929
25503WAT     H176751   8.511   5.745   4.855
25503WAT     H276752   8.463   5.652   4.980
25504WAT      O76753   5.738   8.210   7.577
25504WAT     H176754   5.737   8.140   7.505
25504WAT     H276755   5.669   8.279   7.556
25505WAT      O76756   3.543   1.729   6.932
25505WAT     H176757   3.573   1.733   7.027
25505WAT     H276758   3.453   1.684   6.928
25506WAT      O76759   8.403   6.562   7.341
25506WAT     H176760   8.399   6.596   7.247
25506WAT     H276761   8.419   6.639   7.404
25507WAT      O76762   0.501   7.154   3.628
25507WAT     H176763   0.537   7.171   3.537
25507WAT     H276764   0.507   7.056   3.649
25508WAT      O76765   2.568   4.705   1.436
25508WAT     H176766   2.608   4.621   1.400
25508WAT     H276767   2.535   4.689   1.529
25509WAT      O76768   6.591   3.978   6.340
25509WAT     H176769   6.664   4.032   6.298
25509WAT     H276770   6.553   3.915   6.272
25510WAT      O76771   1.800   8.670   8.002
25510WAT     H176772   1.829   8.708   7.914
25510WAT     H276773   1.778   8.573   7.990
25511WAT      O76774   7.241   5.639   4.777
25511WAT     H176775   7.285   5.553   4.749
25511WAT     H276776   7.146   5.639   4.745
25512WAT      O76777   3.747   7.493   8.429
25512WAT     H176778   3.781   7.585   8.413
25512WAT     H276779   3.731   7.480   8.527
25513WAT      O76780   4.906   2.362   5.797
25513WAT     H176781   4.900   2.369   5.697
25513WAT     H276782   4.970   2.430   5.832
25514WAT      O76783   8.848   3.913   9.140
25514WAT     H176784   8.934   3.926   9.190
25514WAT     H276785   8.868   3.887   9.045
25515WAT      O76786   4.674   8.371   7.889
25515WAT     H176787   4.713   8.302   7.950
25515WAT     H276788   4.576   8.352   7.876
25516WAT      O76789   7.483   1.144   1.636
25516WAT     H176790   7.445   1.066   1.686
25516WAT     H276791   7.442   1.148   1.545
25517WAT      O76792   9.445   6.483   8.605
25517WAT     H176793   9.362   6.522   8.564
25517WAT     H276794   9.430   6.470   8.703
25518WAT      O76795   3.951   3.100   7.003
25518WAT     H176796   4.050   3.111   7.014
25518WAT     H276797   3.931   3.078   6.908
25519WAT      O76798   2.347   1.182   8.913
25519WAT     H176799   2.386   1.157   8.825
25519WAT     H276800   2.319   1.099   8.962
25520WAT      O76801   0.905   0.564   7.821
25520WAT     H176802   0.916   0.658   7.790
25520WAT     H276803   0.810   0.548   7.847
25521WAT      O76804   2.690   6.328   1.593
25521WAT     H176805   2.738   6.413   1.571
25521WAT     H276806   2.738   6.282   1.668
25522WAT      O76807   5.889   1.869   1.687
25522WAT     H176808   5.888   1.938   1.615
25522WAT     H276809   5.977   1.871   1.734
25523WAT      O76810   2.760   6.373   1.998
25523WAT     H176811   2.735   6.381   2.094
25523WAT     H276812   2.801   6.459   1.966
25524WAT      O76813   0.252   1.562   4.650
25524WAT     H176814   0.197   1.517   4.580
25524WAT     H276815   0.284   1.650   4.615
25525WAT      O76816   5.495   0.047   3.357
25525WAT     H176817   5.569   0.102   3.394
25525WAT     H276818   5.516  -0.050   3.368
25526WAT      O76819   1.476   8.924   2.326
25526WAT     H176820   1.475   8.984   2.406
25526WAT     H276821   1.533   8.844   2.345
25527WAT      O76822   6.042   0.883   5.561
25527WAT     H176823   6.000   0.972   5.581
25527WAT     H276824   5.990   0.836   5.490
25528WAT      O76825   0.058   0.570   8.477
25528WAT     H176826   0.045   0.604   8.383
25528WAT     H276827   0.137   0.510   8.480
25529WAT      O76828   5.054   9.058   7.284
25529WAT     H176829   5.092   9.030   7.372
25529WAT     H276830   5.097   9.006   7.211
25530WAT      O76831   0.982   9.286   0.023
25530WAT     H176832   1.025   9.241   0.100
25530WAT     H276833   0.932   9.367   0.054
25531WAT      O76834   6.147   6.738   0.533
25531WAT     H176835   6.234   6.750   0.579
25531WAT     H276836   6.086   6.814   0.555
25532WAT      O76837   5.936   0.472   8.174
25532WAT     H176838   6.011   0.473   8.108
25532WAT     H276839   5.973   0.464   8.266
25533WAT      O76840   9.657   3.533   6.381
25533WAT     H176841   9.559   3.529   6.400
25533WAT     H276842   9.708   3.521   6.466
25534WAT      O76843   4.437   7.114   2.513
25534WAT     H176844   4.405   7.194   2.461
25534WAT     H276845   4.373   7.038   2.499
25535WAT      O76846   7.991   4.566   0.643
25535WAT     H176847   8.039   4.605   0.565
25535WAT     H276848   7.973   4.469   0.627
25536WAT      O76849   4.744   4.890   6.609
25536WAT     H176850   4.733   4.943   6.694
25536WAT     H276851   4.719   4.948   6.531
25537WAT      O76852   4.186   8.056   9.218
25537WAT     H176853   4.283   8.045   9.195
25537WAT     H276854   4.136   7.974   9.190
25538WAT      O76855   7.110   9.134   6.755
25538WAT     H176856   7.162   9.218   6.772
25538WAT     H276857   7.106   9.117   6.656
25539WAT      O76858   3.199   5.241   1.769
25539WAT     H176859   3.207   5.222   1.672
25539WAT     H276860   3.135   5.317   1.783
25540WAT      O76861   1.795   1.548   9.074
25540WAT     H176862   1.751   1.616   9.132
25540WAT     H276863   1.849   1.593   9.004
25541WAT      O76864   6.441   2.435   1.441
25541WAT     H176865   6.381   2.363   1.405
25541WAT     H276866   6.410   2.461   1.533
25542WAT      O76867   6.739   6.709   7.064
25542WAT     H176868   6.727   6.625   7.013
25542WAT     H276869   6.837   6.728   7.076
25543WAT      O76870   7.181   4.511   4.601
25543WAT     H176871   7.185   4.610   4.586
25543WAT     H276872   7.267   4.469   4.572
25544WAT      O76873   4.211   1.231   3.682
25544WAT     H176874   4.272   1.307   3.659
25544WAT     H276875   4.251   1.145   3.650
25545WAT      O76876   8.018   0.893   8.799
25545WAT     H176877   7.993   0.937   8.713
25545WAT     H276878   7.939   0.843   8.835
25546WAT      O76879   3.820   6.868   1.744
25546WAT     H176880   3.731   6.896   1.780
25546WAT     H276881   3.885   6.943   1.755
25547WAT      O76882   2.336   3.490   1.519
25547WAT     H176883   2.413   3.461   1.576
25547WAT     H276884   2.288   3.566   1.564
25548WAT      O76885   0.066   5.561   5.732
25548WAT     H176886  -0.033   5.550   5.743
25548WAT     H276887   0.113   5.480   5.768
25549WAT      O76888   0.303   4.683   5.248
25549WAT     H176889   0.305   4.587   5.222
25549WAT     H276890   0.331   4.739   5.169
25550WAT      O76891   3.303   6.471   2.115
25550WAT     H176892   3.290   6.489   2.212
25550WAT     H276893   3.240   6.399   2.085
25551WAT      O76894   2.476   3.386   7.766
25551WAT     H176895   2.483   3.444   7.685
25551WAT     H276896   2.567   3.353   7.791
25552WAT      O76897   6.620   2.988   0.454
25552WAT     H176898   6.622   3.087   0.461
25552WAT     H276899   6.713   2.951   0.468
25553WAT      O76900   3.322   6.711   0.140
25553WAT     H176901   3.372   6.641   0.190
25553WAT     H276902   3.386   6.770   0.092
25554WAT      O76903   6.261   0.947   2.271
25554WAT     H176904   6.177   1.000   2.261
25554WAT     H276905   6.277   0.893   2.188
25555WAT      O76906   1.961   4.487   3.879
25555WAT     H176907   1.999   4.399   3.850
25555WAT     H276908   1.966   4.494   3.978
25556WAT      O76909   2.704   9.523   9.301
25556WAT     H176910   2.792   9.498   9.262
25556WAT     H276911   2.716   9.594   9.370
25557WAT      O76912   3.982   1.354   2.940
25557WAT     H176913   3.954   1.448   2.923
25557WAT     H276914   4.004   1.310   2.854
25558WAT      O76915   9.612   4.004   2.444
25558WAT     H176916   9.538   3.976   2.505
25558WAT     H276917   9.574   4.051   2.364
25559WAT      O76918   4.811   3.870   8.286
25559WAT     H176919   4.751   3.896   8.362
25559WAT     H276920   4.785   3.923   8.205
25560WAT      O76921   3.055   6.390   4.403
25560WAT     H176922   3.140   6.393   4.456
25560WAT     H276923   3.038   6.297   4.370
25561WAT      O76924   4.499   8.012   3.639
25561WAT     H176925   4.435   8.086   3.621
25561WAT     H276926   4.466   7.928   3.596
25562WAT      O76927   5.694   9.161   0.616
25562WAT     H176928   5.778   9.205   0.584
25562WAT     H276929   5.615   9.203   0.571
25563WAT      O76930   8.558   5.758   7.883
25563WAT     H176931   8.460   5.763   7.864
25563WAT     H276932   8.575   5.792   7.976
25564WAT      O76933   9.789   3.685   8.709
25564WAT     H176934   9.838   3.676   8.622
25564WAT     H276935   9.729   3.764   8.705
25565WAT      O76936   6.413   0.176   0.879
25565WAT     H176937   6.323   0.138   0.903
25565WAT     H276938   6.485   0.124   0.926
25566WAT      O76939   8.333   8.181   9.236
25566WAT     H176940   8.289   8.221   9.317
25566WAT     H276941   8.392   8.250   9.193
25567WAT      O76942   4.854   1.149   6.360
25567WAT     H176943   4.878   1.212   6.434
25567WAT     H276944   4.860   1.197   6.272
25568WAT      O76945   3.848   7.238   3.174
25568WAT     H176946   3.826   7.333   3.196
25568WAT     H276947   3.849   7.225   3.075
25569WAT      O76948   7.714   9.263   8.383
25569WAT     H176949   7.740   9.175   8.342
25569WAT     H276950   7.759   9.273   8.471
25570WAT      O76951   5.147   0.283   1.762
25570WAT     H176952   5.144   0.226   1.681
25570WAT     H276953   5.056   0.321   1.779
25571WAT      O76954   7.738   0.870   9.830
25571WAT     H176955   7.671   0.911   9.768
25571WAT     H276956   7.819   0.843   9.779
25572WAT      O76957   1.860   9.368   1.162
25572WAT     H176958   1.841   9.444   1.100
25572WAT     H276959   1.909   9.296   1.112
25573WAT      O76960   3.920   2.235   0.665
25573WAT     H176961   3.842   2.234   0.602
25573WAT     H276962   3.888   2.215   0.758
25574WAT      O76963   3.397   5.596   3.925
25574WAT     H176964   3.383   5.654   4.006
25574WAT     H276965   3.479   5.626   3.876
25575WAT      O76966   7.360   0.499   5.276
25575WAT     H176967   7.400   0.434   5.341
25575WAT     H276968   7.428   0.523   5.207
25576WAT      O76969   3.312   1.849   8.546
25576WAT     H176970   3.402   1.812   8.569
25576WAT     H276971   3.323   1.928   8.486
25577WAT      O76972   5.929   6.915   6.555
25577WAT     H176973   5.984   6.915   6.638
25577WAT     H276974   5.976   6.863   6.484
25578WAT      O76975   4.948   6.607   5.949
25578WAT     H176976   4.957   6.587   6.047
25578WAT     H276977   5.037   6.633   5.912
25579WAT      O76978   7.511   7.884   2.780
25579WAT     H176979   7.471   7.921   2.864
25579WAT     H276980   7.463   7.800   2.755
25580WAT      O76981   3.346   9.474   6.754
25580WAT     H176982   3.305   9.443   6.839
25580WAT     H276983   3.302   9.559   6.724
25581WAT      O76984   6.003   4.778   8.611
25581WAT     H176985   5.957   4.805   8.526
25581WAT     H276986   5.984   4.682   8.630
25582WAT      O76987   4.503   3.774   3.977
25582WAT     H176988   4.445   3.800   4.055
25582WAT     H276989   4.599   3.780   4.004
25583WAT      O76990   1.521   6.353   5.869
25583WAT     H176991   1.519   6.417   5.946
25583WAT     H276992   1.479   6.266   5.897
25584WAT      O76993   1.303   1.557   3.594
25584WAT     H176994   1.244   1.638   3.592
25584WAT     H276995   1.396   1.584   3.568
25585WAT      O76996   2.611   9.194   6.272
25585WAT     H176997   2.518   9.164   6.294
25585WAT     H276998   2.607   9.265   6.201
25586WAT      O76999   7.544   9.475   0.810
25586WAT     H177000   7.554   9.432   0.721
25586WAT     H277001   7.635   9.493   0.849
25587WAT      O77002   8.234   2.477   3.669
25587WAT     H177003   8.272   2.566   3.646
25587WAT     H277004   8.139   2.487   3.695
25588WAT      O77005   0.588   1.279   5.430
25588WAT     H177006   0.561   1.285   5.526
25588WAT     H277007   0.577   1.368   5.386
25589WAT      O77008   0.120   7.506   7.335
25589WAT     H177009   0.106   7.546   7.245
25589WAT     H277010   0.216   7.478   7.345
25590WAT      O77011   9.107   6.873   3.037
25590WAT     H177012   9.129   6.856   2.941
25590WAT     H277013   9.044   6.951   3.043
25591WAT      O77014   3.545   7.454   5.722
25591WAT     H177015   3.452   7.489   5.733
25591WAT     H277016   3.604   7.525   5.684
25592WAT      O77017   5.125   7.500   0.516
25592WAT     H177018   5.050   7.458   0.567
25592WAT     H277019   5.140   7.594   0.549
25593WAT      O77020   9.177   8.676   1.407
25593WAT     H177021   9.176   8.622   1.323
25593WAT     H277022   9.219   8.622   1.480
25594WAT      O77023   7.962   4.092   3.008
25594WAT     H177024   7.954   4.028   3.085
25594WAT     H277025   7.871   4.109   2.970
25595WAT      O77026   6.370   3.137   3.383
25595WAT     H177027   6.357   3.202   3.457
25595WAT     H277028   6.286   3.084   3.370
25596WAT      O77029   0.730   6.924   6.732
25596WAT     H177030   0.809   6.863   6.727
25596WAT     H277031   0.753   7.003   6.790
25597WAT      O77032   5.241   6.200   0.627
25597WAT     H177033   5.197   6.223   0.714
25597WAT     H277034   5.323   6.146   0.644
25598WAT      O77035   8.072   9.744   7.325
25598WAT     H177036   8.083   9.821   7.262
25598WAT     H277037   8.029   9.668   7.276
25599WAT      O77038   0.925   3.998   7.653
25599WAT     H177039   0.908   3.901   7.670
25599WAT     H277040   0.936   4.045   7.741
25600WAT      O77041   1.495   0.709   1.794
25600WAT     H177042   1.503   0.625   1.740
25600WAT     H277043   1.426   0.769   1.751
25601WAT      O77044   0.480   3.394   1.357
25601WAT     H177045   0.396   3.447   1.369
25601WAT     H277046   0.460   3.297   1.362
25602WAT      O77047   4.696   7.255   2.214
25602WAT     H177048   4.679   7.204   2.299
25602WAT     H277049   4.788   7.294   2.217
25603WAT      O77050   7.706   0.109   6.765
25603WAT     H177051   7.781   0.171   6.740
25603WAT     H277052   7.653   0.150   6.839
25604WAT      O77053   7.543   5.209   4.437
25604WAT     H177054   7.555   5.182   4.533
25604WAT     H277055   7.452   5.249   4.425
25605WAT      O77056   5.448   1.364   2.679
25605WAT     H177057   5.366   1.412   2.650
25605WAT     H277058   5.512   1.357   2.603
25606WAT      O77059   5.716   6.304   6.048
25606WAT     H177060   5.712   6.278   5.952
25606WAT     H277061   5.755   6.229   6.102
25607WAT      O77062   4.713   7.196   3.975
25607WAT     H177063   4.798   7.246   3.953
25607WAT     H277064   4.656   7.253   4.034
25608WAT      O77065   7.338   0.230   8.281
25608WAT     H177066   7.370   0.154   8.224
25608WAT     H277067   7.291   0.194   8.361
25609WAT      O77068   0.274   7.450   5.374
25609WAT     H177069   0.235   7.375   5.320
25609WAT     H277070   0.336   7.413   5.443
25610WAT      O77071   9.697   0.478   4.650
25610WAT     H177072   9.655   0.567   4.669
25610WAT     H277073   9.777   0.467   4.709
25611WAT      O77074   1.045   8.030   2.662
25611WAT     H177075   1.112   7.957   2.674
25611WAT     H277076   1.068   8.082   2.580
25612WAT      O77077   6.779   7.301   9.708
25612WAT     H177078   6.838   7.253   9.643
25612WAT     H277079   6.748   7.388   9.668
25613WAT      O77080   9.369   6.044   2.252
25613WAT     H177081   9.319   6.037   2.338
25613WAT     H277082   9.382   6.141   2.229
25614WAT      O77083   2.612   7.025   4.634
25614WAT     H177084   2.517   7.052   4.652
25614WAT     H277085   2.617   6.979   4.545
25615WAT      O77086   5.166   5.360   1.174
25615WAT     H177087   5.161   5.460   1.164
25615WAT     H277088   5.137   5.317   1.088
25616WAT      O77089   3.362   7.048   0.739
25616WAT     H177090   3.311   7.097   0.669
25616WAT     H277091   3.457   7.037   0.710
25617WAT      O77092   8.980   0.172   8.307
25617WAT     H177093   8.951   0.134   8.219
25617WAT     H277094   8.914   0.148   8.378
25618WAT      O77095   2.171   5.086   5.633
25618WAT     H177096   2.249   5.060   5.690
25618WAT     H277097   2.180   5.182   5.607
25619WAT      O77098   1.755   8.641   9.582
25619WAT     H177099   1.818   8.584   9.635
25619WAT     H277100   1.724   8.718   9.638
25620WAT      O77101   0.055   1.158   2.433
25620WAT     H177102   0.132   1.203   2.478
25620WAT     H277103   0.054   1.183   2.336
25621WAT      O77104   3.647   2.382   4.044
25621WAT     H177105   3.645   2.476   4.010
25621WAT     H277106   3.665   2.320   3.968
25622WAT      O77107   7.408   4.209   6.937
25622WAT     H177108   7.470   4.133   6.955
25622WAT     H277109   7.333   4.206   7.003
25623WAT      O77110   8.195   3.175   4.705
25623WAT     H177111   8.108   3.126   4.707
25623WAT     H277112   8.259   3.126   4.646
25624WAT      O77113   8.945   6.234   5.360
25624WAT     H177114   8.986   6.188   5.281
25624WAT     H277115   8.991   6.204   5.444
25625WAT      O77116   6.587   0.579   8.087
25625WAT     H177117   6.588   0.669   8.130
25625WAT     H277118   6.582   0.508   8.157
25626WAT      O77119   4.933   4.875   1.892
25626WAT     H177120   4.851   4.930   1.880
25626WAT     H277121   4.995   4.921   1.956
25627WAT      O77122   3.655   3.345   1.702
25627WAT     H177123   3.592   3.319   1.628
25627WAT     H277124   3.602   3.383   1.778
25628WAT      O77125   5.594   5.479   5.857
25628WAT     H177126   5.543   5.564   5.870
25628WAT     H277127   5.627   5.474   5.762
25629WAT      O77128   4.294   7.612   3.756
25629WAT     H177129   4.251   7.527   3.785
25629WAT     H277130   4.385   7.620   3.797
25630WAT      O77131   7.803   7.193   4.576
25630WAT     H177132   7.738   7.230   4.510
25630WAT     H277133   7.840   7.267   4.631
25631WAT      O77134   8.723   0.093   9.762
25631WAT     H177135   8.758   0.127   9.849
25631WAT     H277136   8.700  -0.004   9.771
25632WAT      O77137   4.545   1.897   0.310
25632WAT     H177138   4.502   1.884   0.399
25632WAT     H277139   4.490   1.959   0.254
25633WAT      O77140   4.023   0.917   0.447
25633WAT     H177141   4.089   0.949   0.514
25633WAT     H277142   4.068   0.857   0.381
25634WAT      O77143   3.444   1.460   3.289
25634WAT     H177144   3.422   1.393   3.219
25634WAT     H277145   3.449   1.415   3.378
25635WAT      O77146   9.568   4.739   4.213
25635WAT     H177147   9.517   4.668   4.164
25635WAT     H277148   9.571   4.822   4.156
25636WAT      O77149   0.342   9.429   2.647
25636WAT     H177150   0.242   9.425   2.643
25636WAT     H277151   0.380   9.347   2.603
25637WAT      O77152   5.252   4.662   6.651
25637WAT     H177153   5.208   4.735   6.598
25637WAT     H277154   5.184   4.617   6.709
25638WAT      O77155   9.204   9.590   4.547
25638WAT     H177156   9.228   9.494   4.560
25638WAT     H277157   9.249   9.624   4.464
25639WAT      O77158   9.415   0.175   5.314
25639WAT     H177159   9.462   0.249   5.266
25639WAT     H277160   9.482   0.109   5.348
25640WAT      O77161   9.210   4.169   0.190
25640WAT     H177162   9.204   4.235   0.264
25640WAT     H277163   9.306   4.154   0.165
25641WAT      O77164   7.066   1.168   2.241
25641WAT     H177165   7.037   1.148   2.147
25641WAT     H277166   7.077   1.267   2.252
25642WAT      O77167   7.573   7.368   5.624
25642WAT     H177168   7.637   7.312   5.677
25642WAT     H277169   7.587   7.353   5.527
25643WAT      O77170   6.194   0.927   8.527
25643WAT     H177171   6.195   1.018   8.568
25643WAT     H277172   6.115   0.920   8.465
25644WAT      O77173   4.719   6.977   3.230
25644WAT     H177174   4.796   6.913   3.238
25644WAT     H277175   4.646   6.936   3.176
25645WAT      O77176   6.932   0.863   3.769
25645WAT     H177177   6.933   0.846   3.868
25645WAT     H277178   6.937   0.962   3.753
25646WAT      O77179   7.133   1.358   5.281
25646WAT     H177180   7.042   1.386   5.311
25646WAT     H277181   7.125   1.295   5.205
25647WAT      O77182   1.715   0.883   3.329
25647WAT     H177183   1.684   0.797   3.288
25647WAT     H277184   1.764   0.863   3.414
25648WAT      O77185   9.756   5.899   2.137
25648WAT     H177186   9.657   5.911   2.144
25648WAT     H277187   9.801   5.986   2.154
25649WAT      O77188   1.593   8.802   6.034
25649WAT     H177189   1.569   8.734   6.103
25649WAT     H277190   1.584   8.762   5.943
25650WAT      O77191   5.005   3.235   0.869
25650WAT     H177192   4.908   3.259   0.874
25650WAT     H277193   5.039   3.214   0.961
25651WAT      O77194   8.282   0.037   1.155
25651WAT     H177195   8.201   0.082   1.118
25651WAT     H277196   8.351   0.107   1.177
25652WAT      O77197   4.681   1.805   0.618
25652WAT     H177198   4.583   1.827   0.617
25652WAT     H277199   4.732   1.883   0.654
25653WAT      O77200   3.541   8.538   5.825
25653WAT     H177201   3.622   8.528   5.766
25653WAT     H277202   3.477   8.463   5.807
25654WAT      O77203   7.914   0.081   4.875
25654WAT     H177204   7.985   0.037   4.930
25654WAT     H277205   7.825   0.041   4.897
25655WAT      O77206   2.688   5.262   0.366
25655WAT     H177207   2.647   5.300   0.283
25655WAT     H277208   2.670   5.164   0.369
25656WAT      O77209   8.025   7.967   3.056
25656WAT     H177210   7.946   8.020   3.026
25656WAT     H277211   7.999   7.871   3.065
25657WAT      O77212   2.906   7.610   9.826
25657WAT     H177213   2.901   7.569   9.917
25657WAT     H277214   2.958   7.696   9.831
25658WAT      O77215   1.489   1.309   8.533
25658WAT     H177216   1.414   1.339   8.592
25658WAT     H277217   1.512   1.382   8.469
25659WAT      O77218   9.275   2.318   6.012
25659WAT     H177219   9.345   2.315   6.084
25659WAT     H277220   9.299   2.388   5.945
25660WAT      O77221   7.016   5.748   4.034
25660WAT     H177222   7.041   5.689   4.111
25660WAT     H277223   6.966   5.695   3.966
25661WAT      O77224   8.659   8.233   8.694
25661WAT     H177225   8.636   8.192   8.605
25661WAT     H277226   8.636   8.169   8.767
25662WAT      O77227   1.419   6.106   3.563
25662WAT     H177228   1.461   6.101   3.472
25662WAT     H277229   1.488   6.088   3.633
25663WAT      O77230   1.789   2.350   3.476
25663WAT     H177231   1.888   2.344   3.486
25663WAT     H277232   1.746   2.341   3.566
25664WAT      O77233   0.244   8.863   6.874
25664WAT     H177234   0.262   8.943   6.931
25664WAT     H277235   0.329   8.836   6.827
25665WAT      O77236   0.735   0.242   0.797
25665WAT     H177237   0.700   0.226   0.705
25665WAT     H277238   0.676   0.307   0.845
25666WAT      O77239   0.679   3.904   3.196
25666WAT     H177240   0.689   3.805   3.185
25666WAT     H277241   0.759   3.950   3.157
25667WAT      O77242   8.882   0.226   3.756
25667WAT     H177243   8.916   0.308   3.711
25667WAT     H277244   8.874   0.152   3.689
25668WAT      O77245   8.859   7.217   4.602
25668WAT     H177246   8.841   7.162   4.520
25668WAT     H277247   8.949   7.193   4.639
25669WAT      O77248   8.740   9.366   4.923
25669WAT     H177249   8.830   9.409   4.932
25669WAT     H277250   8.739   9.306   4.843
25670WAT      O77251   1.533   9.515   3.924
25670WAT     H177252   1.510   9.463   4.007
25670WAT     H277253   1.452   9.521   3.866
25671WAT      O77254   3.145   0.355   4.636
25671WAT     H177255   3.082   0.420   4.678
25671WAT     H277256   3.203   0.402   4.570
25672WAT      O77257   0.479   9.755   1.645
25672WAT     H177258   0.499   9.853   1.648
25672WAT     H277259   0.400   9.740   1.585
25673WAT      O77260   7.477   0.380   2.763
25673WAT     H177261   7.392   0.330   2.779
25673WAT     H277262   7.462   0.478   2.775
25674WAT      O77263   6.432   9.075   5.799
25674WAT     H177264   6.396   8.982   5.795
25674WAT     H277265   6.403   9.126   5.718
25675WAT      O77266   5.403   7.786   1.825
25675WAT     H177267   5.325   7.726   1.839
25675WAT     H277268   5.477   7.736   1.779
25676WAT      O77269   5.990   2.122   2.244
25676WAT     H177270   6.065   2.055   2.236
25676WAT     H277271   5.902   2.074   2.235
25677WAT      O77272   0.011   9.688   6.673
25677WAT     H177273  -0.043   9.647   6.746
25677WAT     H277274   0.006   9.630   6.592
25678WAT      O77275   2.951   2.754   1.514
25678WAT     H177276   2.941   2.753   1.414
25678WAT     H277277   2.908   2.836   1.551
25679WAT      O77278   7.617   8.280   2.045
25679WAT     H177279   7.654   8.373   2.046
25679WAT     H277280   7.677   8.221   1.992
25680WAT      O77281   8.052   2.758   8.008
25680WAT     H177282   8.036   2.840   8.063
25680WAT     H277283   8.002   2.766   7.922
25681WAT      O77284   0.019   6.667   0.849
25681WAT     H177285   0.097   6.670   0.786
25681WAT     H277286   0.048   6.627   0.936
25682WAT      O77287   1.936   5.821   3.176
25682WAT     H177288   1.938   5.907   3.125
25682WAT     H277289   1.886   5.834   3.261
25683WAT      O77290   6.369   1.603   7.105
25683WAT     H177291   6.460   1.562   7.098
25683WAT     H277292   6.376   1.695   7.144
25684WAT      O77293   2.664   1.441   5.278
25684WAT     H177294   2.747   1.471   5.325
25684WAT     H277295   2.666   1.472   5.183
25685WAT      O77296   5.363   5.786   0.985
25685WAT     H177297   5.363   5.791   0.885
25685WAT     H277298   5.386   5.693   1.014
25686WAT      O77299   0.190   2.246   7.227
25686WAT     H177300   0.114   2.238   7.162
25686WAT     H277301   0.240   2.159   7.230
25687WAT      O77302   8.199   2.395   6.455
25687WAT     H177303   8.239   2.303   6.457
25687WAT     H277304   8.137   2.407   6.532
25688WAT      O77305   5.913   4.650   3.887
25688WAT     H177306   5.944   4.745   3.894
25688WAT     H277307   5.911   4.623   3.791
25689WAT      O77308   1.216   5.693   2.085
25689WAT     H177309   1.136   5.647   2.047
25689WAT     H277310   1.233   5.660   2.178
25690WAT      O77311   1.740   1.622   9.708
25690WAT     H177312   1.777   1.695   9.766
25690WAT     H277313   1.646   1.645   9.682
25691WAT      O77314   0.373   1.884   7.059
25691WAT     H177315   0.432   1.928   6.991
25691WAT     H277316   0.373   1.785   7.044
25692WAT      O77317   3.519   6.561   1.995
25692WAT     H177318   3.549   6.652   2.021
25692WAT     H277319   3.438   6.536   2.048
25693WAT      O77320   0.784   0.322   2.194
25693WAT     H177321   0.821   0.289   2.281
25693WAT     H277322   0.772   0.245   2.131
25694WAT      O77323   3.950   3.939   1.695
25694WAT     H177324   3.856   3.970   1.676
25694WAT     H277325   4.007   4.018   1.718
25695WAT      O77326   4.350   5.359   2.884
25695WAT     H177327   4.315   5.363   2.791
25695WAT     H277328   4.398   5.273   2.899
25696WAT      O77329   2.156   4.106   2.805
25696WAT     H177330   2.115   4.041   2.741
25696WAT     H277331   2.162   4.063   2.895
25697WAT      O77332   5.097   1.478   5.705
25697WAT     H177333   5.077   1.514   5.614
25697WAT     H277334   5.163   1.402   5.696
25698WAT      O77335   1.856   4.585   1.553
25698WAT     H177336   1.870   4.643   1.472
25698WAT     H277337   1.921   4.612   1.624
25699WAT      O77338   5.699   0.574   8.074
25699WAT     H177339   5.767   0.517   8.120
25699WAT     H277340   5.740   0.618   7.995
25700WAT      O77341   0.302   7.690   7.787
25700WAT     H177342   0.276   7.721   7.696
25700WAT     H277343   0.288   7.763   7.853
25701WAT      O77344   3.169   3.600   6.695
25701WAT     H177345   3.106   3.640   6.628
25701WAT     H277346   3.262   3.629   6.676
25702WAT      O77347   2.718   2.868   4.050
25702WAT     H177348   2.785   2.937   4.075
25702WAT     H277349   2.645   2.911   3.995
25703WAT      O77350   2.712   9.415   4.085
25703WAT     H177351   2.810   9.405   4.069
25703WAT     H277352   2.667   9.327   4.070
25704WAT      O77353   2.753   5.569   6.933
25704WAT     H177354   2.852   5.559   6.932
25704WAT     H277355   2.712   5.507   6.866
25705WAT      O77356   4.826   4.673   7.105
25705WAT     H177357   4.751   4.686   7.041
25705WAT     H277358   4.873   4.587   7.084
25706WAT      O77359   6.578   0.942   3.271
25706WAT     H177360   6.637   0.920   3.193
25706WAT     H277361   6.520   0.863   3.292
25707WAT      O77362   7.549   7.187   5.392
25707WAT     H177363   7.462   7.171   5.438
25707WAT     H277364   7.533   7.240   5.309
25708WAT      O77365   8.928   2.081   2.992
25708WAT     H177366   8.846   2.126   3.027
25708WAT     H277367   8.933   2.094   2.893
25709WAT      O77368   9.515   1.100   8.606
25709WAT     H177369   9.543   1.092   8.701
25709WAT     H277370   9.435   1.041   8.590
25710WAT      O77371   6.578   5.677   7.186
25710WAT     H177372   6.550   5.770   7.209
25710WAT     H277373   6.649   5.646   7.249
25711WAT      O77374   1.999   9.600   2.246
25711WAT     H177375   1.911   9.575   2.207
25711WAT     H277376   2.016   9.698   2.229
25712WAT      O77377   3.784   6.987   3.289
25712WAT     H177378   3.827   7.077   3.276
25712WAT     H277379   3.766   6.973   3.387
25713WAT      O77380   5.433   4.675   7.580
25713WAT     H177381   5.415   4.680   7.678
25713WAT     H277382   5.496   4.600   7.561
25714WAT      O77383   0.755   8.614   8.639
25714WAT     H177384   0.748   8.565   8.726
25714WAT     H277385   0.676   8.675   8.629
25715WAT      O77386   4.578   2.695   1.515
25715WAT     H177387   4.491   2.687   1.467
25715WAT     H277388   4.563   2.696   1.613
25716WAT      O77389   7.545   7.949   6.942
25716WAT     H177390   7.501   8.016   6.883
25716WAT     H277391   7.514   7.961   7.036
25717WAT      O77392   9.548   2.362   1.167
25717WAT     H177393   9.504   2.308   1.239
25717WAT     H277394   9.594   2.301   1.103
25718WAT      O77395   7.586   2.607   9.489
25718WAT     H177396   7.588   2.509   9.506
25718WAT     H277397   7.561   2.625   9.394
25719WAT      O77398   2.182   3.558   0.514
25719WAT     H177399   2.251   3.527   0.578
25719WAT     H277400   2.116   3.485   0.497
25720WAT      O77401   7.346   9.718   0.228
25720WAT     H177402   7.356   9.689   0.323
25720WAT     H277403   7.375   9.814   0.219
25721WAT      O77404   4.156   8.527   8.448
25721WAT     H177405   4.087   8.510   8.378
25721WAT     H277406   4.140   8.615   8.492
25722WAT      O77407   2.642   7.743   9.791
25722WAT     H177408   2.742   7.744   9.783
25722WAT     H277409   2.606   7.835   9.776
25723WAT      O77410   4.956   0.749   7.496
25723WAT     H177411   5.042   0.727   7.449
25723WAT     H277412   4.925   0.840   7.467
25724WAT      O77413   1.118   2.297   5.841
25724WAT     H177414   1.086   2.295   5.747
25724WAT     H277415   1.053   2.248   5.900
25725WAT      O77416   2.834   1.064   4.321
25725WAT     H177417   2.863   1.142   4.376
25725WAT     H277418   2.818   0.985   4.380
25726WAT      O77419   5.561   6.133   2.287
25726WAT     H177420   5.655   6.165   2.277
25726WAT     H277421   5.499   6.194   2.238
25727WAT      O77422   9.520   2.297   9.610
25727WAT     H177423   9.447   2.322   9.673
25727WAT     H277424   9.514   2.354   9.528
25728WAT      O77425   1.575   5.026   4.298
25728WAT     H177426   1.476   5.023   4.309
25728WAT     H277427   1.615   4.938   4.324
25729WAT      O77428   1.881   9.543   7.622
25729WAT     H177429   1.802   9.563   7.563
25729WAT     H277430   1.931   9.464   7.586
25730WAT      O77431   4.625   1.411   1.470
25730WAT     H177432   4.703   1.352   1.487
25730WAT     H277433   4.563   1.366   1.405
25731WAT      O77434   3.660   4.261   1.872
25731WAT     H177435   3.611   4.280   1.787
25731WAT     H277436   3.718   4.339   1.895
25732WAT      O77437   5.140   9.428   7.394
25732WAT     H177438   5.127   9.526   7.379
25732WAT     H277439   5.236   9.404   7.377
25733WAT      O77440   6.738   4.168   3.757
25733WAT     H177441   6.719   4.253   3.805
25733WAT     H277442   6.820   4.179   3.701
25734WAT      O77443   6.315   2.891   4.624
25734WAT     H177444   6.400   2.920   4.580
25734WAT     H277445   6.311   2.928   4.716
25735WAT      O77446   9.735   2.364   5.190
25735WAT     H177447   9.686   2.397   5.270
25735WAT     H277448   9.805   2.298   5.218
25736WAT      O77449   6.855   6.573   0.122
25736WAT     H177450   6.852   6.531   0.031
25736WAT     H277451   6.800   6.520   0.185
25737WAT      O77452   6.482   8.392   1.012
25737WAT     H177453   6.384   8.375   1.022
25737WAT     H277454   6.528   8.308   0.984
25738WAT      O77455   6.477   9.200   9.410
25738WAT     H177456   6.437   9.133   9.473
25738WAT     H277457   6.404   9.241   9.354
25739WAT      O77458   2.781   8.209   1.453
25739WAT     H177459   2.729   8.200   1.538
25739WAT     H277460   2.721   8.237   1.379
25740WAT      O77461   3.947   4.161   1.445
25740WAT     H177462   3.989   4.091   1.388
25740WAT     H277463   4.006   4.242   1.448
25741WAT      O77464   9.330   1.074   8.124
25741WAT     H177465   9.289   1.157   8.159
25741WAT     H277466   9.320   1.000   8.191
25742WAT      O77467   4.151   9.207   2.694
25742WAT     H177468   4.092   9.284   2.670
25742WAT     H277469   4.246   9.235   2.688
25743WAT      O77470   7.792   7.204   7.756
25743WAT     H177471   7.718   7.250   7.707
25743WAT     H277472   7.761   7.113   7.785
25744WAT      O77473   1.189   6.846   8.977
25744WAT     H177474   1.153   6.794   8.899
25744WAT     H277475   1.204   6.941   8.949
25745WAT      O77476   5.414   9.442   8.332
25745WAT     H177477   5.379   9.351   8.354
25745WAT     H277478   5.340   9.509   8.337
25746WAT      O77479   0.796   1.701   8.116
25746WAT     H177480   0.813   1.799   8.106
25746WAT     H277481   0.793   1.659   8.025
25747WAT      O77482   5.204   6.609   1.822
25747WAT     H177483   5.259   6.658   1.890
25747WAT     H277484   5.107   6.616   1.847
25748WAT      O77485   2.403   6.798   0.034
25748WAT     H177486   2.306   6.809   0.012
25748WAT     H277487   2.413   6.743   0.116
25749WAT      O77488   6.561   8.085   3.277
25749WAT     H177489   6.629   8.044   3.337
25749WAT     H277490   6.605   8.153   3.219
25750WAT      O77491   2.072   6.228   4.555
25750WAT     H177492   2.061   6.327   4.544
25750WAT     H277493   2.002   6.180   4.503
25751WAT      O77494   1.434   3.238   2.016
25751WAT     H177495   1.514   3.241   1.955
25751WAT     H277496   1.389   3.149   2.007
25752WAT      O77497   3.395   6.514   5.725
25752WAT     H177498   3.359   6.581   5.790
25752WAT     H277499   3.492   6.500   5.742
25753WAT      O77500   5.045   4.929   1.353
25753WAT     H177501   5.078   4.894   1.265
25753WAT     H277502   4.964   4.879   1.381
25754WAT      O77503   6.564   6.692   2.545
25754WAT     H177504   6.591   6.746   2.465
25754WAT     H277505   6.646   6.661   2.593
25755WAT      O77506   0.964   3.661   2.772
25755WAT     H177507   1.057   3.699   2.769
25755WAT     H277508   0.908   3.715   2.835
25756WAT      O77509   7.461   6.149   9.398
25756WAT     H177510   7.501   6.232   9.359
25756WAT     H277511   7.472   6.073   9.333
25757WAT      O77512   8.069   7.828   9.158
25757WAT     H177513   8.084   7.841   9.060
25757WAT     H277514   8.157   7.822   9.204
25758WAT      O77515   6.268   6.268   1.717
25758WAT     H177516   6.240   6.273   1.813
25758WAT     H277517   6.368   6.274   1.710
25759WAT      O77518   7.569   0.089   1.087
25759WAT     H177519   7.470   0.083   1.075
25759WAT     H277520   7.613   0.091   0.997
25760WAT      O77521   0.834   5.941   5.856
25760WAT     H177522   0.753   5.922   5.910
25760WAT     H277523   0.877   6.025   5.888
25761WAT      O77524   6.079   7.333   4.186
25761WAT     H177525   6.015   7.408   4.168
25761WAT     H277526   6.138   7.320   4.106
25762WAT      O77527   7.651   0.730   5.531
25762WAT     H177528   7.583   0.755   5.462
25762WAT     H277529   7.704   0.651   5.498
25763WAT      O77530   1.690   1.293   4.940
25763WAT     H177531   1.716   1.233   5.015
25763WAT     H277532   1.645   1.375   4.976
25764WAT      O77533   7.903   6.902   1.781
25764WAT     H177534   7.986   6.846   1.782
25764WAT     H277535   7.825   6.848   1.813
25765WAT      O77536   1.921   2.450   0.530
25765WAT     H177537   1.944   2.439   0.434
25765WAT     H277538   1.937   2.545   0.558
25766WAT      O77539   7.850   2.933   1.108
25766WAT     H177540   7.922   2.977   1.054
25766WAT     H277541   7.866   2.834   1.111
25767WAT      O77542   1.562   0.116   6.700
25767WAT     H177543   1.489   0.182   6.681
25767WAT     H277544   1.550   0.035   6.643
25768WAT      O77545   8.909   7.017   8.777
25768WAT     H177546   8.828   7.061   8.738
25768WAT     H277547   8.979   7.007   8.706
25769WAT      O77548   9.196   8.855   6.393
25769WAT     H177549   9.256   8.778   6.373
25769WAT     H277550   9.129   8.829   6.462
25770WAT      O77551   5.302   5.577   8.268
25770WAT     H177552   5.349   5.489   8.275
25770WAT     H277553   5.353   5.647   8.318
25771WAT      O77554   0.562   0.634   1.467
25771WAT     H177555   0.484   0.654   1.408
25771WAT     H277556   0.531   0.589   1.550
25772WAT      O77557   8.213   4.615   9.842
25772WAT     H177558   8.282   4.617   9.914
25772WAT     H277559   8.190   4.709   9.816
25773WAT      O77560   1.359   2.215   1.617
25773WAT     H177561   1.302   2.252   1.691
25773WAT     H277562   1.454   2.209   1.648
25774WAT      O77563   4.175   0.464   1.720
25774WAT     H177564   4.212   0.542   1.671
25774WAT     H277565   4.248   0.397   1.737
25775WAT      O77566   4.142   0.368   4.734
25775WAT     H177567   4.166   0.401   4.643
25775WAT     H277568   4.164   0.270   4.740
25776WAT      O77569   1.767   2.160   6.441
25776WAT     H177570   1.683   2.198   6.480
25776WAT     H277571   1.839   2.159   6.510
25777WAT      O77572   4.767   6.838   0.581
25777WAT     H177573   4.694   6.839   0.512
25777WAT     H277574   4.741   6.897   0.658
25778WAT      O77575   5.124   0.632   2.484
25778WAT     H177576   5.093   0.607   2.576
25778WAT     H277577   5.048   0.620   2.419
25779WAT      O77578   7.561   1.680   6.933
25779WAT     H177579   7.585   1.676   6.836
25779WAT     H277580   7.645   1.688   6.987
25780WAT      O77581   4.489   1.543   0.787
25780WAT     H177582   4.493   1.454   0.831
25780WAT     H277583   4.421   1.541   0.714
25781WAT      O77584   7.078   1.928   1.920
25781WAT     H177585   7.073   1.985   2.002
25781WAT     H277586   7.159   1.868   1.927
25782WAT      O77587   8.985   6.599   9.415
25782WAT     H177588   8.991   6.631   9.320
25782WAT     H277589   8.894   6.618   9.451
25783WAT      O77590   0.619   2.955   9.062
25783WAT     H177591   0.608   2.860   9.090
25783WAT     H277592   0.677   2.959   8.980
25784WAT      O77593   6.991   7.648   4.955
25784WAT     H177594   7.010   7.623   4.860
25784WAT     H277595   6.953   7.570   5.004
25785WAT      O77596   2.301   9.302   6.143
25785WAT     H177597   2.316   9.253   6.229
25785WAT     H277598   2.383   9.354   6.120
25786WAT      O77599   8.013   5.425   0.959
25786WAT     H177600   8.013   5.356   1.032
25786WAT     H277601   8.107   5.452   0.937
25787WAT      O77602   1.073   6.557   4.241
25787WAT     H177603   1.058   6.474   4.188
25787WAT     H277604   1.171   6.572   4.253
25788WAT      O77605   9.458   3.944   2.116
25788WAT     H177606   9.517   3.871   2.152
25788WAT     H277607   9.461   4.022   2.178
25789WAT      O77608   3.344   5.015   7.144
25789WAT     H177609   3.398   5.088   7.103
25789WAT     H277610   3.278   5.054   7.207
25790WAT      O77611   0.976   0.596   3.497
25790WAT     H177612   1.045   0.599   3.425
25790WAT     H277613   0.890   0.633   3.462
25791WAT      O77614   4.660   3.938   8.521
25791WAT     H177615   4.669   3.860   8.583
25791WAT     H277616   4.680   4.022   8.570
25792WAT      O77617   2.827   7.184   4.184
25792WAT     H177618   2.737   7.225   4.201
25792WAT     H277619   2.873   7.233   4.111
25793WAT      O77620   2.603   1.739   7.792
25793WAT     H177621   2.578   1.745   7.695
25793WAT     H277622   2.551   1.666   7.835
25794WAT      O77623   4.856   2.790   1.945
25794WAT     H177624   4.908   2.744   1.873
25794WAT     H277625   4.783   2.844   1.904
25795WAT      O77626   5.973   8.484   2.444
25795WAT     H177627   6.065   8.456   2.474
25795WAT     H277628   5.968   8.584   2.442
25796WAT      O77629   1.877   1.892   1.309
25796WAT     H177630   1.894   1.927   1.216
25796WAT     H277631   1.929   1.807   1.322
25797WAT      O77632   4.838   7.525   2.345
25797WAT     H177633   4.898   7.592   2.389
25797WAT     H277634   4.894   7.452   2.305
25798WAT      O77635   2.771   7.485   0.390
25798WAT     H177636   2.772   7.546   0.469
25798WAT     H277637   2.736   7.395   0.418
25799WAT      O77638   5.688   3.534   6.400
25799WAT     H177639   5.623   3.478   6.349
25799WAT     H277640   5.640   3.581   6.475
25800WAT      O77641   4.098   2.229   1.502
25800WAT     H177642   4.113   2.255   1.407
25800WAT     H277643   4.002   2.205   1.515
25801WAT      O77644   7.300   5.470   3.939
25801WAT     H177645   7.283   5.506   3.847
25801WAT     H277646   7.356   5.535   3.991
25802WAT      O77647   7.765   2.952   5.114
25802WAT     H177648   7.847   2.971   5.168
25802WAT     H277649   7.684   2.977   5.168
25803WAT      O77650   1.964   6.813   1.913
25803WAT     H177651   1.990   6.832   2.007
25803WAT     H277652   2.023   6.741   1.875
25804WAT      O77653   9.433   3.277   6.612
25804WAT     H177654   9.395   3.234   6.694
25804WAT     H277655   9.514   3.227   6.582
25805WAT      O77656   6.519   7.015   5.142
25805WAT     H177657   6.469   7.053   5.220
25805WAT     H277658   6.526   6.916   5.152
25806WAT      O77659   4.248   0.318   5.695
25806WAT     H177660   4.241   0.308   5.596
25806WAT     H277661   4.334   0.362   5.719
25807WAT      O77662   7.457   0.345   5.492
25807WAT     H177663   7.404   0.370   5.572
25807WAT     H277664   7.472   0.246   5.492
25808WAT      O77665   6.104   2.093   6.009
25808WAT     H177666   6.015   2.106   6.051
25808WAT     H277667   6.116   2.157   5.934
25809WAT      O77668   4.656   2.611   6.738
25809WAT     H177669   4.709   2.557   6.672
25809WAT     H277670   4.567   2.634   6.698
25810WAT      O77671   8.483   4.102   0.675
25810WAT     H177672   8.500   4.005   0.693
25810WAT     H277673   8.385   4.116   0.663
25811WAT      O77674   3.045   4.514   8.526
25811WAT     H177675   3.106   4.593   8.522
25811WAT     H277676   3.030   4.489   8.622
25812WAT      O77677   9.088   0.029   2.391
25812WAT     H177678   9.144   0.013   2.310
25812WAT     H277679   9.099   0.123   2.422
25813WAT      O77680   2.953   1.991   7.704
25813WAT     H177681   3.014   1.917   7.676
25813WAT     H277682   3.002   2.053   7.765
25814WAT      O77683   0.325   5.529   9.805
25814WAT     H177684   0.289   5.441   9.774
25814WAT     H277685   0.337   5.590   9.726
25815WAT      O77686   0.364   0.557   1.122
25815WAT     H177687   0.382   0.645   1.167
25815WAT     H277688   0.287   0.567   1.060
25816WAT      O77689   5.297   1.999   1.584
25816WAT     H177690   5.212   2.009   1.635
25816WAT     H277691   5.285   2.029   1.490
25817WAT      O77692   3.004   4.258   9.804
25817WAT     H177693   2.941   4.216   9.870
25817WAT     H277694   2.969   4.245   9.712
25818WAT      O77695   6.863   6.130   6.051
25818WAT     H177696   6.773   6.172   6.052
25818WAT     H277697   6.932   6.200   6.031
25819WAT      O77698   1.952   6.774   9.249
25819WAT     H177699   2.022   6.783   9.178
25819WAT     H277700   1.912   6.683   9.245
25820WAT      O77701   9.254   0.463   6.915
25820WAT     H177702   9.313   0.401   6.864
25820WAT     H277703   9.302   0.549   6.931
25821WAT      O77704   7.565   8.338   9.225
25821WAT     H177705   7.598   8.252   9.263
25821WAT     H277706   7.471   8.354   9.255
25822WAT      O77707   1.007   4.641   5.243
25822WAT     H177708   0.992   4.561   5.185
25822WAT     H277709   1.050   4.714   5.190
25823WAT      O77710   7.403   3.051   0.468
25823WAT     H177711   7.500   3.034   0.452
25823WAT     H277712   7.392   3.133   0.524
25824WAT      O77713   7.301   2.166   7.353
25824WAT     H177714   7.310   2.067   7.343
25824WAT     H277715   7.285   2.207   7.263
25825WAT      O77716   4.702   5.967   7.242
25825WAT     H177717   4.657   5.900   7.302
25825WAT     H277718   4.635   6.030   7.205
25826WAT      O77719   1.647   6.882   6.189
25826WAT     H177720   1.611   6.882   6.096
25826WAT     H277721   1.576   6.853   6.253
25827WAT      O77722   3.827   1.598   1.571
25827WAT     H177723   3.869   1.592   1.662
25827WAT     H277724   3.734   1.560   1.574
25828WAT      O77725   7.064   6.504   6.347
25828WAT     H177726   7.014   6.575   6.297
25828WAT     H277727   7.001   6.458   6.410
25829WAT      O77728   6.420   7.244   3.970
25829WAT     H177729   6.450   7.238   4.066
25829WAT     H277730   6.496   7.274   3.913
25830WAT      O77731   4.305   4.382   2.163
25830WAT     H177732   4.349   4.453   2.108
25830WAT     H277733   4.374   4.316   2.193
25831WAT      O77734   6.192   2.659   0.960
25831WAT     H177735   6.110   2.628   1.008
25831WAT     H277736   6.187   2.758   0.947
25832WAT      O77737   5.921   3.917   0.849
25832WAT     H177738   5.910   3.860   0.930
25832WAT     H277739   6.005   3.970   0.856
25833WAT      O77740   7.324   2.250   1.251
25833WAT     H177741   7.384   2.193   1.307
25833WAT     H277742   7.290   2.197   1.173
25834WAT      O77743   2.771   3.349   0.978
25834WAT     H177744   2.790   3.360   0.881
25834WAT     H277745   2.778   3.252   1.002
25835WAT      O77746   0.273   6.723   0.442
25835WAT     H177747   0.325   6.735   0.358
25835WAT     H277748   0.198   6.660   0.426
25836WAT      O77749   4.130   9.247   3.626
25836WAT     H177750   4.139   9.246   3.526
25836WAT     H277751   4.115   9.153   3.658
25837WAT      O77752   6.562   6.033   0.521
25837WAT     H177753   6.616   6.105   0.478
25837WAT     H277754   6.530   6.064   0.610
25838WAT      O77755   7.778   9.341   1.330
25838WAT     H177756   7.813   9.347   1.237
25838WAT     H277757   7.718   9.262   1.338
25839WAT      O77758   1.606   6.224   8.587
25839WAT     H177759   1.534   6.154   8.586
25839WAT     H277760   1.692   6.183   8.555
25840WAT      O77761   7.844   6.613   3.212
25840WAT     H177762   7.898   6.629   3.130
25840WAT     H277763   7.747   6.614   3.189
25841WAT      O77764   2.275   4.973   9.879
25841WAT     H177765   2.183   4.970   9.918
25841WAT     H277766   2.273   4.938   9.785
25842WAT      O77767   7.960   5.510   5.990
25842WAT     H177768   7.888   5.526   5.923
25842WAT     H277769   8.050   5.521   5.947
25843WAT      O77770   9.068   3.955   9.304
25843WAT     H177771   9.026   3.973   9.393
25843WAT     H277772   9.116   3.867   9.308
25844WAT      O77773   8.469   1.908   6.476
25844WAT     H177774   8.528   1.885   6.554
25844WAT     H277775   8.409   1.831   6.456
25845WAT      O77776   1.197   4.772   0.283
25845WAT     H177777   1.289   4.779   0.244
25845WAT     H277778   1.170   4.860   0.322
25846WAT      O77779   7.976   5.525   2.034
25846WAT     H177780   7.922   5.539   2.118
25846WAT     H277781   8.013   5.432   2.034
25847WAT      O77782   8.785   3.386   8.978
25847WAT     H177783   8.883   3.393   8.958
25847WAT     H277784   8.770   3.308   9.039
25848WAT      O77785   7.458   2.965   6.301
25848WAT     H177786   7.536   2.944   6.359
25848WAT     H277787   7.400   3.033   6.346
25849WAT      O77788   1.604   6.198   5.392
25849WAT     H177789   1.549   6.197   5.476
25849WAT     H277790   1.576   6.274   5.334
25850WAT      O77791   0.957   0.719   6.175
25850WAT     H177792   1.042   0.763   6.207
25850WAT     H277793   0.906   0.685   6.254
25851WAT      O77794   0.305   6.734   2.946
25851WAT     H177795   0.209   6.758   2.952
25851WAT     H277796   0.319   6.668   2.872
25852WAT      O77797   5.018   6.473   3.938
25852WAT     H177798   5.080   6.550   3.954
25852WAT     H277799   5.058   6.411   3.870
25853WAT      O77800   5.821   2.117   6.100
25853WAT     H177801   5.800   2.171   6.018
25853WAT     H277802   5.801   2.021   6.083
25854WAT      O77803   6.645   1.062   0.149
25854WAT     H177804   6.671   0.971   0.181
25854WAT     H277805   6.705   1.131   0.190
25855WAT      O77806   1.578   6.538   4.006
25855WAT     H177807   1.502   6.603   4.003
25855WAT     H277808   1.664   6.587   3.987
25856WAT      O77809   7.256   5.337   2.550
25856WAT     H177810   7.261   5.325   2.649
25856WAT     H277811   7.191   5.270   2.512
25857WAT      O77812   0.284   6.899   9.704
25857WAT     H177813   0.234   6.916   9.619
25857WAT     H277814   0.350   6.824   9.690
25858WAT      O77815   3.626   0.701   4.108
25858WAT     H177816   3.722   0.717   4.131
25858WAT     H277817   3.614   0.605   4.082
25859WAT      O77818   3.493   5.710   6.549
25859WAT     H177819   3.575   5.729   6.495
25859WAT     H277820   3.479   5.783   6.616
25860WAT      O77821   4.890   5.179   9.784
25860WAT     H177822   4.969   5.198   9.726
25860WAT     H277823   4.835   5.262   9.795
25861WAT      O77824   3.217   4.298   2.821
25861WAT     H177825   3.221   4.321   2.918
25861WAT     H277826   3.296   4.244   2.796
25862WAT      O77827   8.943   8.877   7.453
25862WAT     H177828   8.971   8.781   7.443
25862WAT     H277829   8.953   8.924   7.365
25863WAT      O77830   9.777   2.550   7.177
25863WAT     H177831   9.693   2.503   7.148
25863WAT     H277832   9.753   2.635   7.223
25864WAT      O77833   2.264   0.959   9.015
25864WAT     H177834   2.172   0.965   9.052
25864WAT     H277835   2.311   0.879   9.053
25865WAT      O77836   5.515   1.560   2.355
25865WAT     H177837   5.450   1.554   2.431
25865WAT     H277838   5.592   1.498   2.372
25866WAT      O77839   0.077   5.910   0.403
25866WAT     H177840   0.030   5.994   0.431
25866WAT     H277841   0.170   5.932   0.375
25867WAT      O77842   1.709   4.568   5.570
25867WAT     H177843   1.656   4.610   5.643
25867WAT     H277844   1.790   4.523   5.609
25868WAT      O77845   1.481   1.608   1.611
25868WAT     H177846   1.484   1.595   1.512
25868WAT     H277847   1.497   1.521   1.657
25869WAT      O77848   8.558   4.613   9.217
25869WAT     H177849   8.577   4.682   9.147
25869WAT     H277850   8.546   4.659   9.305
25870WAT      O77851   6.467   3.310   6.590
25870WAT     H177852   6.555   3.283   6.630
25870WAT     H277853   6.449   3.406   6.612
25871WAT      O77854   0.219   0.292   8.264
25871WAT     H177855   0.289   0.238   8.218
25871WAT     H277856   0.137   0.236   8.278
25872WAT      O77857   9.123   9.018   0.444
25872WAT     H177858   9.164   9.013   0.353
25872WAT     H277859   9.118   8.926   0.484
25873WAT      O77860   6.296   8.786   5.343
25873WAT     H177861   6.386   8.829   5.345
25873WAT     H277862   6.303   8.693   5.306
25874WAT      O77863   7.983   6.920   6.153
25874WAT     H177864   7.968   7.018   6.146
25874WAT     H277865   7.898   6.875   6.182
25875WAT      O77866   6.793   5.954   7.346
25875WAT     H177867   6.820   5.873   7.294
25875WAT     H277868   6.842   5.955   7.433
25876WAT      O77869   7.556   4.414   5.747
25876WAT     H177870   7.516   4.417   5.655
25876WAT     H277871   7.607   4.498   5.763
25877WAT      O77872   9.140   4.438   8.181
25877WAT     H177873   9.185   4.527   8.176
25877WAT     H277874   9.209   4.366   8.188
25878WAT      O77875   0.635   6.838   2.852
25878WAT     H177876   0.621   6.814   2.948
25878WAT     H277877   0.715   6.790   2.816
25879WAT      O77878   0.956   3.128   9.050
25879WAT     H177879   1.010   3.126   8.966
25879WAT     H277880   0.915   3.038   9.065
25880WAT      O77881   1.060   2.497   4.027
25880WAT     H177882   1.091   2.426   4.091
25880WAT     H277883   0.965   2.522   4.048
25881WAT      O77884   1.100   6.637   7.342
25881WAT     H177885   1.180   6.597   7.388
25881WAT     H277886   1.128   6.717   7.290
25882WAT      O77887   9.011   2.635   8.347
25882WAT     H177888   9.062   2.712   8.309
25882WAT     H277889   9.063   2.550   8.333
25883WAT      O77890   3.844   7.317   2.892
25883WAT     H177891   3.940   7.318   2.922
25883WAT     H277892   3.827   7.396   2.833
25884WAT      O77893   5.655   4.857   8.795
25884WAT     H177894   5.704   4.910   8.727
25884WAT     H277895   5.556   4.864   8.778
25885WAT      O77896   6.788   3.033   5.212
25885WAT     H177897   6.751   3.123   5.234
25885WAT     H277898   6.724   2.962   5.241
25886WAT      O77899   3.008   6.150   1.673
25886WAT     H177900   2.922   6.142   1.722
25886WAT     H277901   3.083   6.117   1.730
25887WAT      O77902   0.094   9.805   3.154
25887WAT     H177903   0.139   9.732   3.103
25887WAT     H277904   0.034   9.765   3.224
25888WAT      O77905   5.760   8.017   5.470
25888WAT     H177906   5.859   8.004   5.474
25888WAT     H277907   5.723   8.020   5.563
25889WAT      O77908   3.221   1.873   1.055
25889WAT     H177909   3.223   1.967   1.022
25889WAT     H277910   3.126   1.841   1.058
25890WAT      O77911   3.587   3.266   6.298
25890WAT     H177912   3.569   3.237   6.392
25890WAT     H277913   3.683   3.250   6.275
25891WAT      O77914   7.603   3.163   3.013
25891WAT     H177915   7.643   3.207   3.094
25891WAT     H277916   7.559   3.078   3.041
25892WAT      O77917   7.311   0.596   3.052
25892WAT     H177918   7.311   0.520   3.116
25892WAT     H277919   7.216   0.622   3.031
25893WAT      O77920   3.658   5.777   4.085
25893WAT     H177921   3.635   5.844   4.014
25893WAT     H277922   3.574   5.745   4.129
25894WAT      O77923   4.923   6.603   4.194
25894WAT     H177924   4.954   6.596   4.099
25894WAT     H277925   4.823   6.608   4.196
25895WAT      O77926   1.320   7.338   1.234
25895WAT     H177927   1.238   7.379   1.194
25895WAT     H277928   1.293   7.274   1.306
25896WAT      O77929   6.503   8.694   6.397
25896WAT     H177930   6.494   8.733   6.305
25896WAT     H277931   6.414   8.693   6.442
25897WAT      O77932   6.417   2.156   2.815
25897WAT     H177933   6.491   2.107   2.769
25897WAT     H277934   6.456   2.235   2.864
25898WAT      O77935   6.048   2.039   1.267
25898WAT     H177936   6.091   1.955   1.235
25898WAT     H277937   6.062   2.048   1.365
25899WAT      O77938   3.491   4.816   5.135
25899WAT     H177939   3.395   4.807   5.110
25899WAT     H277940   3.513   4.751   5.208
25900WAT      O77941   9.208   0.361   1.546
25900WAT     H177942   9.146   0.306   1.491
25900WAT     H277943   9.265   0.417   1.485
25901WAT      O77944   0.761   5.523   7.515
25901WAT     H177945   0.743   5.539   7.612
25901WAT     H277946   0.675   5.511   7.467
25902WAT      O77947   6.933   7.035   0.655
25902WAT     H177948   7.004   7.105   0.653
25902WAT     H277949   6.897   7.026   0.748
25903WAT      O77950   8.622   7.490   8.492
25903WAT     H177951   8.529   7.454   8.487
25903WAT     H277952   8.682   7.438   8.431
25904WAT      O77953   5.475   8.618   5.800
25904WAT     H177954   5.450   8.665   5.884
25904WAT     H277955   5.409   8.546   5.781
25905WAT      O77956   9.544   2.436   8.409
25905WAT     H177957   9.446   2.415   8.402
25905WAT     H277958   9.581   2.394   8.491
25906WAT      O77959   7.290   4.609   8.711
25906WAT     H177960   7.239   4.662   8.643
25906WAT     H277961   7.315   4.520   8.672
25907WAT      O77962   5.690   3.818   0.736
25907WAT     H177963   5.773   3.864   0.767
25907WAT     H277964   5.612   3.880   0.746
25908WAT      O77965   2.529   0.748   0.403
25908WAT     H177966   2.628   0.736   0.407
25908WAT     H277967   2.501   0.762   0.308
25909WAT      O77968   7.281   4.416   3.706
25909WAT     H177969   7.290   4.316   3.714
25909WAT     H277970   7.291   4.443   3.610
25910WAT      O77971   5.495   5.987   8.421
25910WAT     H177972   5.594   6.002   8.415
25910WAT     H277973   5.466   5.993   8.517
25911WAT      O77974   9.335   4.439   3.013
25911WAT     H177975   9.308   4.365   3.075
25911WAT     H277976   9.297   4.421   2.922
25912WAT      O77977   7.457   4.504   6.928
25912WAT     H177978   7.399   4.573   6.884
25912WAT     H277979   7.422   4.485   7.020
25913WAT      O77980   6.967   1.196   5.619
25913WAT     H177981   6.958   1.257   5.698
25913WAT     H277982   7.003   1.108   5.649
25914WAT      O77983   5.548   8.011   7.102
25914WAT     H177984   5.543   7.914   7.125
25914WAT     H277985   5.462   8.040   7.060
25915WAT      O77986   7.066   6.481   2.433
25915WAT     H177987   7.026   6.422   2.502
25915WAT     H277988   7.166   6.475   2.436
25916WAT      O77989   2.306   4.188   6.718
25916WAT     H177990   2.359   4.136   6.652
25916WAT     H277991   2.353   4.273   6.740
25917WAT      O77992   7.266   4.487   2.461
25917WAT     H177993   7.325   4.510   2.538
25917WAT     H277994   7.180   4.449   2.494
25918WAT      O77995   3.823   1.080   6.582
25918WAT     H177996   3.907   1.134   6.574
25918WAT     H277997   3.846   0.985   6.600
25919WAT      O77998   1.531   0.688   3.226
25919WAT     H177999   1.520   0.603   3.175
25919WAT     H278000   1.466   0.691   3.301
25920WAT      O78001   1.145   4.294   7.555
25920WAT     H178002   1.220   4.232   7.580
25920WAT     H278003   1.157   4.325   7.461
25921WAT      O78004   8.586   0.087   6.950
25921WAT     H178005   8.547   0.005   6.908
25921WAT     H278006   8.521   0.126   7.014
25922WAT      O78007   7.866   7.480   5.368
25922WAT     H178008   7.842   7.447   5.277
25922WAT     H278009   7.800   7.548   5.398
25923WAT      O78010   8.477   6.927   9.574
25923WAT     H178011   8.540   6.896   9.645
25923WAT     H278012   8.514   6.903   9.484
25924WAT      O78013   5.844   1.748   0.669
25924WAT     H178014   5.773   1.814   0.689
25924WAT     H278015   5.909   1.787   0.603
25925WAT      O78016   0.043   3.381   6.257
25925WAT     H178017  -0.038   3.372   6.315
25925WAT     H278018   0.125   3.369   6.313
25926WAT      O78019   6.093   0.493   7.244
25926WAT     H178020   6.149   0.575   7.228
25926WAT     H278021   6.063   0.491   7.339
25927WAT      O78022   3.121   3.266   9.605
25927WAT     H178023   3.068   3.351   9.612
25927WAT     H278024   3.218   3.285   9.621
25928WAT      O78025   2.042   0.769   4.122
25928WAT     H178026   1.969   0.833   4.145
25928WAT     H278027   2.065   0.715   4.203
25929WAT      O78028   4.384   7.659   0.977
25929WAT     H178029   4.356   7.752   0.953
25929WAT     H278030   4.376   7.600   0.896
25930WAT      O78031   6.694   5.429   2.644
25930WAT     H178032   6.641   5.427   2.729
25930WAT     H278033   6.779   5.377   2.657
25931WAT      O78034   4.105   5.620   3.550
25931WAT     H178035   4.141   5.618   3.644
25931WAT     H278036   4.098   5.526   3.516
25932WAT      O78037   3.746   2.908   4.935
25932WAT     H178038   3.680   2.961   4.987
25932WAT     H278039   3.751   2.942   4.841
25933WAT      O78040   8.716   3.371   9.620
25933WAT     H178041   8.622   3.405   9.621
25933WAT     H278042   8.779   3.444   9.648
25934WAT      O78043   4.611   2.666   7.000
25934WAT     H178044   4.612   2.670   6.900
25934WAT     H278045   4.614   2.571   7.030
25935WAT      O78046   5.872   7.051   5.382
25935WAT     H178047   5.814   7.069   5.303
25935WAT     H278048   5.869   7.129   5.444
25936WAT      O78049   6.589   2.350   0.840
25936WAT     H178050   6.635   2.273   0.796
25936WAT     H278051   6.551   2.411   0.771
25937WAT      O78052   0.277   0.690   7.868
25937WAT     H178053   0.226   0.631   7.932
25937WAT     H278054   0.293   0.640   7.783
25938WAT      O78055   3.281   1.209   8.347
25938WAT     H178056   3.213   1.158   8.294
25938WAT     H278057   3.261   1.201   8.444
25939WAT      O78058   8.648   1.940   1.133
25939WAT     H178059   8.699   1.858   1.108
25939WAT     H278060   8.557   1.914   1.168
25940WAT      O78061   2.031   9.703   5.840
25940WAT     H178062   2.064   9.779   5.896
25940WAT     H278063   1.946   9.668   5.879
25941WAT      O78064   9.587   7.709   2.632
25941WAT     H178065   9.536   7.653   2.697
25941WAT     H278066   9.680   7.674   2.624
25942WAT      O78067   7.074   9.156   3.593
25942WAT     H178068   7.026   9.072   3.569
25942WAT     H278069   7.173   9.143   3.581
25943WAT      O78070   9.545   5.122   0.725
25943WAT     H178071   9.462   5.146   0.675
25943WAT     H278072   9.555   5.184   0.803
25944WAT      O78073   4.321   6.194   3.913
25944WAT     H178074   4.314   6.194   4.013
25944WAT     H278075   4.385   6.124   3.884
25945WAT      O78076   1.532   7.963   2.659
25945WAT     H178077   1.531   7.954   2.559
25945WAT     H278078   1.626   7.979   2.690
25946WAT      O78079   8.568   4.070   6.182
25946WAT     H178080   8.482   4.095   6.137
25946WAT     H278081   8.585   3.972   6.170
25947WAT      O78082   0.457   9.593   3.833
25947WAT     H178083   0.458   9.493   3.830
25947WAT     H278084   0.406   9.623   3.913
25948WAT      O78085   3.490   0.355   2.632
25948WAT     H178086   3.563   0.340   2.566
25948WAT     H278087   3.496   0.449   2.668
25949WAT      O78088   6.603   0.595   0.599
25949WAT     H178089   6.571   0.500   0.595
25949WAT     H278090   6.571   0.637   0.684
25950WAT      O78091   3.466   8.341   3.947
25950WAT     H178092   3.485   8.244   3.931
25950WAT     H278093   3.445   8.355   4.044
25951WAT      O78094   2.158   0.016   8.660
25951WAT     H178095   2.239   0.007   8.718
25951WAT     H278096   2.167  -0.045   8.581
25952WAT      O78097   7.098   8.524   6.731
25952WAT     H178098   7.074   8.442   6.678
25952WAT     H278099   7.025   8.545   6.796
25953WAT      O78100   7.133   6.436   1.519
25953WAT     H178101   7.228   6.422   1.547
25953WAT     H278102   7.072   6.418   1.597
25954WAT      O78103   8.519   9.318   5.073
25954WAT     H178104   8.474   9.229   5.060
25954WAT     H278105   8.607   9.318   5.025
25955WAT      O78106   5.622   2.600   8.357
25955WAT     H178107   5.715   2.632   8.341
25955WAT     H278108   5.578   2.657   8.426
25956WAT      O78109   6.032   0.907   3.184
25956WAT     H178110   6.011   0.816   3.149
25956WAT     H278111   6.066   0.900   3.278
25957WAT      O78112   7.802   6.241   2.028
25957WAT     H178113   7.857   6.158   2.020
25957WAT     H278114   7.856   6.320   1.999
25958WAT      O78115   2.416   6.512   6.925
25958WAT     H178116   2.382   6.441   6.987
25958WAT     H278117   2.436   6.595   6.976
25959WAT      O78118   4.128   2.651   1.704
25959WAT     H178119   4.036   2.613   1.694
25959WAT     H278120   4.130   2.711   1.784
25960WAT      O78121   4.105   0.827   8.865
25960WAT     H178122   4.042   0.751   8.877
25960WAT     H278123   4.086   0.872   8.778
25961WAT      O78124   4.256   3.973   3.126
25961WAT     H178125   4.269   3.906   3.053
25961WAT     H278126   4.161   3.970   3.157
25962WAT      O78127   2.271   5.359   8.385
25962WAT     H178128   2.195   5.341   8.447
25962WAT     H278129   2.357   5.353   8.436
25963WAT      O78130   1.836   0.528   9.774
25963WAT     H178131   1.882   0.466   9.711
25963WAT     H278132   1.862   0.622   9.752
25964WAT      O78133   3.659   7.981   6.640
25964WAT     H178134   3.665   8.079   6.622
25964WAT     H278135   3.657   7.966   6.739
25965WAT      O78136   3.823   4.804   5.945
25965WAT     H178137   3.910   4.821   5.992
25965WAT     H278138   3.769   4.738   5.997
25966WAT      O78139   8.256   6.576   7.847
25966WAT     H178140   8.166   6.614   7.870
25966WAT     H278141   8.251   6.527   7.760
25967WAT      O78142   6.606   2.930   6.686
25967WAT     H178143   6.553   2.983   6.620
25967WAT     H278144   6.546   2.864   6.732
25968WAT      O78145   1.427   8.158   7.331
25968WAT     H178146   1.432   8.061   7.353
25968WAT     H278147   1.498   8.181   7.264
25969WAT      O78148   9.723   0.745   4.912
25969WAT     H178149   9.708   0.758   4.814
25969WAT     H278150   9.819   0.764   4.933
25970WAT      O78151   6.708   5.143   6.829
25970WAT     H178152   6.797   5.137   6.874
25970WAT     H278153   6.668   5.051   6.821
25971WAT      O78154   1.741   2.877   4.521
25971WAT     H178155   1.816   2.925   4.475
25971WAT     H278156   1.771   2.785   4.546
25972WAT      O78157   9.320   4.507   0.439
25972WAT     H178158   9.316   4.589   0.382
25972WAT     H278159   9.394   4.448   0.407
25973WAT      O78160   9.540   8.690   6.189
25973WAT     H178161   9.523   8.697   6.090
25973WAT     H278162   9.606   8.618   6.207
25974WAT      O78163   0.590   7.342   8.703
25974WAT     H178164   0.685   7.340   8.672
25974WAT     H278165   0.575   7.424   8.759
25975WAT      O78166   0.805   1.437   1.700
25975WAT     H178167   0.710   1.467   1.694
25975WAT     H278168   0.818   1.384   1.783
25976WAT      O78169   7.046   2.592   5.674
25976WAT     H178170   7.016   2.500   5.699
25976WAT     H278171   6.979   2.635   5.614
25977WAT      O78172   6.207   5.759   5.612
25977WAT     H178173   6.118   5.800   5.630
25977WAT     H278174   6.200   5.696   5.534
25978WAT      O78175   1.907   2.180   6.674
25978WAT     H178176   1.844   2.156   6.747
25978WAT     H278177   1.994   2.132   6.688
25979WAT      O78178   4.719   4.039   6.826
25979WAT     H178179   4.774   3.955   6.828
25979WAT     H278180   4.743   4.097   6.904
25980WAT      O78181   0.700   8.528   3.752
25980WAT     H178182   0.665   8.515   3.845
25980WAT     H278183   0.696   8.624   3.728
25981WAT      O78184   4.798   2.629   3.503
25981WAT     H178185   4.770   2.621   3.599
25981WAT     H278186   4.880   2.575   3.488
25982WAT      O78187   7.182   0.141   3.856
25982WAT     H178188   7.094   0.125   3.901
25982WAT     H278189   7.196   0.073   3.785
25983WAT      O78190   1.408   0.760   8.498
25983WAT     H178191   1.495   0.712   8.484
25983WAT     H278192   1.424   0.858   8.502
25984WAT      O78193   8.337   0.571   7.521
25984WAT     H178194   8.414   0.507   7.513
25984WAT     H278195   8.353   0.650   7.462
25985WAT      O78196   0.533   3.939   2.330
25985WAT     H178197   0.506   3.990   2.249
25985WAT     H278198   0.632   3.921   2.327
25986WAT      O78199   1.578   2.905   9.114
25986WAT     H178200   1.635   2.917   9.033
25986WAT     H278201   1.635   2.909   9.196
25987WAT      O78202   6.753   3.501   6.291
25987WAT     H178203   6.699   3.422   6.320
25987WAT     H278204   6.773   3.493   6.193
25988WAT      O78205   5.552   7.987   4.435
25988WAT     H178206   5.456   8.007   4.420
25988WAT     H278207   5.564   7.948   4.526
25989WAT      O78208   9.502   2.667   1.565
25989WAT     H178209   9.559   2.630   1.492
25989WAT     H278210   9.472   2.759   1.540
25990WAT      O78211   6.410   1.537   5.236
25990WAT     H178212   6.352   1.601   5.286
25990WAT     H278213   6.363   1.507   5.153
25991WAT      O78214   9.352   2.041   5.304
25991WAT     H178215   9.359   1.965   5.370
25991WAT     H278216   9.256   2.064   5.291
25992WAT      O78217   2.390   5.175   9.667
25992WAT     H178218   2.342   5.088   9.679
25992WAT     H278219   2.450   5.191   9.745
25993WAT      O78220   7.471   5.345   5.694
25993WAT     H178221   7.528   5.317   5.772
25993WAT     H278222   7.451   5.265   5.637
25994WAT      O78223   2.538   2.478   5.042
25994WAT     H178224   2.473   2.552   5.059
25994WAT     H278225   2.587   2.497   4.957
25995WAT      O78226   8.692   0.315   0.485
25995WAT     H178227   8.602   0.270   0.487
25995WAT     H278228   8.684   0.407   0.521
25996WAT      O78229   8.051   3.787   1.537
25996WAT     H178230   8.122   3.834   1.484
25996WAT     H278231   7.997   3.854   1.587
25997WAT      O78232   3.326   2.499   7.860
25997WAT     H178233   3.258   2.428   7.838
25997WAT     H278234   3.418   2.461   7.848
25998WAT      O78235   3.651   6.656   0.095
25998WAT     H178236   3.602   6.744   0.087
25998WAT     H278237   3.635   6.618   0.186
25999WAT      O78238   1.928   5.473   0.021
25999WAT     H178239   1.842   5.492   0.069
25999WAT     H278240   1.910   5.466  -0.077
26000WAT      O78241   1.453   4.946   1.967
26000WAT     H178242   1.448   4.855   2.009
26000WAT     H278243   1.364   4.969   1.928
26001WAT      O78244   0.913   8.168   8.605
26001WAT     H178245   0.903   8.069   8.614
26001WAT     H278246   0.994   8.189   8.550
26002WAT      O78247   2.308   9.043   3.673
26002WAT     H178248   2.251   9.113   3.715
26002WAT     H278249   2.361   9.083   3.598
26003WAT      O78250   7.761   1.332   0.005
26003WAT     H178251   7.770   1.429   0.028
26003WAT     H278252   7.673   1.298   0.037
26004WAT      O78253   0.892   6.861   1.396
26004WAT     H178254   0.825   6.804   1.444
26004WAT     H278255   0.975   6.870   1.452
26005WAT      O78256   7.480   3.950   9.790
26005WAT     H178257   7.571   3.933   9.827
26005WAT     H278258   7.467   4.048   9.776
26006WAT      O78259   4.400   4.896   0.935
26006WAT     H178260   4.487   4.935   0.905
26006WAT     H278261   4.363   4.951   1.010
26007WAT      O78262   6.873   0.090   9.868
26007WAT     H178263   6.938   0.153   9.910
26007WAT     H278264   6.795   0.141   9.832
26008WAT      O78265   2.453   8.496   2.766
26008WAT     H178266   2.499   8.546   2.693
26008WAT     H278267   2.368   8.543   2.790
26009WAT      O78268   2.086   1.043   4.026
26009WAT     H178269   2.019   1.090   4.083
26009WAT     H278270   2.092   0.947   4.055
26010WAT      O78271   6.757   3.477   1.137
26010WAT     H178272   6.829   3.506   1.073
26010WAT     H278273   6.781   3.505   1.230
26011WAT      O78274   0.096   1.248   0.929
26011WAT     H178275   0.172   1.246   0.995
26011WAT     H278276   0.100   1.167   0.871
26012WAT      O78277   7.623   4.005   4.656
26012WAT     H178278   7.553   4.075   4.672
26012WAT     H278279   7.606   3.928   4.717
26013WAT      O78280   1.086   0.674   4.199
26013WAT     H178281   1.025   0.714   4.267
26013WAT     H278282   1.159   0.739   4.177
26014WAT      O78283   7.607   5.616   2.318
26014WAT     H178284   7.593   5.693   2.256
26014WAT     H278285   7.523   5.563   2.326
26015WAT      O78286   5.413   8.852   7.129
26015WAT     H178287   5.449   8.821   7.041
26015WAT     H278288   5.313   8.848   7.128
26016WAT      O78289   9.067   6.390   0.189
26016WAT     H178290   9.066   6.327   0.112
26016WAT     H278291   9.156   6.436   0.193
26017WAT      O78292   7.134   3.828   1.521
26017WAT     H178293   7.090   3.804   1.434
26017WAT     H278294   7.229   3.855   1.504
26018WAT      O78295   3.440   9.330   3.168
26018WAT     H178296   3.474   9.400   3.106
26018WAT     H278297   3.367   9.367   3.224
26019WAT      O78298   0.751   9.104   8.547
26019WAT     H178299   0.733   9.199   8.526
26019WAT     H278300   0.731   9.087   8.644
26020WAT      O78301   5.223   8.264   4.640
26020WAT     H178302   5.295   8.330   4.620
26020WAT     H278303   5.217   8.249   4.739
26021WAT      O78304   9.389   8.673   9.590
26021WAT     H178305   9.322   8.670   9.516
26021WAT     H278306   9.399   8.768   9.622
26022WAT      O78307   4.028   0.065   9.184
26022WAT     H178308   3.975   0.022   9.257
26022WAT     H278309   4.097   0.001   9.151
26023WAT      O78310   6.739   1.197   9.327
26023WAT     H178311   6.766   1.290   9.306
26023WAT     H278312   6.721   1.189   9.426
26024WAT      O78313   5.759   7.034   3.461
26024WAT     H178314   5.770   7.004   3.556
26024WAT     H278315   5.846   7.068   3.426
26025WAT      O78316   9.393   7.398   0.489
26025WAT     H178317   9.300   7.397   0.525
26025WAT     H278318   9.395   7.446   0.402
26026WAT      O78319   2.519   2.498   9.045
26026WAT     H178320   2.514   2.426   9.114
26026WAT     H278321   2.594   2.479   8.981
26027WAT      O78322   3.579   6.242   6.821
26027WAT     H178323   3.510   6.250   6.749
26027WAT     H278324   3.542   6.189   6.897
26028WAT      O78325   6.952   4.175   1.168
26028WAT     H178326   6.893   4.246   1.128
26028WAT     H278327   6.982   4.204   1.259
26029WAT      O78328   5.749   7.843   4.325
26029WAT     H178329   5.666   7.881   4.366
26029WAT     H278330   5.729   7.815   4.231
26030WAT      O78331   7.623   8.062   1.013
26030WAT     H178332   7.564   8.032   0.939
26030WAT     H278333   7.588   8.147   1.052
26031WAT      O78334   6.717   7.585   9.392
26031WAT     H178335   6.816   7.585   9.375
26031WAT     H278336   6.675   7.509   9.343
26032WAT      O78337   9.854   8.762   4.011
26032WAT     H178338   9.764   8.802   3.993
26032WAT     H278339   9.844   8.666   4.036
26033WAT      O78340   3.376   1.644   0.954
26033WAT     H178341   3.329   1.722   0.995
26033WAT     H278342   3.462   1.629   1.002
26034WAT      O78343   8.402   8.945   6.101
26034WAT     H178344   8.488   8.959   6.052
26034WAT     H278345   8.399   9.003   6.182
26035WAT      O78346   2.499   8.637   1.466
26035WAT     H178347   2.592   8.632   1.503
26035WAT     H278348   2.438   8.579   1.521
26036WAT      O78349   2.838   5.999   1.008
26036WAT     H178350   2.796   6.011   1.098
26036WAT     H278351   2.826   5.905   0.978
26037WAT      O78352   0.467   5.724   4.969
26037WAT     H178353   0.397   5.687   4.909
26037WAT     H278354   0.514   5.649   5.016
26038WAT      O78355   0.613   7.611   3.754
26038WAT     H178356   0.635   7.695   3.803
26038WAT     H278357   0.521   7.619   3.714
26039WAT      O78358   6.471   4.902   4.786
26039WAT     H178359   6.466   4.837   4.710
26039WAT     H278360   6.380   4.914   4.826
26040WAT      O78361   6.802   2.057   7.088
26040WAT     H178362   6.879   2.100   7.041
26040WAT     H278363   6.759   1.991   7.027
26041WAT      O78364   8.490   6.600   2.921
26041WAT     H178365   8.518   6.531   2.988
26041WAT     H278366   8.515   6.568   2.829
26042WAT      O78367   1.889   3.415   1.565
26042WAT     H178368   1.873   3.511   1.590
26042WAT     H278369   1.802   3.373   1.540
26043WAT      O78370   7.414   3.265   9.073
26043WAT     H178371   7.473   3.309   9.006
26043WAT     H278372   7.390   3.330   9.146
26044WAT      O78373   0.699   8.509   9.372
26044WAT     H178374   0.729   8.526   9.278
26044WAT     H278375   0.647   8.589   9.405
26045WAT      O78376   1.054   6.479   3.153
26045WAT     H178377   1.151   6.492   3.174
26045WAT     H278378   0.999   6.504   3.233
26046WAT      O78379   6.184   5.164   0.919
26046WAT     H178380   6.089   5.192   0.906
26046WAT     H278381   6.190   5.064   0.916
26047WAT      O78382   4.335   8.899   0.166
26047WAT     H178383   4.421   8.938   0.199
26047WAT     H278384   4.261   8.924   0.229
26048WAT      O78385   4.595   3.548   3.154
26048WAT     H178386   4.661   3.541   3.229
26048WAT     H278387   4.532   3.624   3.171
26049WAT      O78388   8.806   9.495   4.228
26049WAT     H178389   8.761   9.410   4.255
26049WAT     H278390   8.878   9.515   4.294
26050WAT      O78391   1.326   5.288   7.133
26050WAT     H178392   1.393   5.362   7.142
26050WAT     H278393   1.239   5.316   7.174
26051WAT      O78394   3.657   5.119   1.867
26051WAT     H178395   3.707   5.050   1.815
26051WAT     H278396   3.706   5.142   1.950
26052WAT      O78397   3.593   2.108   9.620
26052WAT     H178398   3.672   2.048   9.619
26052WAT     H278399   3.549   2.109   9.530
26053WAT      O78400   7.900   0.671   4.755
26053WAT     H178401   7.856   0.759   4.737
26053WAT     H278402   7.999   0.680   4.741
26054WAT      O78403   5.134   6.047   5.113
26054WAT     H178404   5.065   6.004   5.172
26054WAT     H278405   5.107   6.037   5.018
26055WAT      O78406   6.767   4.575   1.526
26055WAT     H178407   6.864   4.557   1.542
26055WAT     H278408   6.732   4.511   1.457
26056WAT      O78409   9.815   7.539   9.609
26056WAT     H178410   9.890   7.506   9.667
26056WAT     H278411   9.851   7.603   9.541
26057WAT      O78412   0.751   5.999   4.069
26057WAT     H178413   0.701   6.028   3.988
26057WAT     H278414   0.717   5.910   4.100
26058WAT      O78415   2.414   0.170   5.678
26058WAT     H178416   2.491   0.142   5.736
26058WAT     H278417   2.449   0.220   5.599
26059WAT      O78418   1.066   7.447   3.084
26059WAT     H178419   1.054   7.489   3.174
26059WAT     H278420   0.982   7.399   3.058
26060WAT      O78421   7.840   1.841   8.747
26060WAT     H178422   7.842   1.870   8.651
26060WAT     H278423   7.908   1.892   8.799
26061WAT      O78424   3.405   4.620   9.876
26061WAT     H178425   3.427   4.612   9.778
26061WAT     H278426   3.333   4.687   9.889
26062WAT      O78427   0.726   1.569   8.507
26062WAT     H178428   0.627   1.568   8.496
26062WAT     H278429   0.765   1.484   8.472
26063WAT      O78430   5.685   3.723   4.217
26063WAT     H178431   5.631   3.728   4.133
26063WAT     H278432   5.767   3.668   4.201
26064WAT      O78433   9.292   5.150   0.497
26064WAT     H178434   9.269   5.145   0.400
26064WAT     H278435   9.331   5.240   0.518
26065WAT      O78436   5.622   8.258   6.347
26065WAT     H178437   5.626   8.158   6.359
26065WAT     H278438   5.712   8.291   6.318
26066WAT      O78439   8.385   3.136   2.161
26066WAT     H178440   8.313   3.143   2.091
26066WAT     H278441   8.452   3.209   2.146
26067WAT      O78442   8.532   8.120   2.382
26067WAT     H178443   8.572   8.184   2.447
26067WAT     H278444   8.507   8.168   2.298
26068WAT      O78445   3.598   1.134   5.456
26068WAT     H178446   3.667   1.062   5.467
26068WAT     H278447   3.507   1.093   5.466
26069WAT      O78448   7.372   0.777   4.682
26069WAT     H178449   7.373   0.690   4.633
26069WAT     H278450   7.419   0.767   4.770
26070WAT      O78451   3.838   3.883   4.337
26070WAT     H178452   3.847   3.810   4.405
26070WAT     H278453   3.746   3.920   4.340
26071WAT      O78454   3.429   5.364   2.194
26071WAT     H178455   3.367   5.292   2.225
26071WAT     H278456   3.397   5.399   2.106
26072WAT      O78457   4.166   1.732   1.236
26072WAT     H178458   4.255   1.704   1.200
26072WAT     H278459   4.093   1.682   1.188
26073WAT      O78460   2.196   0.449   4.632
26073WAT     H178461   2.245   0.362   4.624
26073WAT     H278462   2.103   0.433   4.663
26074WAT      O78463   6.704   4.239   4.304
26074WAT     H178464   6.804   4.246   4.304
26074WAT     H278465   6.669   4.264   4.395
26075WAT      O78466   5.073   1.042   0.788
26075WAT     H178467   5.094   0.961   0.843
26075WAT     H278468   4.973   1.049   0.777
26076WAT      O78469   9.070   9.296   8.015
26076WAT     H178470   9.102   9.308   7.921
26076WAT     H278471   8.976   9.262   8.014
26077WAT      O78472   8.599   4.853   0.023
26077WAT     H178473   8.633   4.824  -0.066
26077WAT     H278474   8.537   4.931   0.012
26078WAT      O78475   4.949   2.342   6.895
26078WAT     H178476   5.026   2.406   6.893
26078WAT     H278477   4.984   2.248   6.895
26079WAT      O78478   1.753   3.437   0.418
26079WAT     H178479   1.740   3.526   0.461
26079WAT     H278480   1.701   3.432   0.333
26080WAT      O78481   2.773   7.257   3.474
26080WAT     H178482   2.704   7.186   3.457
26080WAT     H278483   2.769   7.325   3.401
26081WAT      O78484   1.503   1.185   6.863
26081WAT     H178485   1.554   1.101   6.883
26081WAT     H278486   1.456   1.175   6.775
26082WAT      O78487   8.291   2.646   8.608
26082WAT     H178488   8.350   2.674   8.532
26082WAT     H278489   8.198   2.629   8.574
26083WAT      O78490   3.049   3.989   1.105
26083WAT     H178491   3.146   3.974   1.088
26083WAT     H278492   3.030   4.087   1.110
26084WAT      O78493   4.179   3.492   3.760
26084WAT     H178494   4.199   3.395   3.775
26084WAT     H278495   4.080   3.503   3.748
26085WAT      O78496   6.930   0.897   2.301
26085WAT     H178497   6.919   0.799   2.320
26085WAT     H278498   7.022   0.913   2.264
26086WAT      O78499   3.000   6.189   6.671
26086WAT     H178500   3.018   6.211   6.575
26086WAT     H278501   2.928   6.249   6.706
26087WAT      O78502   4.810   7.486   4.626
26087WAT     H178503   4.823   7.483   4.725
26087WAT     H278504   4.787   7.579   4.598
26088WAT      O78505   4.545   5.055   9.494
26088WAT     H178506   4.511   5.033   9.586
26088WAT     H278507   4.577   5.150   9.492
26089WAT      O78508   2.419   3.836   6.861
26089WAT     H178509   2.438   3.841   6.763
26089WAT     H278510   2.323   3.859   6.877
26090WAT      O78511   3.016   8.409   1.374
26090WAT     H178512   3.048   8.411   1.468
26090WAT     H278513   2.940   8.344   1.365
26091WAT      O78514   3.257   3.162   1.122
26091WAT     H178515   3.179   3.127   1.174
26091WAT     H278516   3.261   3.116   1.034
26092WAT      O78517   8.784   1.730   8.604
26092WAT     H178518   8.858   1.724   8.537
26092WAT     H278519   8.700   1.757   8.558
26093WAT      O78520   7.871   5.609   2.274
26093WAT     H178521   7.936   5.572   2.341
26093WAT     H278522   7.780   5.575   2.294
26094WAT      O78523   3.561   3.424   3.359
26094WAT     H178524   3.594   3.504   3.408
26094WAT     H278525   3.528   3.451   3.269
26095WAT      O78526   7.983   0.742   7.270
26095WAT     H178527   8.027   0.811   7.211
26095WAT     H278528   8.049   0.670   7.291
26096WAT      O78529   0.824   3.731   7.657
26096WAT     H178530   0.789   3.666   7.589
26096WAT     H278531   0.887   3.685   7.718
26097WAT      O78532   5.725   8.586   6.042
26097WAT     H178533   5.798   8.591   6.110
26097WAT     H278534   5.763   8.603   5.951
26098WAT      O78535   6.818   8.075   9.560
26098WAT     H178536   6.803   7.993   9.615
26098WAT     H278537   6.737   8.092   9.504
26099WAT      O78538   3.381   3.257   5.783
26099WAT     H178539   3.450   3.293   5.846
26099WAT     H278540   3.371   3.159   5.796
26100WAT      O78541   6.425   2.234   9.283
26100WAT     H178542   6.327   2.216   9.274
26100WAT     H278543   6.468   2.159   9.332
26101WAT      O78544   5.503   5.814   7.234
26101WAT     H178545   5.515   5.727   7.185
26101WAT     H278546   5.592   5.859   7.246
26102WAT      O78547   5.643   3.486   7.745
26102WAT     H178548   5.596   3.434   7.673
26102WAT     H278549   5.739   3.458   7.748
26103WAT      O78550   1.730   5.394   9.050
26103WAT     H178551   1.811   5.350   9.011
26103WAT     H278552   1.758   5.453   9.126
26104WAT      O78553   9.787   3.976   3.209
26104WAT     H178554   9.779   3.897   3.271
26104WAT     H278555   9.703   4.030   3.214
26105WAT      O78556   9.872   0.911   1.225
26105WAT     H178557   9.897   0.882   1.317
26105WAT     H278558   9.954   0.910   1.167
26106WAT      O78559   8.660   6.506   1.650
26106WAT     H178560   8.748   6.544   1.619
26106WAT     H278561   8.594   6.580   1.660
26107WAT      O78562   4.466   3.415   7.447
26107WAT     H178563   4.421   3.486   7.392
26107WAT     H278564   4.544   3.455   7.495
26108WAT      O78565   2.860   6.042   2.331
26108WAT     H178566   2.806   6.068   2.411
26108WAT     H278567   2.829   5.954   2.296
26109WAT      O78568   1.782   5.524   3.187
26109WAT     H178569   1.871   5.564   3.166
26109WAT     H278570   1.784   5.426   3.168
26110WAT      O78571   0.556   9.254   0.479
26110WAT     H178572   0.600   9.170   0.447
26110WAT     H278573   0.576   9.268   0.575
26111WAT      O78574   5.215   9.192   7.738
26111WAT     H178575   5.264   9.233   7.815
26111WAT     H278576   5.123   9.229   7.733
26112WAT      O78577   3.611   4.170   6.497
26112WAT     H178578   3.612   4.229   6.579
26112WAT     H278579   3.705   4.160   6.464
26113WAT      O78580   9.569   2.290   6.541
26113WAT     H178581   9.515   2.235   6.477
26113WAT     H278582   9.542   2.386   6.534
26114WAT      O78583   6.486   2.076   0.991
26114WAT     H178584   6.552   2.028   1.049
26114WAT     H278585   6.535   2.132   0.924
26115WAT      O78586   7.780   2.478   1.397
26115WAT     H178587   7.711   2.536   1.354
26115WAT     H278588   7.872   2.512   1.373
26116WAT      O78589   3.926   2.421   6.274
26116WAT     H178590   3.845   2.397   6.327
26116WAT     H278591   3.968   2.338   6.236
26117WAT      O78592   4.800   8.191   5.210
26117WAT     H178593   4.757   8.268   5.162
26117WAT     H278594   4.827   8.121   5.145
26118WAT      O78595   9.195   5.897   4.578
26118WAT     H178596   9.263   5.835   4.617
26118WAT     H278597   9.117   5.844   4.545
26119WAT      O78598   5.448   0.289   6.758
26119WAT     H178599   5.543   0.322   6.754
26119WAT     H278600   5.436   0.216   6.690
26120WAT      O78601   3.490   6.587   4.294
26120WAT     H178602   3.557   6.588   4.220
26120WAT     H278603   3.475   6.493   4.324
26121WAT      O78604   3.399   3.760   8.192
26121WAT     H178605   3.420   3.838   8.250
26121WAT     H278606   3.403   3.788   8.096
26122WAT      O78607   0.702   0.440   9.287
26122WAT     H178608   0.741   0.386   9.212
26122WAT     H278609   0.734   0.535   9.279
26123WAT      O78610   6.708   7.356   8.487
26123WAT     H178611   6.668   7.266   8.469
26123WAT     H278612   6.643   7.427   8.462
26124WAT      O78613   1.595   7.395   6.375
26124WAT     H178614   1.665   7.415   6.443
26124WAT     H278615   1.597   7.298   6.353
26125WAT      O78616   3.657   9.135   8.216
26125WAT     H178617   3.665   9.184   8.303
26125WAT     H278618   3.563   9.104   8.203
26126WAT      O78619   2.192   3.134   3.966
26126WAT     H178620   2.154   3.221   3.996
26126WAT     H278621   2.214   3.138   3.869
26127WAT      O78622   2.416   3.047   8.771
26127WAT     H178623   2.454   2.964   8.811
26127WAT     H278624   2.423   3.042   8.671
26128WAT      O78625   4.747   5.758   5.469
26128WAT     H178626   4.717   5.665   5.491
26128WAT     H278627   4.668   5.815   5.451
26129WAT      O78628   2.450   9.839   7.212
26129WAT     H178629   2.374   9.887   7.256
26129WAT     H278630   2.417   9.788   7.133
26130WAT      O78631   6.933   4.396   3.947
26130WAT     H178632   6.945   4.428   3.853
26130WAT     H278633   6.973   4.304   3.956
26131WAT      O78634   5.619   7.906   0.105
26131WAT     H178635   5.542   7.869   0.158
26131WAT     H278636   5.697   7.921   0.165
26132WAT      O78637   7.496   7.399   2.614
26132WAT     H178638   7.455   7.457   2.544
26132WAT     H278639   7.490   7.445   2.702
26133WAT      O78640   4.122   5.933   1.792
26133WAT     H178641   4.205   5.904   1.745
26133WAT     H278642   4.135   6.023   1.832
26134WAT      O78643   9.655   0.447   1.086
26134WAT     H178644   9.649   0.546   1.102
26134WAT     H278645   9.660   0.399   1.174
26135WAT      O78646   8.218   4.612   4.801
26135WAT     H178647   8.157   4.533   4.786
26135WAT     H278648   8.273   4.628   4.719
26136WAT      O78649   0.946   6.412   5.746
26136WAT     H178650   0.957   6.388   5.842
26136WAT     H278651   0.930   6.510   5.737
26137WAT      O78652   4.216   5.837   3.454
26137WAT     H178653   4.147   5.893   3.408
26137WAT     H278654   4.175   5.749   3.480
26138WAT      O78655   9.040   7.203   2.307
26138WAT     H178656   8.997   7.148   2.379
26138WAT     H278657   9.008   7.298   2.314
26139WAT      O78658   5.655   7.726   8.140
26139WAT     H178659   5.564   7.685   8.139
26139WAT     H278660   5.676   7.765   8.050
26140WAT      O78661   8.296   8.363   1.840
26140WAT     H178662   8.208   8.370   1.887
26140WAT     H278663   8.327   8.454   1.814
26141WAT      O78664   4.943   4.122   9.103
26141WAT     H178665   4.944   4.067   9.020
26141WAT     H278666   5.035   4.154   9.123
26142WAT      O78667   2.369   1.662   6.257
26142WAT     H178668   2.394   1.586   6.196
26142WAT     H278669   2.431   1.662   6.336
26143WAT      O78670   7.620   5.050   1.143
26143WAT     H178671   7.614   4.971   1.082
26143WAT     H278672   7.662   5.127   1.094
26144WAT      O78673   0.196   7.957   5.615
26144WAT     H178674   0.126   7.887   5.632
26144WAT     H278675   0.214   7.963   5.517
26145WAT      O78676   4.474   7.915   3.147
26145WAT     H178677   4.458   7.978   3.224
26145WAT     H278678   4.388   7.871   3.123
26146WAT      O78679   7.300   8.522   6.533
26146WAT     H178680   7.279   8.567   6.446
26146WAT     H278681   7.224   8.536   6.597
26147WAT      O78682   9.688   5.565   5.757
26147WAT     H178683   9.616   5.556   5.825
26147WAT     H278684   9.655   5.620   5.680
26148WAT      O78685   2.636   0.113   6.295
26148WAT     H178686   2.653   0.035   6.235
26148WAT     H278687   2.553   0.096   6.348
26149WAT      O78688   3.810   6.716   1.162
26149WAT     H178689   3.773   6.744   1.074
26149WAT     H278690   3.809   6.794   1.225
26150WAT      O78691   7.718   5.340   9.031
26150WAT     H178692   7.787   5.374   9.095
26150WAT     H278693   7.679   5.255   9.066
26151WAT      O78694   0.616   9.667   1.222
26151WAT     H178695   0.688   9.694   1.285
26151WAT     H278696   0.573   9.748   1.183
26152WAT      O78697   9.228   4.414   1.738
26152WAT     H178698   9.180   4.327   1.730
26152WAT     H278699   9.167   4.488   1.709
26153WAT      O78700   7.736   7.371   8.542
26153WAT     H178701   7.831   7.368   8.511
26153WAT     H278702   7.675   7.380   8.463
26154WAT      O78703   0.735   3.442   6.262
26154WAT     H178704   0.661   3.463   6.327
26154WAT     H278705   0.697   3.433   6.170
26155WAT      O78706   1.611   7.714   3.185
26155WAT     H178707   1.587   7.805   3.216
26155WAT     H278708   1.701   7.689   3.221
26156WAT      O78709   1.409   4.977   4.604
26156WAT     H178710   1.461   5.061   4.620
26156WAT     H278711   1.350   4.990   4.524
26157WAT      O78712   1.701   1.471   1.159
26157WAT     H178713   1.672   1.499   1.068
26157WAT     H278714   1.777   1.528   1.189
26158WAT      O78715   1.920   1.599   1.268
26158WAT     H178716   1.905   1.598   1.367
26158WAT     H278717   2.018   1.602   1.249
26159WAT      O78718   7.412   4.516   2.697
26159WAT     H178719   7.351   4.556   2.767
26159WAT     H278720   7.506   4.544   2.715
26160WAT      O78721   8.446   0.215   0.518
26160WAT     H178722   8.439   0.178   0.611
26160WAT     H278723   8.375   0.173   0.460
26161WAT      O78724   5.281   6.982   3.733
26161WAT     H178725   5.329   6.911   3.681
26161WAT     H278726   5.183   6.969   3.723
26162WAT      O78727   2.170   9.182   9.551
26162WAT     H178728   2.258   9.136   9.546
26162WAT     H278729   2.106   9.139   9.487
26163WAT      O78730   1.216   7.726   4.603
26163WAT     H178731   1.248   7.696   4.693
26163WAT     H278732   1.289   7.777   4.558
26164WAT      O78733   5.048   7.870   4.405
26164WAT     H178734   5.021   7.874   4.501
26164WAT     H278735   5.090   7.781   4.386
26165WAT      O78736   2.902   1.698   5.213
26165WAT     H178737   2.920   1.790   5.249
26165WAT     H278738   2.940   1.691   5.121
26166WAT      O78739   0.182   1.977   6.004
26166WAT     H178740   0.150   2.069   5.983
26166WAT     H278741   0.175   1.961   6.103
26167WAT      O78742   8.497   2.056   9.220
26167WAT     H178743   8.542   2.067   9.131
26167WAT     H278744   8.520   2.134   9.278
26168WAT      O78745   6.076   9.693   0.795
26168WAT     H178746   6.126   9.780   0.790
26168WAT     H278747   6.124   9.632   0.858
26169WAT      O78748   9.091   9.475   1.863
26169WAT     H178749   9.121   9.540   1.793
26169WAT     H278750   9.021   9.415   1.825
26170WAT      O78751   6.775   3.214   1.559
26170WAT     H178752   6.862   3.245   1.521
26170WAT     H278753   6.782   3.116   1.581
26171WAT      O78754   7.849   7.004   7.071
26171WAT     H178755   7.815   7.073   7.135
26171WAT     H278756   7.905   7.048   7.001
26172WAT      O78757   5.849   7.315   3.052
26172WAT     H178758   5.819   7.354   3.139
26172WAT     H278759   5.902   7.231   3.069
26173WAT      O78760   2.851   3.419   8.778
26173WAT     H178761   2.857   3.473   8.862
26173WAT     H278762   2.822   3.478   8.702
26174WAT      O78763   8.718   7.947   0.137
26174WAT     H178764   8.764   7.901   0.213
26174WAT     H278765   8.769   8.030   0.113
26175WAT      O78766   2.223   8.755   5.478
26175WAT     H178767   2.132   8.715   5.471
26175WAT     H278768   2.290   8.691   5.442
26176WAT      O78769   8.844   3.471   6.100
26176WAT     H178770   8.811   3.557   6.138
26176WAT     H278771   8.943   3.473   6.093
26177WAT      O78772   2.057   2.476   8.335
26177WAT     H178773   2.058   2.534   8.254
26177WAT     H278774   2.067   2.380   8.308
26178WAT      O78775   0.589   9.813   7.526
26178WAT     H178776   0.649   9.848   7.453
26178WAT     H278777   0.632   9.830   7.615
26179WAT      O78778   5.301   1.306   4.379
26179WAT     H178779   5.269   1.350   4.295
26179WAT     H278780   5.386   1.350   4.409
26180WAT      O78781   6.056   6.073   0.615
26180WAT     H178782   5.981   6.048   0.676
26180WAT     H278783   6.111   6.146   0.656
26181WAT      O78784   1.094   0.068   5.948
26181WAT     H178785   1.020   0.002   5.939
26181WAT     H278786   1.068   0.154   5.903
26182WAT      O78787   7.810   2.801   2.902
26182WAT     H178788   7.877   2.829   2.833
26182WAT     H278789   7.718   2.811   2.865
26183WAT      O78790   0.059   3.711   7.698
26183WAT     H178791   0.088   3.668   7.784
26183WAT     H278792   0.078   3.649   7.622
26184WAT      O78793   2.815   7.202   7.881
26184WAT     H178794   2.729   7.232   7.838
26184WAT     H278795   2.810   7.219   7.979
26185WAT      O78796   8.823   0.345   3.413
26185WAT     H178797   8.871   0.259   3.428
26185WAT     H278798   8.791   0.350   3.319
26186WAT      O78799   0.527   7.871   1.319
26186WAT     H178800   0.496   7.960   1.352
26186WAT     H278801   0.565   7.818   1.395
26187WAT      O78802   9.209   5.516   4.300
26187WAT     H178803   9.276   5.582   4.332
26187WAT     H278804   9.232   5.486   4.208
26188WAT      O78805   8.354   1.721   6.895
26188WAT     H178806   8.289   1.772   6.838
26188WAT     H278807   8.342   1.623   6.879
26189WAT      O78808   7.636   5.794   9.391
26189WAT     H178809   7.656   5.824   9.298
26189WAT     H278810   7.537   5.793   9.405
26190WAT      O78811   7.251   3.575   4.695
26190WAT     H178812   7.232   3.560   4.792
26190WAT     H278813   7.324   3.514   4.665
26191WAT      O78814   3.160   0.846   8.021
26191WAT     H178815   3.227   0.773   8.026
26191WAT     H278816   3.071   0.812   8.050
26192WAT      O78817   6.262   7.941   5.988
26192WAT     H178818   6.264   7.884   5.905
26192WAT     H278819   6.330   8.013   5.980
26193WAT      O78820   7.054   0.545   0.042
26193WAT     H178821   7.049   0.459   0.093
26193WAT     H278822   7.008   0.534  -0.046
26194WAT      O78823   0.854   7.823   6.125
26194WAT     H178824   0.860   7.793   6.220
26194WAT     H278825   0.935   7.877   6.102
26195WAT      O78826   7.008   1.242   2.566
26195WAT     H178827   7.041   1.216   2.475
26195WAT     H278828   7.074   1.304   2.609
26196WAT      O78829   1.685   8.280   8.278
26196WAT     H178830   1.712   8.216   8.206
26196WAT     H278831   1.586   8.276   8.292
26197WAT      O78832   1.913   8.634   2.692
26197WAT     H178833   1.928   8.645   2.594
26197WAT     H278834   1.917   8.723   2.737
26198WAT      O78835   4.833   8.831   7.508
26198WAT     H178836   4.927   8.823   7.541
26198WAT     H278837   4.801   8.741   7.477
26199WAT      O78838   8.179   3.680   3.916
26199WAT     H178839   8.137   3.657   4.004
26199WAT     H278840   8.107   3.691   3.847
26200WAT      O78841   5.047   7.406   6.897
26200WAT     H178842   5.075   7.359   6.981
26200WAT     H278843   5.117   7.473   6.872
26201WAT      O78844   7.560   1.554   3.845
26201WAT     H178845   7.536   1.651   3.837
26201WAT     H278846   7.503   1.512   3.916
26202WAT      O78847   2.165   8.541   3.324
26202WAT     H178848   2.173   8.630   3.369
26202WAT     H278849   2.184   8.551   3.226
26203WAT      O78850   5.109   6.762   5.344
26203WAT     H178851   5.064   6.826   5.281
26203WAT     H278852   5.049   6.683   5.360
26204WAT      O78853   4.515   8.074   4.049
26204WAT     H178854   4.541   8.059   4.144
26204WAT     H278855   4.543   7.996   3.994
26205WAT      O78856   6.492   1.753   7.376
26205WAT     H178857   6.573   1.791   7.419
26205WAT     H278858   6.482   1.657   7.404
26206WAT      O78859   7.832   9.261   9.780
26206WAT     H178860   7.819   9.356   9.806
26206WAT     H278861   7.919   9.227   9.816
26207WAT      O78862   6.538   5.710   6.765
26207WAT     H178863   6.497   5.801   6.773
26207WAT     H278864   6.545   5.684   6.669
26208WAT      O78865   4.127   1.204   6.805
26208WAT     H178866   4.150   1.125   6.862
26208WAT     H278867   4.106   1.174   6.712
26209WAT      O78868   9.830   0.674   5.972
26209WAT     H178869   9.833   0.733   6.053
26209WAT     H278870   9.922   0.641   5.952
26210WAT      O78871   1.432   5.778   9.621
26210WAT     H178872   1.354   5.734   9.577
26210WAT     H278873   1.477   5.839   9.556
26211WAT      O78874   2.217   3.561   7.659
26211WAT     H178875   2.303   3.513   7.642
26211WAT     H278876   2.228   3.657   7.634
26212WAT      O78877   3.570   5.382   6.317
26212WAT     H178878   3.483   5.413   6.280
26212WAT     H278879   3.571   5.282   6.323
26213WAT      O78880   5.513   3.351   7.542
26213WAT     H178881   5.437   3.382   7.484
26213WAT     H278882   5.526   3.253   7.530
26214WAT      O78883   0.932   8.392   3.752
26214WAT     H178884   0.867   8.467   3.765
26214WAT     H278885   0.959   8.355   3.841
26215WAT      O78886   3.520   8.626   8.791
26215WAT     H178887   3.516   8.526   8.792
26215WAT     H278888   3.503   8.661   8.883
26216WAT      O78889   0.763   2.344   5.341
26216WAT     H178890   0.818   2.342   5.257
26216WAT     H278891   0.750   2.250   5.375
26217WAT      O78892   4.235   0.629   5.444
26217WAT     H178893   4.287   0.649   5.361
26217WAT     H278894   4.140   0.657   5.431
26218WAT      O78895   7.030   0.897   8.803
26218WAT     H178896   7.043   0.965   8.876
26218WAT     H278897   7.013   0.808   8.844
26219WAT      O78898   3.071   0.922   9.553
26219WAT     H178899   3.139   0.946   9.484
26219WAT     H278900   3.058   0.999   9.615
26220WAT      O78901   9.023   0.426   4.845
26220WAT     H178902   9.056   0.401   4.936
26220WAT     H278903   9.096   0.409   4.778
26221WAT      O78904   4.558   9.002   0.334
26221WAT     H178905   4.491   8.966   0.399
26221WAT     H278906   4.650   8.987   0.369
26222WAT      O78907   6.975   8.900   4.336
26222WAT     H178908   7.017   8.826   4.389
26222WAT     H278909   6.989   8.987   4.384
26223WAT      O78910   7.549   7.208   0.296
26223WAT     H178911   7.584   7.275   0.231
26223WAT     H278912   7.618   7.137   0.311
26224WAT      O78913   8.440   7.549   5.371
26224WAT     H178914   8.418   7.642   5.342
26224WAT     H278915   8.384   7.526   5.451
26225WAT      O78916   3.801   7.985   0.004
26225WAT     H178917   3.896   8.011   0.016
26225WAT     H278918   3.755   7.988   0.093
26226WAT      O78919   9.256   1.969   0.751
26226WAT     H178920   9.162   1.949   0.780
26226WAT     H278921   9.268   1.941   0.656
26227WAT      O78922   9.721   4.972   1.100
26227WAT     H178923   9.755   4.978   1.006
26227WAT     H278924   9.798   4.961   1.162
26228WAT      O78925   1.002   7.563   8.611
26228WAT     H178926   0.950   7.488   8.652
26228WAT     H278927   0.987   7.563   8.512
26229WAT      O78928   1.602   3.384   4.858
26229WAT     H178929   1.559   3.306   4.904
26229WAT     H278930   1.545   3.466   4.870
26230WAT      O78931   4.008   8.896   9.269
26230WAT     H178932   4.102   8.928   9.279
26230WAT     H278933   3.945   8.969   9.295
26231WAT      O78934   8.357   5.027   7.794
26231WAT     H178935   8.411   5.109   7.812
26231WAT     H278936   8.398   4.949   7.844
26232WAT      O78937   6.149   7.032   3.531
26232WAT     H178938   6.159   7.125   3.567
26232WAT     H278939   6.127   7.036   3.434
26233WAT      O78940   2.335   6.189   7.479
26233WAT     H178941   2.268   6.185   7.405
26233WAT     H278942   2.301   6.138   7.558
26234WAT      O78943   9.311   9.742   1.412
26234WAT     H178944   9.305   9.702   1.320
26234WAT     H278945   9.408   9.755   1.436
26235WAT      O78946   1.326   8.777   3.853
26235WAT     H178947   1.318   8.780   3.952
26235WAT     H278948   1.235   8.770   3.812
26236WAT      O78949   3.306   4.825   3.089
26236WAT     H178950   3.289   4.727   3.103
26236WAT     H278951   3.267   4.853   3.002
26237WAT      O78952   4.989   6.620   8.501
26237WAT     H178953   5.037   6.707   8.502
26237WAT     H278954   5.001   6.574   8.589
26238WAT      O78955   4.087   1.406   5.813
26238WAT     H178956   4.159   1.342   5.839
26238WAT     H278957   4.086   1.482   5.878
26239WAT      O78958   2.086   7.769   4.092
26239WAT     H178959   2.018   7.811   4.152
26239WAT     H278960   2.076   7.807   4.000
26240WAT      O78961   7.872   3.654   3.008
26240WAT     H178962   7.962   3.699   3.004
26240WAT     H278963   7.884   3.555   3.001
26241WAT      O78964   3.423   4.090   2.764
26241WAT     H178965   3.503   4.134   2.725
26241WAT     H278966   3.371   4.043   2.692
26242WAT      O78967   4.951   2.863   8.226
26242WAT     H178968   4.976   2.857   8.323
26242WAT     H278969   4.952   2.772   8.186
26243WAT      O78970   7.600   3.540   6.995
26243WAT     H178971   7.659   3.620   7.007
26243WAT     H278972   7.653   3.466   6.954
26244WAT      O78973   9.669   5.256   3.750
26244WAT     H178974   9.697   5.171   3.795
26244WAT     H278975   9.592   5.237   3.689
26245WAT      O78976   0.662   9.458   1.979
26245WAT     H178977   0.608   9.415   1.906
26245WAT     H278978   0.741   9.401   2.000
26246WAT      O78979   6.422   0.880   1.665
26246WAT     H178980   6.348   0.946   1.653
26246WAT     H278981   6.384   0.791   1.691
26247WAT      O78982   2.073   9.149   6.141
26247WAT     H178983   2.148   9.214   6.133
26247WAT     H278984   1.988   9.199   6.160
26248WAT      O78985   4.619   0.194   3.372
26248WAT     H178986   4.609   0.095   3.374
26248WAT     H278987   4.705   0.220   3.416
26249WAT      O78988   5.286   0.462   3.843
26249WAT     H178989   5.290   0.536   3.775
26249WAT     H278990   5.292   0.501   3.935
26250WAT      O78991   1.631   3.323   1.516
26250WAT     H178992   1.629   3.413   1.472
26250WAT     H278993   1.602   3.253   1.450
26251WAT      O78994   7.514   3.429   4.643
26251WAT     H178995   7.582   3.490   4.684
26251WAT     H278996   7.529   3.335   4.675
26252WAT      O78997   4.293   1.265   7.487
26252WAT     H178998   4.317   1.312   7.572
26252WAT     H278999   4.265   1.171   7.507
26253WAT      O79000   1.298   6.077   0.214
26253WAT     H179001   1.367   6.138   0.173
26253WAT     H279002   1.297   5.990   0.165
26254WAT      O79003   0.631   0.154   3.404
26254WAT     H179004   0.591   0.115   3.321
26254WAT     H279005   0.649   0.251   3.389
26255WAT      O79006   6.632   6.717   4.817
26255WAT     H179007   6.551   6.730   4.759
26255WAT     H279008   6.711   6.698   4.759
26256WAT      O79009   3.014   4.767   5.819
26256WAT     H179010   2.917   4.777   5.796
26256WAT     H279011   3.023   4.724   5.909
26257WAT      O79012   1.625   3.567   6.357
26257WAT     H179013   1.702   3.572   6.294
26257WAT     H279014   1.639   3.634   6.430
26258WAT      O79015   7.326   1.570   5.222
26258WAT     H179016   7.410   1.518   5.204
26258WAT     H279017   7.247   1.510   5.213
26259WAT      O79018   2.717   5.312   2.439
26259WAT     H179019   2.791   5.272   2.386
26259WAT     H279020   2.633   5.310   2.385
26260WAT      O79021   6.408   2.112   3.131
26260WAT     H179022   6.471   2.119   3.209
26260WAT     H279023   6.460   2.122   3.046
26261WAT      O79024   8.254   9.513   2.613
26261WAT     H179025   8.180   9.536   2.550
26261WAT     H279026   8.234   9.550   2.704
26262WAT      O79027   6.087   0.006   9.366
26262WAT     H179028   6.096   0.061   9.283
26262WAT     H279029   6.114   0.060   9.445
26263WAT      O79030   6.644   5.442   9.406
26263WAT     H179031   6.669   5.362   9.460
26263WAT     H279032   6.605   5.413   9.318
26264WAT      O79033   6.570   6.239   7.656
26264WAT     H179034   6.599   6.334   7.652
26264WAT     H279035   6.478   6.230   7.617
26265WAT      O79036   2.712   4.085   5.698
26265WAT     H179037   2.685   3.998   5.658
26265WAT     H279038   2.700   4.158   5.630
26266WAT      O79039   2.893   4.325   7.616
26266WAT     H179040   2.831   4.381   7.671
26266WAT     H279041   2.900   4.363   7.524
26267WAT      O79042   9.345   9.530   8.602
26267WAT     H179043   9.416   9.521   8.532
26267WAT     H279044   9.333   9.627   8.625
26268WAT      O79045   8.015   0.125   8.954
26268WAT     H179046   8.041   0.202   9.013
26268WAT     H279047   8.080   0.116   8.879
26269WAT      O79048   6.268   0.251   3.023
26269WAT     H179049   6.250   0.204   3.110
26269WAT     H279050   6.342   0.204   2.975
26270WAT      O79051   2.183   7.645   7.130
26270WAT     H179052   2.240   7.659   7.211
26270WAT     H279053   2.216   7.566   7.079
26271WAT      O79054   6.273   6.846   5.519
26271WAT     H179055   6.310   6.755   5.499
26271WAT     H279056   6.256   6.894   5.433
26272WAT      O79057   3.449   2.177   8.694
26272WAT     H179058   3.372   2.113   8.695
26272WAT     H279059   3.451   2.228   8.780
26273WAT      O79060   3.034   0.046   4.006
26273WAT     H179061   3.052   0.124   3.947
26273WAT     H279062   3.003   0.078   4.095
26274WAT      O79063   8.677   7.118   7.996
26274WAT     H179064   8.717   7.078   8.079
26274WAT     H279065   8.624   7.048   7.948
26275WAT      O79066   7.640   9.165   4.043
26275WAT     H179067   7.684   9.075   4.054
26275WAT     H279068   7.670   9.226   4.116
26276WAT      O79069   2.191   4.754   2.356
26276WAT     H179070   2.157   4.820   2.289
26276WAT     H279071   2.114   4.709   2.401
26277WAT      O79072   4.619   1.030   2.200
26277WAT     H179073   4.687   0.966   2.164
26277WAT     H279074   4.616   1.111   2.141
26278WAT      O79075   7.981   3.979   7.538
26278WAT     H179076   7.954   3.902   7.596
26278WAT     H279077   7.916   4.054   7.552
26279WAT      O79078   0.228   0.678   3.537
26279WAT     H179079   0.264   0.589   3.562
26279WAT     H279080   0.143   0.695   3.587
26280WAT      O79081   6.486   9.394   7.155
26280WAT     H179082   6.408   9.401   7.217
26280WAT     H279083   6.546   9.474   7.167
26281WAT      O79084   7.670   7.425   7.991
26281WAT     H179085   7.608   7.353   7.960
26281WAT     H279086   7.765   7.396   7.977
26282WAT      O79087   2.378   6.625   5.903
26282WAT     H179088   2.321   6.620   5.985
26282WAT     H279089   2.469   6.656   5.927
26283WAT      O79090   9.780   1.723   2.211
26283WAT     H179091   9.804   1.812   2.172
26283WAT     H279092   9.810   1.650   2.150
26284WAT      O79093   0.700   4.293   5.169
26284WAT     H179094   0.789   4.334   5.148
26284WAT     H279095   0.641   4.299   5.088
26285WAT      O79096   1.553   0.240   3.412
26285WAT     H179097   1.503   0.240   3.326
26285WAT     H279098   1.593   0.330   3.427
26286WAT      O79099   3.928   9.526   9.119
26286WAT     H179100   3.946   9.457   9.049
26286WAT     H279101   3.904   9.480   9.205
26287WAT      O79102   7.362   7.282   3.218
26287WAT     H179103   7.266   7.262   3.197
26287WAT     H279104   7.421   7.216   3.172
26288WAT      O79105   6.750   1.903   1.908
26288WAT     H179106   6.798   1.940   1.828
26288WAT     H279107   6.754   1.970   1.983
26289WAT      O79108   6.509   5.510   5.577
26289WAT     H179109   6.465   5.435   5.528
26289WAT     H279110   6.452   5.538   5.655
26290WAT      O79111   2.996   4.721   4.423
26290WAT     H179112   3.049   4.679   4.350
26290WAT     H279113   2.902   4.735   4.391
26291WAT      O79114   2.041   3.949   7.333
26291WAT     H179115   2.109   3.903   7.276
26291WAT     H279116   2.026   3.897   7.417
26292WAT      O79117   4.062   4.765   4.942
26292WAT     H179118   4.022   4.771   5.033
26292WAT     H279119   4.152   4.721   4.947
26293WAT      O79120   7.356   6.672   9.869
26293WAT     H179121   7.318   6.742   9.809
26293WAT     H279122   7.455   6.664   9.853
26294WAT      O79123   9.245   9.833   7.577
26294WAT     H179124   9.205   9.890   7.649
26294WAT     H279125   9.264   9.742   7.613
26295WAT      O79126   2.315   2.464   2.238
26295WAT     H179127   2.318   2.500   2.145
26295WAT     H279128   2.232   2.409   2.250
26296WAT      O79129   2.403   6.224   6.284
26296WAT     H179130   2.445   6.306   6.325
26296WAT     H279131   2.438   6.212   6.191
26297WAT      O79132   9.092   8.019   6.943
26297WAT     H179133   9.125   7.935   6.899
26297WAT     H279134   9.087   8.005   7.042
26298WAT      O79135   6.311   0.456   8.685
26298WAT     H179136   6.273   0.428   8.773
26298WAT     H279137   6.267   0.541   8.656
26299WAT      O79138   9.239   1.508   2.031
26299WAT     H179139   9.187   1.527   2.114
26299WAT     H279140   9.181   1.461   1.965
26300WAT      O79141   5.249   5.776   0.037
26300WAT     H179142   5.258   5.874   0.050
26300WAT     H279143   5.241   5.731   0.126
26301WAT      O79144   5.122   6.305   7.271
26301WAT     H179145   5.067   6.387   7.285
26301WAT     H279146   5.209   6.314   7.319
26302WAT      O79147   2.211   9.176   8.818
26302WAT     H179148   2.290   9.130   8.859
26302WAT     H279149   2.197   9.142   8.725
26303WAT      O79150   0.751   3.960   0.861
26303WAT     H179151   0.651   3.962   0.852
26303WAT     H279152   0.784   3.866   0.858
26304WAT      O79153   5.052   6.436   2.504
26304WAT     H179154   5.032   6.341   2.479
26304WAT     H279155   5.019   6.453   2.598
26305WAT      O79156   8.072   1.876   9.089
26305WAT     H179157   8.167   1.862   9.114
26305WAT     H279158   8.018   1.895   9.171
26306WAT      O79159   9.539   1.101   6.325
26306WAT     H179160   9.550   1.019   6.268
26306WAT     H279161   9.568   1.181   6.274
26307WAT      O79162   2.709   6.281   4.271
26307WAT     H179163   2.700   6.189   4.232
26307WAT     H279164   2.730   6.274   4.368
26308WAT      O79165   6.367   2.820   5.835
26308WAT     H179166   6.443   2.779   5.885
26308WAT     H279167   6.281   2.805   5.885
26309WAT      O79168   6.401   8.916   4.165
26309WAT     H179169   6.493   8.935   4.198
26309WAT     H279170   6.375   8.984   4.097
26310WAT      O79171   0.541   4.032   0.595
26310WAT     H179172   0.510   4.033   0.690
26310WAT     H279173   0.553   3.938   0.565
26311WAT      O79174   8.974   1.731   8.404
26311WAT     H179175   8.990   1.827   8.383
26311WAT     H279176   9.002   1.674   8.327
26312WAT      O79177   3.085   1.942   3.022
26312WAT     H179178   3.041   1.962   3.109
26312WAT     H279179   3.016   1.915   2.955
26313WAT      O79180   5.042   0.788   1.386
26313WAT     H179181   5.015   0.834   1.302
26313WAT     H279182   5.091   0.703   1.364
26314WAT      O79183   7.428   1.952   7.748
26314WAT     H179184   7.378   1.891   7.686
26314WAT     H279185   7.526   1.936   7.739
26315WAT      O79186   2.268   6.112   8.216
26315WAT     H179187   2.332   6.142   8.146
26315WAT     H279188   2.318   6.060   8.286
26316WAT      O79189   1.769   4.031   8.443
26316WAT     H179190   1.856   4.051   8.488
26316WAT     H279191   1.703   4.102   8.466
26317WAT      O79192   6.138   5.188   1.312
26317WAT     H179193   6.210   5.201   1.243
26317WAT     H279194   6.127   5.090   1.330
26318WAT      O79195   2.113   4.189   9.240
26318WAT     H179196   2.080   4.284   9.241
26318WAT     H279197   2.082   4.142   9.322
26319WAT      O79198   2.004   4.438   3.528
26319WAT     H179199   1.946   4.490   3.590
26319WAT     H279200   2.095   4.428   3.567
26320WAT      O79201   8.148   2.287   0.139
26320WAT     H179202   8.062   2.272   0.188
26320WAT     H279203   8.163   2.212   0.074
26321WAT      O79204   3.293   4.217   5.706
26321WAT     H179205   3.222   4.147   5.721
26321WAT     H279206   3.262   4.279   5.634
26322WAT      O79207   8.174   7.153   5.783
26322WAT     H179208   8.162   7.068   5.731
26322WAT     H279209   8.270   7.163   5.810
26323WAT      O79210   7.013   1.727   4.912
26323WAT     H179211   6.955   1.648   4.929
26323WAT     H279212   7.022   1.781   4.996
26324WAT      O79213   4.599   9.814   0.415
26324WAT     H179214   4.546   9.871   0.352
26324WAT     H279215   4.643   9.740   0.363
26325WAT      O79216   7.178   3.538   0.957
26325WAT     H179217   7.267   3.529   1.001
26325WAT     H279218   7.163   3.461   0.896
26326WAT      O79219   0.557   0.071   9.596
26326WAT     H179220   0.506  -0.013   9.576
26326WAT     H279221   0.511   0.122   9.669
26327WAT      O79222   2.864   6.384   9.644
26327WAT     H179223   2.838   6.433   9.727
26327WAT     H279224   2.811   6.300   9.636
26328WAT      O79225   3.470   4.316   7.532
26328WAT     H179226   3.433   4.352   7.618
26328WAT     H279227   3.416   4.351   7.455
26329WAT      O79228   0.571   5.879   4.358
26329WAT     H179229   0.477   5.893   4.390
26329WAT     H279230   0.571   5.847   4.264
26330WAT      O79231   7.211   3.162   3.657
26330WAT     H179232   7.181   3.224   3.730
26330WAT     H279233   7.208   3.210   3.569
26331WAT      O79234   4.472   6.934   1.131
26331WAT     H179235   4.439   6.849   1.171
26331WAT     H279236   4.509   6.992   1.204
26332WAT      O79237   6.497   2.715   4.412
26332WAT     H179238   6.528   2.642   4.351
26332WAT     H279239   6.489   2.678   4.505
26333WAT      O79240   8.958   6.265   0.404
26333WAT     H179241   8.983   6.319   0.323
26333WAT     H279242   8.957   6.324   0.485
26334WAT      O79243   0.187   0.347   2.701
26334WAT     H179244   0.198   0.363   2.799
26334WAT     H279245   0.276   0.343   2.657
26335WAT      O79246   4.815   2.065   5.835
26335WAT     H179247   4.743   2.100   5.896
26335WAT     H279248   4.904   2.082   5.877
26336WAT      O79249   8.571   2.189   0.973
26336WAT     H179250   8.631   2.202   0.894
26336WAT     H279251   8.613   2.123   1.036
26337WAT      O79252   4.830   4.490   5.155
26337WAT     H179253   4.805   4.527   5.066
26337WAT     H279254   4.861   4.564   5.214
26338WAT      O79255   1.345   4.491   5.439
26338WAT     H179256   1.334   4.398   5.402
26338WAT     H279257   1.439   4.521   5.424
26339WAT      O79258   6.266   9.565   7.772
26339WAT     H179259   6.292   9.544   7.867
26339WAT     H279260   6.176   9.526   7.753
26340WAT      O79261   8.425   4.664   7.021
26340WAT     H179262   8.460   4.754   7.048
26340WAT     H279263   8.325   4.665   7.026
26341WAT      O79264   4.949   5.554   6.802
26341WAT     H179265   4.919   5.575   6.895
26341WAT     H279266   5.047   5.534   6.802
26342WAT      O79267   4.807   2.863   2.968
26342WAT     H179268   4.742   2.936   2.987
26342WAT     H279269   4.897   2.902   2.952
26343WAT      O79270   1.196   7.345   9.833
26343WAT     H179271   1.108   7.305   9.855
26343WAT     H279272   1.196   7.376   9.738
26344WAT      O79273   7.288   1.903   3.238
26344WAT     H179274   7.223   1.827   3.240
26344WAT     H279275   7.338   1.901   3.152
26345WAT      O79276   7.825   1.099   3.396
26345WAT     H179277   7.738   1.059   3.425
26345WAT     H279278   7.825   1.197   3.417
26346WAT      O79279   6.546   7.548   8.429
26346WAT     H179280   6.451   7.568   8.453
26346WAT     H279281   6.605   7.620   8.465
26347WAT      O79282   6.821   5.560   0.755
26347WAT     H179283   6.756   5.485   0.767
26347WAT     H279284   6.820   5.618   0.836
26348WAT      O79285   4.142   5.265   7.203
26348WAT     H179286   4.068   5.291   7.266
26348WAT     H279287   4.138   5.322   7.121
26349WAT      O79288   6.418   7.860   2.079
26349WAT     H179289   6.368   7.784   2.037
26349WAT     H279290   6.497   7.883   2.022
26350WAT      O79291   2.264   5.895   3.238
26350WAT     H179292   2.304   5.877   3.328
26350WAT     H279293   2.164   5.890   3.244
26351WAT      O79294   7.779   4.256   1.798
26351WAT     H179295   7.767   4.351   1.827
26351WAT     H279296   7.838   4.252   1.718
26352WAT      O79297   8.187   4.675   0.880
26352WAT     H179298   8.114   4.619   0.841
26352WAT     H279299   8.155   4.769   0.890
26353WAT      O79300   3.905   3.772   0.500
26353WAT     H179301   3.966   3.773   0.421
26353WAT     H279302   3.954   3.808   0.580
26354WAT      O79303   8.348   5.832   5.755
26354WAT     H179304   8.353   5.871   5.847
26354WAT     H279305   8.253   5.831   5.724
26355WAT      O79306   3.798   1.830   3.265
26355WAT     H179307   3.748   1.755   3.308
26355WAT     H279308   3.738   1.910   3.256
26356WAT      O79309   3.880   0.057   2.534
26356WAT     H179310   3.807   0.113   2.573
26356WAT     H279311   3.850   0.021   2.445
26357WAT      O79312   0.055   2.738   6.811
26357WAT     H179313   0.001   2.797   6.751
26357WAT     H279314   0.144   2.720   6.771
26358WAT      O79315   1.228   7.809   9.097
26358WAT     H179316   1.295   7.753   9.146
26358WAT     H279317   1.271   7.851   9.017
26359WAT      O79318   1.145   2.313   2.397
26359WAT     H179319   1.143   2.379   2.322
26359WAT     H279320   1.052   2.295   2.428
26360WAT      O79321   8.264   7.063   2.086
26360WAT     H179322   8.340   7.116   2.050
26360WAT     H279323   8.299   6.981   2.132
26361WAT      O79324   3.285   1.327   2.165
26361WAT     H179325   3.310   1.411   2.212
26361WAT     H279326   3.363   1.264   2.166
26362WAT      O79327   4.905   7.383   2.608
26362WAT     H179328   4.937   7.415   2.697
26362WAT     H279329   4.817   7.337   2.619
26363WAT      O79330   7.108   2.655   8.770
26363WAT     H179331   7.026   2.618   8.726
26363WAT     H279332   7.184   2.591   8.757
26364WAT      O79333   2.571   8.453   7.703
26364WAT     H179334   2.543   8.368   7.748
26364WAT     H279335   2.574   8.527   7.771
26365WAT      O79336   9.390   0.194   1.269
26365WAT     H179337   9.294   0.174   1.289
26365WAT     H279338   9.396   0.250   1.187
26366WAT      O79339   4.007   8.639   0.140
26366WAT     H179340   3.954   8.708   0.089
26366WAT     H279341   4.104   8.651   0.121
26367WAT      O79342   4.356   0.439   2.257
26367WAT     H179343   4.432   0.500   2.281
26367WAT     H279344   4.280   0.493   2.220
26368WAT      O79345   4.110   7.477   1.642
26368WAT     H179346   4.086   7.538   1.566
26368WAT     H279347   4.104   7.382   1.612
26369WAT      O79348   2.614   5.182   4.010
26369WAT     H179349   2.685   5.111   4.014
26369WAT     H279350   2.658   5.271   3.998
26370WAT      O79351   6.144   7.207   3.880
26370WAT     H179352   6.236   7.226   3.913
26370WAT     H279353   6.103   7.133   3.934
26371WAT      O79354   8.009   0.520   0.167
26371WAT     H179355   8.090   0.466   0.192
26371WAT     H279356   7.990   0.586   0.239
26372WAT      O79357   8.248   4.841   5.499
26372WAT     H179358   8.288   4.923   5.540
26372WAT     H279359   8.320   4.785   5.457
26373WAT      O79360   6.140   3.572   0.956
26373WAT     H179361   6.122   3.663   0.994
26373WAT     H279362   6.202   3.522   1.016
26374WAT      O79363   3.004   3.608   6.931
26374WAT     H179364   3.075   3.623   6.863
26374WAT     H279365   2.926   3.563   6.889
26375WAT      O79366   8.078   5.408   1.397
26375WAT     H179367   8.167   5.449   1.378
26375WAT     H279368   8.090   5.311   1.421
26376WAT      O79369   9.378   0.933   9.257
26376WAT     H179370   9.303   0.977   9.207
26376WAT     H279371   9.344   0.853   9.305
26377WAT      O79372   4.265   0.803   4.260
26377WAT     H179373   4.250   0.779   4.355
26377WAT     H279374   4.332   0.742   4.219
26378WAT      O79375   1.243   1.514   6.101
26378WAT     H179376   1.202   1.456   6.171
26378WAT     H279377   1.341   1.493   6.093
26379WAT      O79378   1.570   2.821   0.050
26379WAT     H179379   1.479   2.852   0.077
26379WAT     H279380   1.587   2.729   0.085
26380WAT      O79381   6.107   0.803   0.612
26380WAT     H179382   6.145   0.830   0.523
26380WAT     H279383   6.124   0.706   0.627
26381WAT      O79384   4.134   6.519   4.537
26381WAT     H179385   4.057   6.581   4.541
26381WAT     H279386   4.164   6.508   4.442
26382WAT      O79387   6.809   8.430   7.998
26382WAT     H179388   6.873   8.358   7.975
26382WAT     H279389   6.715   8.397   7.986
26383WAT      O79390   3.266   0.056   3.199
26383WAT     H179391   3.328  -0.021   3.189
26383WAT     H279392   3.197   0.055   3.126
26384WAT      O79393   9.562   8.864   0.944
26384WAT     H179394   9.644   8.858   0.887
26384WAT     H279395   9.537   8.960   0.956
26385WAT      O79396   5.754   2.368   6.443
26385WAT     H179397   5.691   2.334   6.373
26385WAT     H279398   5.848   2.342   6.419
26386WAT      O79399   0.206   7.447   0.595
26386WAT     H179400   0.255   7.531   0.619
26386WAT     H279401   0.182   7.397   0.679
26387WAT      O79402   4.119   0.920   6.427
26387WAT     H179403   4.065   0.914   6.343
26387WAT     H279404   4.193   0.986   6.414
26388WAT      O79405   0.497   5.302   2.293
26388WAT     H179406   0.481   5.292   2.391
26388WAT     H279407   0.413   5.331   2.247
26389WAT      O79408   0.593   4.059   1.807
26389WAT     H179409   0.634   4.077   1.897
26389WAT     H279410   0.620   4.131   1.743
26390WAT      O79411   0.227   4.022   4.042
26390WAT     H179412   0.237   4.105   3.989
26390WAT     H279413   0.130   3.998   4.049
26391WAT      O79414   8.949   1.243   1.589
26391WAT     H179415   9.025   1.205   1.641
26391WAT     H279416   8.920   1.178   1.518
26392WAT      O79417   9.384   5.827   1.152
26392WAT     H179418   9.380   5.815   1.251
26392WAT     H279419   9.475   5.859   1.126
26393WAT      O79420   4.330   9.235   6.204
26393WAT     H179421   4.416   9.285   6.216
26393WAT     H279422   4.266   9.260   6.278
26394WAT      O79423   2.974   1.031   3.789
26394WAT     H179424   3.067   1.028   3.751
26394WAT     H279425   2.979   1.037   3.888
26395WAT      O79426   2.157   1.387   3.005
26395WAT     H179427   2.199   1.391   2.914
26395WAT     H279428   2.153   1.292   3.036
26396WAT      O79429   2.066   7.744   6.046
26396WAT     H179430   2.054   7.836   6.009
26396WAT     H279431   2.129   7.693   5.987
26397WAT      O79432   1.412   9.407   4.132
26397WAT     H179433   1.414   9.457   4.218
26397WAT     H279434   1.331   9.348   4.130
26398WAT      O79435   4.627   1.921   1.730
26398WAT     H179436   4.648   1.997   1.790
26398WAT     H279437   4.711   1.872   1.705
26399WAT      O79438   3.007   1.414   2.119
26399WAT     H179439   3.026   1.479   2.045
26399WAT     H279440   3.093   1.382   2.159
26400WAT      O79441   5.440   3.346   9.370
26400WAT     H179442   5.369   3.318   9.305
26400WAT     H279443   5.400   3.353   9.461
26401WAT      O79444   0.349   4.867   6.390
26401WAT     H179445   0.249   4.870   6.389
26401WAT     H279446   0.383   4.916   6.470
26402WAT      O79447   7.195   8.500   8.568
26402WAT     H179448   7.113   8.464   8.525
26402WAT     H279449   7.249   8.551   8.500
26403WAT      O79450   7.146   4.683   2.284
26403WAT     H179451   7.209   4.684   2.206
26403WAT     H279452   7.166   4.603   2.341
26404WAT      O79453   5.236   7.716   5.793
26404WAT     H179454   5.247   7.815   5.800
26404WAT     H279455   5.323   7.675   5.765
26405WAT      O79456   6.691   3.253   6.740
26405WAT     H179457   6.721   3.343   6.772
26405WAT     H279458   6.764   3.212   6.684
26406WAT      O79459   5.025   2.865   6.580
26406WAT     H179460   4.937   2.816   6.585
26406WAT     H279461   5.078   2.831   6.503
26407WAT      O79462   1.796   5.690   2.906
26407WAT     H179463   1.772   5.755   2.977
26407WAT     H279464   1.892   5.663   2.916
26408WAT      O79465   2.765   8.153   9.483
26408WAT     H179466   2.679   8.127   9.441
26408WAT     H279467   2.750   8.231   9.545
26409WAT      O79468   6.810   2.851   4.258
26409WAT     H179469   6.727   2.885   4.213
26409WAT     H279470   6.872   2.927   4.277
26410WAT      O79471   2.412   6.137   6.860
26410WAT     H179472   2.446   6.109   6.771
26410WAT     H279473   2.489   6.151   6.922
26411WAT      O79474   5.005   5.206   5.324
26411WAT     H179475   4.918   5.158   5.309
26411WAT     H279476   4.990   5.304   5.315
26412WAT      O79477   3.007   3.291   7.014
26412WAT     H179478   3.043   3.327   7.099
26412WAT     H279479   3.067   3.317   6.938
26413WAT      O79480   1.553   9.218   7.863
26413WAT     H179481   1.539   9.132   7.912
26413WAT     H279482   1.639   9.215   7.813
26414WAT      O79483   5.103   9.278   1.758
26414WAT     H179484   5.164   9.297   1.834
26414WAT     H279485   5.064   9.186   1.767
26415WAT      O79486   3.684   4.665   4.773
26415WAT     H179487   3.685   4.599   4.698
26415WAT     H279488   3.766   4.721   4.770
26416WAT      O79489   2.630   3.558   4.662
26416WAT     H179490   2.710   3.613   4.685
26416WAT     H279491   2.658   3.474   4.617
26417WAT      O79492   5.851   4.810   8.380
26417WAT     H179493   5.835   4.712   8.377
26417WAT     H279494   5.918   4.835   8.310
26418WAT      O79495   7.020   5.422   9.196
26418WAT     H179496   7.060   5.512   9.216
26418WAT     H279497   7.079   5.350   9.233
26419WAT      O79498   1.782   3.692   7.130
26419WAT     H179499   1.818   3.783   7.109
26419WAT     H279500   1.858   3.628   7.144
26420WAT      O79501   0.243   5.586   6.052
26420WAT     H179502   0.260   5.551   6.144
26420WAT     H279503   0.198   5.515   5.998
26421WAT      O79504   8.473   7.178   1.963
26421WAT     H179505   8.558   7.177   1.911
26421WAT     H279506   8.464   7.266   2.011
26422WAT      O79507   4.602   2.290   6.742
26422WAT     H179508   4.641   2.358   6.679
26422WAT     H279509   4.503   2.286   6.730
26423WAT      O79510   1.312   8.161   6.280
26423WAT     H179511   1.278   8.075   6.318
26423WAT     H279512   1.391   8.192   6.333
26424WAT      O79513   9.438   0.310   7.419
26424WAT     H179514   9.464   0.401   7.452
26424WAT     H279515   9.340   0.306   7.404
26425WAT      O79516   9.086   8.189   0.663
26425WAT     H179517   9.117   8.104   0.704
26425WAT     H279518   9.139   8.207   0.580
26426WAT      O79519   4.552   1.806   7.768
26426WAT     H179520   4.538   1.904   7.758
26426WAT     H279521   4.464   1.761   7.785
26427WAT      O79522   2.617   9.827   2.612
26427WAT     H179523   2.667   9.911   2.587
26427WAT     H279524   2.666   9.780   2.685
26428WAT      O79525   0.383   9.137   3.642
26428WAT     H179526   0.409   9.166   3.549
26428WAT     H279527   0.315   9.201   3.678
26429WAT      O79528   2.054   5.657   0.772
26429WAT     H179529   2.133   5.615   0.727
26429WAT     H279530   2.020   5.732   0.716
26430WAT      O79531   4.237   3.849   8.631
26430WAT     H179532   4.291   3.767   8.613
26430WAT     H279533   4.194   3.880   8.547
26431WAT      O79534   5.104   6.284   0.847
26431WAT     H179535   5.060   6.366   0.883
26431WAT     H279536   5.078   6.205   0.903
26432WAT      O79537   7.765   6.106   8.895
26432WAT     H179538   7.849   6.090   8.844
26432WAT     H279539   7.711   6.177   8.850
26433WAT      O79540   6.791   9.320   8.531
26433WAT     H179541   6.788   9.220   8.522
26433WAT     H279542   6.702   9.353   8.560
26434WAT      O79543   2.236   5.304   4.154
26434WAT     H179544   2.323   5.343   4.124
26434WAT     H279545   2.239   5.287   4.253
26435WAT      O79546   6.118   7.660   7.331
26435WAT     H179547   6.156   7.569   7.316
26435WAT     H279548   6.175   7.729   7.286
26436WAT      O79549   2.228   8.496   9.219
26436WAT     H179550   2.184   8.408   9.198
26436WAT     H279551   2.180   8.539   9.296
26437WAT      O79552   9.574   0.740   8.600
26437WAT     H179553   9.517   0.771   8.524
26437WAT     H279554   9.652   0.802   8.612
26438WAT      O79555   3.735   4.683   0.094
26438WAT     H179556   3.731   4.666   0.193
26438WAT     H279557   3.644   4.670   0.055
26439WAT      O79558   1.136   2.198   2.756
26439WAT     H179559   1.068   2.262   2.720
26439WAT     H279560   1.128   2.192   2.855
26440WAT      O79561   2.465   7.122   9.603
26440WAT     H179562   2.533   7.126   9.530
26440WAT     H279563   2.375   7.145   9.566
26441WAT      O79564   2.954   3.481   2.524
26441WAT     H179565   2.916   3.388   2.527
26441WAT     H279566   3.053   3.477   2.510
26442WAT      O79567   6.467   4.636   5.519
26442WAT     H179568   6.480   4.642   5.420
26442WAT     H279569   6.513   4.713   5.564
26443WAT      O79570   8.060   4.171   4.211
26443WAT     H179571   7.997   4.220   4.150
26443WAT     H279572   8.016   4.158   4.300
26444WAT      O79573   4.350   6.357   3.687
26444WAT     H179574   4.340   6.314   3.777
26444WAT     H279575   4.423   6.425   3.691
26445WAT      O79576   8.708   2.704   0.008
26445WAT     H179577   8.619   2.744   0.027
26445WAT     H279578   8.701   2.643  -0.071
26446WAT      O79579   5.666   7.745   4.088
26446WAT     H179580   5.577   7.744   4.134
26446WAT     H279581   5.655   7.774   3.993
26447WAT      O79582   9.453   4.831   4.438
26447WAT     H179583   9.503   4.878   4.511
26447WAT     H279584   9.517   4.780   4.381
26448WAT      O79585   7.373   7.269   4.710
26448WAT     H179586   7.442   7.338   4.733
26448WAT     H279587   7.360   7.267   4.610
26449WAT      O79588   2.844   3.009   9.423
26449WAT     H179589   2.887   2.987   9.511
26449WAT     H279590   2.821   2.924   9.376
26450WAT      O79591   8.793   3.097   6.141
26450WAT     H179592   8.842   3.093   6.228
26450WAT     H279593   8.822   3.178   6.090
26451WAT      O79594   5.892   9.558   0.654
26451WAT     H179595   5.823   9.618   0.614
26451WAT     H279596   5.950   9.611   0.716
26452WAT      O79597   3.911   9.046   1.048
26452WAT     H179598   3.982   9.014   0.985
26452WAT     H279599   3.859   8.967   1.083
26453WAT      O79600   3.023   2.514   3.736
26453WAT     H179601   3.019   2.607   3.699
26453WAT     H279602   3.107   2.469   3.705
26454WAT      O79603   4.594   4.835   2.361
26454WAT     H179604   4.682   4.877   2.386
26454WAT     H279605   4.564   4.776   2.436
26455WAT      O79606   8.966   3.584   3.196
26455WAT     H179607   8.956   3.538   3.283
26455WAT     H279608   8.998   3.519   3.127
26456WAT      O79609   5.168   2.561   1.452
26456WAT     H179610   5.244   2.507   1.488
26456WAT     H279611   5.179   2.657   1.479
26457WAT      O79612   7.270   0.083   8.602
26457WAT     H179613   7.207   0.097   8.525
26457WAT     H279614   7.317  -0.004   8.591
26458WAT      O79615   6.910   7.631   3.903
26458WAT     H179616   6.954   7.543   3.884
26458WAT     H279617   6.951   7.702   3.846
26459WAT      O79618   7.799   8.269   7.375
26459WAT     H179619   7.792   8.288   7.277
26459WAT     H279620   7.848   8.183   7.389
26460WAT      O79621   7.247   6.424   4.611
26460WAT     H179622   7.231   6.366   4.691
26460WAT     H279623   7.159   6.450   4.571
26461WAT      O79624   0.430   0.652   2.328
26461WAT     H179625   0.425   0.716   2.251
26461WAT     H279626   0.341   0.611   2.343
26462WAT      O79627   2.524   5.314   6.945
26462WAT     H179628   2.579   5.345   6.868
26462WAT     H279629   2.432   5.291   6.913
26463WAT      O79630   8.933   6.412   2.688
26463WAT     H179631   8.851   6.362   2.716
26463WAT     H279632   8.985   6.439   2.769
26464WAT      O79633   6.475   4.158   2.686
26464WAT     H179634   6.471   4.185   2.590
26464WAT     H279635   6.486   4.238   2.744
26465WAT      O79636   9.104   8.595   2.774
26465WAT     H179637   9.160   8.544   2.709
26465WAT     H279638   9.030   8.537   2.807
26466WAT      O79639   2.501   8.443   8.330
26466WAT     H179640   2.440   8.411   8.402
26466WAT     H279641   2.562   8.369   8.302
26467WAT      O79642   1.077   9.171   0.895
26467WAT     H179643   1.137   9.141   0.822
26467WAT     H279644   1.004   9.228   0.857
26468WAT      O79645   8.135   8.238   9.628
26468WAT     H179646   8.233   8.256   9.616
26468WAT     H279647   8.088   8.324   9.649
26469WAT      O79648   8.879   3.153   0.704
26469WAT     H179649   8.869   3.180   0.799
26469WAT     H279650   8.865   3.054   0.695
26470WAT      O79651   7.994   4.626   5.063
26470WAT     H179652   7.991   4.526   5.068
26470WAT     H279653   7.988   4.664   5.156
26471WAT      O79654   6.343   1.851   2.606
26471WAT     H179655   6.373   1.838   2.701
26471WAT     H279656   6.258   1.904   2.604
26472WAT      O79657   3.541   2.268   2.815
26472WAT     H179658   3.560   2.197   2.748
26472WAT     H279659   3.447   2.300   2.804
26473WAT      O79660   4.186   8.820   9.534
26473WAT     H179661   4.220   8.772   9.453
26473WAT     H279662   4.240   8.792   9.614
26474WAT      O79663   2.280   8.003   5.776
26474WAT     H179664   2.339   7.924   5.759
26474WAT     H279665   2.233   8.028   5.691
26475WAT      O79666   6.005   4.792   1.343
26475WAT     H179667   5.996   4.800   1.244
26475WAT     H279668   6.064   4.714   1.365
26476WAT      O79669   3.951   2.619   7.499
26476WAT     H179670   4.043   2.647   7.470
26476WAT     H279671   3.907   2.567   7.426
26477WAT      O79672   6.760   0.355   0.843
26477WAT     H179673   6.811   0.302   0.911
26477WAT     H279674   6.762   0.452   0.869
26478WAT      O79675   2.194   8.257   9.569
26478WAT     H179676   2.158   8.321   9.637
26478WAT     H279677   2.131   8.181   9.557
26479WAT      O79678   0.822   0.527   4.957
26479WAT     H179679   0.915   0.491   4.960
26479WAT     H279680   0.825   0.625   4.935
26480WAT      O79681   5.626   6.764   9.838
26480WAT     H179682   5.726   6.768   9.844
26480WAT     H279683   5.586   6.808   9.919
26481WAT      O79684   5.574   1.504   4.031
26481WAT     H179685   5.508   1.545   3.968
26481WAT     H279686   5.597   1.571   4.102
26482WAT      O79687   5.826   4.708   7.552
26482WAT     H179688   5.791   4.792   7.512
26482WAT     H279689   5.921   4.721   7.581
26483WAT      O79690   1.584   0.280   0.961
26483WAT     H179691   1.587   0.361   0.902
26483WAT     H279692   1.490   0.246   0.967
26484WAT      O79693   4.750   8.087   7.135
26484WAT     H179694   4.725   8.182   7.115
26484WAT     H279695   4.668   8.030   7.138
26485WAT      O79696   7.726   0.364   4.154
26485WAT     H179697   7.688   0.320   4.073
26485WAT     H279698   7.825   0.348   4.157
26486WAT      O79699   0.817   1.132   2.807
26486WAT     H179700   0.761   1.081   2.873
26486WAT     H279701   0.914   1.112   2.822
26487WAT      O79702   3.945   8.446   4.749
26487WAT     H179703   3.930   8.545   4.744
26487WAT     H279704   3.862   8.398   4.721
26488WAT      O79705   7.291   4.460   0.077
26488WAT     H179706   7.348   4.411   0.010
26488WAT     H279707   7.246   4.537   0.033
26489WAT      O79708   0.364   4.269   8.798
26489WAT     H179709   0.457   4.234   8.800
26489WAT     H279710   0.311   4.228   8.872
26490WAT      O79711   7.629   1.223   4.164
26490WAT     H179712   7.561   1.185   4.227
26490WAT     H279713   7.721   1.201   4.196
26491WAT      O79714   8.932   1.059   1.381
26491WAT     H179715   9.030   1.063   1.361
26491WAT     H279716   8.881   1.048   1.295
26492WAT      O79717   5.026   6.984   3.722
26492WAT     H179718   4.966   7.039   3.664
26492WAT     H279719   4.981   6.967   3.810
26493WAT      O79720   8.631   1.761   1.426
26493WAT     H179721   8.566   1.770   1.351
26493WAT     H279722   8.582   1.756   1.513
26494WAT      O79723   3.293   7.390   0.285
26494WAT     H179724   3.387   7.358   0.295
26494WAT     H279725   3.292   7.487   0.261
26495WAT      O79726   1.610   3.103   5.464
26495WAT     H179727   1.551   3.027   5.490
26495WAT     H279728   1.704   3.071   5.455
26496WAT      O79729   7.644   8.285   8.296
26496WAT     H179730   7.704   8.260   8.220
26496WAT     H279731   7.579   8.211   8.313
26497WAT      O79732   3.704   6.894   7.679
26497WAT     H179733   3.782   6.951   7.704
26497WAT     H279734   3.620   6.948   7.684
26498WAT      O79735   8.094   1.387   0.284
26498WAT     H179736   8.060   1.365   0.192
26498WAT     H279737   8.168   1.454   0.277
26499WAT      O79738   8.733   6.130   6.121
26499WAT     H179739   8.781   6.150   6.207
26499WAT     H279740   8.689   6.040   6.128
26500WAT      O79741   4.121   6.888   0.704
26500WAT     H179742   4.185   6.908   0.778
26500WAT     H279743   4.091   6.793   0.710
26501WAT      O79744   5.104   2.620   1.772
26501WAT     H179745   5.017   2.586   1.735
26501WAT     H279746   5.170   2.545   1.777
26502WAT      O79747   4.692   2.846   8.927
26502WAT     H179748   4.739   2.759   8.940
26502WAT     H279749   4.728   2.913   8.992
26503WAT      O79750   9.303   7.350   4.578
26503WAT     H179751   9.214   7.387   4.605
26503WAT     H279752   9.331   7.389   4.491
26504WAT      O79753   3.717   0.459   4.074
26504WAT     H179754   3.777   0.458   3.994
26504WAT     H279755   3.671   0.371   4.082
26505WAT      O79756   9.517   7.651   8.241
26505WAT     H179757   9.542   7.729   8.184
26505WAT     H279758   9.436   7.675   8.296
26506WAT      O79759   2.696   9.031   5.376
26506WAT     H179760   2.678   9.120   5.335
26506WAT     H279761   2.612   8.996   5.419
26507WAT      O79762   3.233   9.410   7.422
26507WAT     H179763   3.296   9.435   7.349
26507WAT     H279764   3.151   9.467   7.415
26508WAT      O79765   7.846   0.943   0.411
26508WAT     H179766   7.851   0.844   0.408
26508WAT     H279767   7.836   0.980   0.318
26509WAT      O79768   7.929   2.064   6.454
26509WAT     H179769   7.928   2.118   6.538
26509WAT     H279770   7.859   2.100   6.391
26510WAT      O79771   8.966   6.157   8.540
26510WAT     H179772   8.964   6.063   8.572
26510WAT     H279773   9.058   6.194   8.548
26511WAT      O79774   1.627   3.574   5.443
26511WAT     H179775   1.638   3.501   5.376
26511WAT     H279776   1.558   3.547   5.510
26512WAT      O79777   5.598   9.683   7.057
26512WAT     H179778   5.554   9.626   6.988
26512WAT     H279779   5.697   9.679   7.046
26513WAT      O79780   4.981   9.387   7.899
26513WAT     H179781   4.901   9.369   7.957
26513WAT     H279782   4.953   9.392   7.803
26514WAT      O79783   1.521   0.634   3.516
26514WAT     H179784   1.598   0.571   3.503
26514WAT     H279785   1.436   0.581   3.519
26515WAT      O79786   6.361   5.329   1.977
26515WAT     H179787   6.428   5.402   1.994
26515WAT     H279788   6.390   5.245   2.022
26516WAT      O79789   8.048   9.678   4.591
26516WAT     H179790   8.110   9.752   4.619
26516WAT     H279791   7.953   9.708   4.602
26517WAT      O79792   1.676   2.524   1.532
26517WAT     H179793   1.665   2.589   1.457
26517WAT     H279794   1.620   2.552   1.609
26518WAT      O79795   7.697   1.161   7.126
26518WAT     H179796   7.735   1.089   7.183
26518WAT     H279797   7.717   1.250   7.167
26519WAT      O79798   2.543   3.300   0.021
26519WAT     H179799   2.575   3.223  -0.033
26519WAT     H279800   2.548   3.277   0.119
26520WAT      O79801   4.712   8.261   6.504
26520WAT     H179802   4.749   8.181   6.552
26520WAT     H279803   4.629   8.293   6.552
26521WAT      O79804   1.216   3.296   6.554
26521WAT     H179805   1.149   3.358   6.595
26521WAT     H279806   1.297   3.291   6.613
26522WAT      O79807   8.190   2.321   1.175
26522WAT     H179808   8.219   2.292   1.084
26522WAT     H279809   8.244   2.274   1.244
26523WAT      O79810   1.067   9.235   6.399
26523WAT     H179811   1.115   9.196   6.478
26523WAT     H279812   1.134   9.280   6.339
26524WAT      O79813   0.276   4.034   1.441
26524WAT     H179814   0.330   4.031   1.356
26524WAT     H279815   0.327   3.991   1.515
26525WAT      O79816   5.281   6.271   9.345
26525WAT     H179817   5.321   6.256   9.435
26525WAT     H279818   5.349   6.250   9.274
26526WAT      O79819   9.188   9.255   6.640
26526WAT     H179820   9.233   9.175   6.603
26526WAT     H279821   9.227   9.338   6.600
26527WAT      O79822   7.485   3.836   2.574
26527WAT     H179823   7.478   3.892   2.491
26527WAT     H279824   7.551   3.877   2.636
26528WAT      O79825   3.509   8.785   5.171
26528WAT     H179826   3.516   8.878   5.208
26528WAT     H279827   3.599   8.742   5.173
26529WAT      O79828   5.307   9.504   4.319
26529WAT     H179829   5.404   9.501   4.344
26529WAT     H279830   5.263   9.420   4.351
26530WAT      O79831   3.576   5.784   2.202
26530WAT     H179832   3.627   5.847   2.261
26530WAT     H279833   3.531   5.715   2.259
26531WAT      O79834   3.472   4.872   0.170
26531WAT     H179835   3.525   4.943   0.122
26531WAT     H279836   3.508   4.861   0.263
26532WAT      O79837   8.572   1.658   9.201
26532WAT     H179838   8.492   1.611   9.239
26532WAT     H279839   8.556   1.678   9.104
26533WAT      O79840   8.163   0.587   6.346
26533WAT     H179841   8.201   0.648   6.276
26533WAT     H279842   8.063   0.587   6.340
26534WAT      O79843   3.619   7.156   3.726
26534WAT     H179844   3.605   7.252   3.702
26534WAT     H279845   3.603   7.143   3.823
26535WAT      O79846   2.564   7.283   8.454
26535WAT     H179847   2.564   7.323   8.362
26535WAT     H279848   2.492   7.326   8.509
26536WAT      O79849   5.005   5.603   3.960
26536WAT     H179850   5.013   5.539   4.037
26536WAT     H279851   4.996   5.551   3.875
26537WAT      O79852   4.744   6.708   8.397
26537WAT     H179853   4.830   6.704   8.447
26537WAT     H279854   4.738   6.630   8.333
26538WAT      O79855   7.648   6.188   4.642
26538WAT     H179856   7.661   6.286   4.633
26538WAT     H279857   7.554   6.164   4.617
26539WAT      O79858   5.272   6.091   6.709
26539WAT     H179859   5.316   6.149   6.778
26539WAT     H279860   5.185   6.056   6.744
26540WAT      O79861   3.983   2.557   2.555
26540WAT     H179862   4.045   2.620   2.601
26540WAT     H279863   3.889   2.575   2.586
26541WAT      O79864   1.930   5.330   1.094
26541WAT     H179865   1.924   5.376   1.182
26541WAT     H279866   1.918   5.397   1.020
26542WAT      O79867   7.291   3.868   4.643
26542WAT     H179868   7.270   3.873   4.741
26542WAT     H279869   7.270   3.777   4.609
26543WAT      O79870   7.869   8.618   7.716
26543WAT     H179871   7.865   8.644   7.813
26543WAT     H279872   7.800   8.548   7.697
26544WAT      O79873   4.019   1.650   5.930
26544WAT     H179874   3.939   1.666   5.988
26544WAT     H279875   4.062   1.737   5.909
26545WAT      O79876   8.085   9.133   9.867
26545WAT     H179877   8.121   9.064   9.805
26545WAT     H279878   8.072   9.092   9.958
26546WAT      O79879   7.777   1.559   4.487
26546WAT     H179880   7.716   1.575   4.409
26546WAT     H279881   7.817   1.468   4.481
26547WAT      O79882   9.849   3.762   9.314
26547WAT     H179883   9.778   3.778   9.246
26547WAT     H279884   9.922   3.829   9.303
26548WAT      O79885   4.591   6.949   4.023
26548WAT     H179886   4.618   7.039   3.989
26548WAT     H279887   4.512   6.958   4.084
26549WAT      O79888   5.534   8.604   4.783
26549WAT     H179889   5.614   8.635   4.835
26549WAT     H279890   5.494   8.682   4.735
26550WAT      O79891   7.028   3.865   8.567
26550WAT     H179892   7.045   3.831   8.659
26550WAT     H279893   7.027   3.788   8.503
26551WAT      O79894   9.398   0.809   4.057
26551WAT     H179895   9.378   0.905   4.074
26551WAT     H279896   9.391   0.790   3.959
26552WAT      O79897   0.563   0.951   2.138
26552WAT     H179898   0.663   0.960   2.139
26552WAT     H279899   0.522   1.042   2.142
26553WAT      O79900   2.528   9.025   8.163
26553WAT     H179901   2.475   8.952   8.205
26553WAT     H279902   2.492   9.114   8.191
26554WAT      O79903   3.608   2.596   9.690
26554WAT     H179904   3.619   2.622   9.786
26554WAT     H279905   3.557   2.666   9.641
26555WAT      O79906   5.073   7.624   3.834
26555WAT     H179907   5.006   7.651   3.765
26555WAT     H279908   5.094   7.527   3.825
26556WAT      O79909   7.954   9.299   6.846
26556WAT     H179910   7.916   9.240   6.916
26556WAT     H279911   7.987   9.244   6.769
26557WAT      O79912   6.051   0.725   9.476
26557WAT     H179913   6.126   0.764   9.423
26557WAT     H279914   5.979   0.694   9.415
26558WAT      O79915   8.879   3.095   2.668
26558WAT     H179916   8.843   3.066   2.579
26558WAT     H279917   8.850   3.030   2.738
26559WAT      O79918   1.855   5.412   5.060
26559WAT     H179919   1.784   5.364   5.111
26559WAT     H279920   1.934   5.428   5.120
26560WAT      O79921   0.342   6.595   7.267
26560WAT     H179922   0.284   6.568   7.344
26560WAT     H279923   0.354   6.517   7.205
26561WAT      O79924   8.178   8.795   7.947
26561WAT     H179925   8.158   8.893   7.940
26561WAT     H279926   8.226   8.765   7.864
26562WAT      O79927   5.345   1.406   1.206
26562WAT     H179928   5.287   1.403   1.288
26562WAT     H279929   5.286   1.400   1.125
26563WAT      O79930   2.331   7.380   7.180
26563WAT     H179931   2.379   7.294   7.202
26563WAT     H279932   2.280   7.411   7.260
26564WAT      O79933   4.264   9.266   8.964
26564WAT     H179934   4.336   9.288   9.030
26564WAT     H279935   4.302   9.212   8.889
26565WAT      O79936   4.956   0.693   6.397
26565WAT     H179937   4.973   0.751   6.317
26565WAT     H279938   4.879   0.729   6.449
26566WAT      O79939   1.234   8.653   6.798
26566WAT     H179940   1.305   8.618   6.858
26566WAT     H279941   1.146   8.612   6.822
26567WAT      O79942   7.753   8.346   6.863
26567WAT     H179943   7.758   8.384   6.771
26567WAT     H279944   7.829   8.282   6.876
26568WAT      O79945   1.188   0.788   5.211
26568WAT     H179946   1.136   0.720   5.159
26568WAT     H279947   1.257   0.829   5.151
26569WAT      O79948   8.479   1.306   4.753
26569WAT     H179949   8.402   1.252   4.787
26569WAT     H279950   8.558   1.247   4.737
26570WAT      O79951   0.492   8.091   8.443
26570WAT     H179952   0.582   8.135   8.444
26570WAT     H279953   0.450   8.100   8.534
26571WAT      O79954   3.799   5.346   3.994
26571WAT     H179955   3.700   5.350   3.982
26571WAT     H279956   3.821   5.320   4.088
26572WAT      O79957   5.351   9.298   3.631
26572WAT     H179958   5.440   9.300   3.677
26572WAT     H279959   5.288   9.240   3.683
26573WAT      O79960   0.037   4.111   1.804
26573WAT     H179961  -0.021   4.168   1.746
26573WAT     H279962  -0.005   4.021   1.814
26574WAT      O79963   9.879   5.036   0.203
26574WAT     H179964   9.782   5.014   0.190
26574WAT     H279965   9.911   4.993   0.288
26575WAT      O79966   8.749   3.728   0.851
26575WAT     H179967   8.809   3.807   0.841
26575WAT     H279968   8.762   3.686   0.941
26576WAT      O79969   6.115   7.017   7.140
26576WAT     H179970   6.082   7.105   7.176
26576WAT     H279971   6.098   6.945   7.208
26577WAT      O79972   9.031   5.872   5.163
26577WAT     H179973   9.118   5.890   5.209
26577WAT     H279974   9.047   5.859   5.065
26578WAT      O79975   6.328   8.274   9.130
26578WAT     H179976   6.391   8.325   9.072
26578WAT     H279977   6.351   8.289   9.226
26579WAT      O79978   6.509   8.636   8.301
26579WAT     H179979   6.520   8.590   8.390
26579WAT     H279980   6.599   8.644   8.257
26580WAT      O79981   8.735   9.607   0.771
26580WAT     H179982   8.654   9.593   0.828
26580WAT     H279983   8.727   9.552   0.688
26581WAT      O79984   2.530   2.493   6.904
26581WAT     H179985   2.513   2.559   6.831
26581WAT     H279986   2.460   2.422   6.901
26582WAT      O79987   1.513   0.590   9.002
26582WAT     H179988   1.442   0.636   9.054
26582WAT     H279989   1.548   0.651   8.931
26583WAT      O79990   7.736   0.334   0.930
26583WAT     H179991   7.716   0.238   0.915
26583WAT     H279992   7.651   0.387   0.928
26584WAT      O79993   2.389   2.964   0.354
26584WAT     H179994   2.382   2.921   0.444
26584WAT     H279995   2.401   2.893   0.284
26585WAT      O79996   5.720   5.295   2.142
26585WAT     H179997   5.706   5.360   2.218
26585WAT     H279998   5.806   5.316   2.096
26586WAT      O79999   1.442   7.545   6.147
26586WAT     H180000   1.462   7.458   6.192
26586WAT     H280001   1.516   7.568   6.084
26587WAT      O80002   6.942   8.731   6.240
26587WAT     H180003   6.844   8.725   6.260
26587WAT     H280004   6.977   8.818   6.275
26588WAT      O80005   1.200   6.276   9.042
26588WAT     H180006   1.137   6.206   9.075
26588WAT     H280007   1.277   6.233   8.994
26589WAT      O80008   4.446   2.530   7.347
26589WAT     H180009   4.398   2.515   7.433
26589WAT     H280010   4.452   2.628   7.328
26590WAT      O80011   4.173   6.155   8.100
26590WAT     H180012   4.228   6.173   8.019
26590WAT     H280013   4.216   6.198   8.180
26591WAT      O80014   3.386   6.610   2.895
26591WAT     H180015   3.341   6.528   2.929
26591WAT     H280016   3.355   6.629   2.802
26592WAT      O80017   2.551   9.526   0.457
26592WAT     H180018   2.503   9.590   0.517
26592WAT     H280019   2.486   9.458   0.422
26593WAT      O80020   4.306   7.438   9.126
26593WAT     H180021   4.364   7.430   9.045
26593WAT     H280022   4.276   7.533   9.137
26594WAT      O80023   7.177   9.236   9.256
26594WAT     H180024   7.256   9.282   9.297
26594WAT     H280025   7.120   9.303   9.209
26595WAT      O80026   6.729   9.131   8.138
26595WAT     H180027   6.729   9.101   8.043
26595WAT     H280028   6.810   9.096   8.184
26596WAT      O80029   1.737   1.509   9.420
26596WAT     H180030   1.763   1.415   9.398
26596WAT     H280031   1.711   1.515   9.517
26597WAT      O80032   7.050   7.288   9.346
26597WAT     H180033   7.133   7.283   9.402
26597WAT     H280034   7.054   7.218   9.276
26598WAT      O80035   2.854   9.455   6.921
26598WAT     H180036   2.798   9.383   6.962
26598WAT     H280037   2.904   9.504   6.992
26599WAT      O80038   8.730   4.340   3.731
26599WAT     H180039   8.757   4.391   3.813
26599WAT     H280040   8.725   4.403   3.654
26600WAT      O80041   1.359   7.604   5.659
26600WAT     H180042   1.308   7.663   5.722
26600WAT     H280043   1.348   7.509   5.688
26601WAT      O80044   2.245   8.043   6.607
26601WAT     H180045   2.158   8.087   6.584
26601WAT     H280046   2.256   7.960   6.551
26602WAT      O80047   9.711   9.604   3.211
26602WAT     H180048   9.695   9.696   3.246
26602WAT     H280049   9.637   9.544   3.240
26603WAT      O80050   6.462   6.530   2.935
26603WAT     H180051   6.412   6.449   2.903
26603WAT     H280052   6.450   6.539   3.034
26604WAT      O80053   6.734   8.762   5.807
26604WAT     H180054   6.780   8.759   5.718
26604WAT     H280055   6.727   8.857   5.837
26605WAT      O80056   4.326   6.449   3.194
26605WAT     H180057   4.235   6.458   3.235
26605WAT     H280058   4.345   6.352   3.178
26606WAT      O80059   5.461   5.491   2.667
26606WAT     H180060   5.548   5.532   2.638
26606WAT     H280061   5.479   5.402   2.709
26607WAT      O80062   7.326   6.443   4.251
26607WAT     H180063   7.272   6.376   4.200
26607WAT     H280064   7.394   6.395   4.307
26608WAT      O80065   0.606   9.300   5.866
26608WAT     H180066   0.627   9.322   5.961
26608WAT     H280067   0.688   9.264   5.822
26609WAT      O80068   3.618   7.237   0.850
26609WAT     H180069   3.586   7.174   0.920
26609WAT     H280070   3.650   7.186   0.771
26610WAT      O80071   5.569   2.346   2.577
26610WAT     H180072   5.523   2.300   2.502
26610WAT     H280073   5.657   2.382   2.545
26611WAT      O80074   2.892   1.512   5.395
26611WAT     H180075   2.903   1.550   5.487
26611WAT     H280076   2.905   1.585   5.327
26612WAT      O80077   5.817   9.326   2.909
26612WAT     H180078   5.825   9.276   2.995
26612WAT     H280079   5.732   9.380   2.909
26613WAT      O80080   1.819   1.018   2.748
26613WAT     H180081   1.864   0.999   2.661
26613WAT     H280082   1.784   0.933   2.787
26614WAT      O80083   7.978   9.361   5.711
26614WAT     H180084   7.928   9.279   5.736
26614WAT     H280085   7.957   9.385   5.616
26615WAT      O80086   8.141   7.741   7.339
26615WAT     H180087   8.063   7.678   7.344
26615WAT     H280088   8.120   7.816   7.277
26616WAT      O80089   3.899   8.662   9.353
26616WAT     H180090   3.965   8.596   9.389
26616WAT     H280091   3.948   8.741   9.315
26617WAT      O80092   9.442   2.466   5.428
26617WAT     H180093   9.542   2.469   5.437
26617WAT     H280094   9.405   2.396   5.488
26618WAT      O80095   8.726   8.867   9.246
26618WAT     H180096   8.656   8.796   9.235
26618WAT     H280097   8.721   8.931   9.170
26619WAT      O80098   8.380   8.134   4.434
26619WAT     H180099   8.349   8.167   4.345
26619WAT     H280100   8.421   8.043   4.423
26620WAT      O80101   7.312   8.715   9.286
26620WAT     H180102   7.376   8.737   9.359
26620WAT     H280103   7.331   8.773   9.207
26621WAT      O80104   9.873   0.138   7.779
26621WAT     H180105   9.883   0.175   7.871
26621WAT     H280106   9.899   0.041   7.779
26622WAT      O80107   4.546   4.664   6.299
26622WAT     H180108   4.520   4.760   6.291
26622WAT     H280109   4.613   4.641   6.228
26623WAT      O80110   7.017   5.344   9.518
26623WAT     H180111   6.968   5.432   9.522
26623WAT     H280112   6.995   5.291   9.600
26624WAT      O80113   2.686   5.611   3.167
26624WAT     H180114   2.595   5.650   3.177
26624WAT     H280115   2.754   5.684   3.162
26625WAT      O80116   9.175   1.343   5.403
26625WAT     H180117   9.130   1.389   5.479
26625WAT     H280118   9.250   1.400   5.369
26626WAT      O80119   0.771   9.840   7.753
26626WAT     H180120   0.828   9.921   7.769
26626WAT     H280121   0.823   9.772   7.702
26627WAT      O80122   5.406   1.955   6.217
26627WAT     H180123   5.390   2.035   6.274
26627WAT     H280124   5.325   1.938   6.160
26628WAT      O80125   0.150   7.341   6.553
26628WAT     H180126   0.177   7.382   6.640
26628WAT     H280127   0.052   7.356   6.539
26629WAT      O80128   8.071   1.398   5.550
26629WAT     H180129   8.025   1.479   5.587
26629WAT     H280130   8.004   1.325   5.536
26630WAT      O80131   9.774   4.257   7.517
26630WAT     H180132   9.750   4.182   7.454
26630WAT     H280133   9.721   4.247   7.601
26631WAT      O80134   0.522   2.755   1.306
26631WAT     H180135   0.590   2.797   1.246
26631WAT     H280136   0.558   2.670   1.344
26632WAT      O80137   1.832   3.460   2.115
26632WAT     H180138   1.784   3.498   2.193
26632WAT     H280139   1.787   3.488   2.030
26633WAT      O80140   0.533   5.310   1.264
26633WAT     H180141   0.557   5.213   1.258
26633WAT     H280142   0.517   5.334   1.360
26634WAT      O80143   4.187   0.539   3.555
26634WAT     H180144   4.106   0.502   3.509
26634WAT     H280145   4.158   0.601   3.628
26635WAT      O80146   5.960   7.996   4.181
26635WAT     H180147   5.913   7.945   4.253
26635WAT     H280148   5.931   8.092   4.185
26636WAT      O80149   3.480   1.129   6.976
26636WAT     H180150   3.450   1.035   6.991
26636WAT     H280151   3.560   1.130   6.915
26637WAT      O80152   9.888   0.344   5.397
26637WAT     H180153   9.805   0.305   5.436
26637WAT     H280154   9.869   0.384   5.308
26638WAT      O80155   4.298   1.144   6.390
26638WAT     H180156   4.387   1.187   6.371
26638WAT     H280157   4.227   1.188   6.334
26639WAT      O80158   2.824   7.196   5.006
26639WAT     H180159   2.820   7.212   5.105
26639WAT     H280160   2.899   7.132   4.985
26640WAT      O80161   5.047   2.511   8.272
26640WAT     H180162   5.084   2.421   8.294
26640WAT     H280163   5.109   2.582   8.306
26641WAT      O80164   2.043   3.895   9.818
26641WAT     H180165   2.136   3.860   9.810
26641WAT     H280166   2.019   3.945   9.736
26642WAT      O80167   9.451   4.784   5.700
26642WAT     H180168   9.443   4.836   5.615
26642WAT     H280169   9.381   4.815   5.764
26643WAT      O80170   7.255   1.413   5.698
26643WAT     H180171   7.257   1.358   5.615
26643WAT     H280172   7.308   1.497   5.684
26644WAT      O80173   0.525   7.450   5.191
26644WAT     H180174   0.466   7.370   5.192
26644WAT     H280175   0.569   7.460   5.280
26645WAT      O80176   7.449   8.608   5.620
26645WAT     H180177   7.532   8.554   5.608
26645WAT     H280178   7.376   8.549   5.656
26646WAT      O80179   8.805   8.830   4.107
26646WAT     H180180   8.764   8.771   4.176
26646WAT     H280181   8.814   8.923   4.143
26647WAT      O80182   0.247   6.126   4.923
26647WAT     H180183   0.291   6.166   5.004
26647WAT     H280184   0.317   6.104   4.855
26648WAT      O80185   8.960   8.159   8.665
26648WAT     H180186   9.027   8.156   8.591
26648WAT     H280187   8.871   8.128   8.631
26649WAT      O80188   5.987   2.987   0.612
26649WAT     H180189   5.945   2.903   0.578
26649WAT     H280190   5.922   3.062   0.605
26650WAT      O80191   1.103   9.612   6.815
26650WAT     H180192   1.171   9.684   6.828
26650WAT     H280193   1.097   9.557   6.898
26651WAT      O80194   5.307   8.760   7.992
26651WAT     H180195   5.401   8.790   7.975
26651WAT     H280196   5.287   8.768   8.090
26652WAT      O80197   0.314   3.841   2.868
26652WAT     H180198   0.225   3.824   2.828
26652WAT     H280199   0.362   3.912   2.816
26653WAT      O80200   4.266   3.065   9.617
26653WAT     H180201   4.238   3.140   9.556
26653WAT     H280202   4.366   3.061   9.620
26654WAT      O80203   3.179   8.553   7.116
26654WAT     H180204   3.204   8.590   7.205
26654WAT     H280205   3.104   8.487   7.127
26655WAT      O80206   6.400   0.976   8.897
26655WAT     H180207   6.461   1.021   8.962
26655WAT     H280208   6.411   0.877   8.903
26656WAT      O80209   7.480   0.434   0.975
26656WAT     H180210   7.506   0.523   1.014
26656WAT     H280211   7.385   0.439   0.944
26657WAT      O80212   2.914   4.798   0.888
26657WAT     H180213   2.864   4.832   0.967
26657WAT     H280214   2.962   4.714   0.912
26658WAT      O80215   1.838   5.779   0.523
26658WAT     H180216   1.784   5.734   0.594
26658WAT     H280217   1.820   5.735   0.435
26659WAT      O80218   3.180   8.761   7.357
26659WAT     H180219   3.165   8.800   7.448
26659WAT     H280220   3.278   8.754   7.340
26660WAT      O80221   3.815   9.631   7.662
26660WAT     H180222   3.880   9.593   7.727
26660WAT     H280223   3.773   9.556   7.609
26661WAT      O80224   4.742   5.756   3.197
26661WAT     H180225   4.669   5.819   3.170
26661WAT     H280226   4.773   5.706   3.116
26662WAT      O80227   4.442   7.375   5.243
26662WAT     H180228   4.352   7.332   5.248
26662WAT     H280229   4.507   7.325   5.300
26663WAT      O80230   9.013   5.234   2.517
26663WAT     H180231   8.953   5.290   2.575
26663WAT     H280232   8.990   5.250   2.421
26664WAT      O80233   7.267   8.793   6.794
26664WAT     H180234   7.225   8.704   6.780
26664WAT     H280235   7.325   8.816   6.716
26665WAT      O80236   0.036   9.103   5.628
26665WAT     H180237  -0.033   9.048   5.676
26665WAT     H280238   0.089   9.155   5.696
26666WAT      O80239   7.618   3.542   6.579
26666WAT     H180240   7.688   3.484   6.621
26666WAT     H280241   7.647   3.638   6.584
26667WAT      O80242   6.950   0.144   3.516
26667WAT     H180243   6.885   0.155   3.441
26667WAT     H280244   6.913   0.185   3.599
26668WAT      O80245   3.814   5.169   5.800
26668WAT     H180246   3.731   5.218   5.824
26668WAT     H280247   3.811   5.143   5.704
26669WAT      O80248   7.453   0.435   7.177
26669WAT     H180249   7.442   0.412   7.274
26669WAT     H280250   7.535   0.390   7.142
26670WAT      O80251   7.302   8.562   4.488
26670WAT     H180252   7.358   8.601   4.561
26670WAT     H280253   7.344   8.478   4.455
26671WAT      O80254   3.992   9.621   7.862
26671WAT     H180255   4.024   9.592   7.952
26671WAT     H280256   4.054   9.690   7.825
26672WAT      O80257   7.682   2.767   4.369
26672WAT     H180258   7.594   2.813   4.356
26672WAT     H280259   7.678   2.707   4.449
26673WAT      O80260   4.172   3.620   3.098
26673WAT     H180261   4.159   3.543   3.036
26673WAT     H280262   4.202   3.586   3.187
26674WAT      O80263   9.474   6.488   6.966
26674WAT     H180264   9.406   6.547   6.922
26674WAT     H280265   9.428   6.412   7.012
26675WAT      O80266   4.779   9.466   9.005
26675WAT     H180267   4.753   9.404   8.930
26675WAT     H280268   4.787   9.559   8.970
26676WAT      O80269   7.450   6.961   1.641
26676WAT     H180270   7.395   7.041   1.617
26676WAT     H280271   7.472   6.964   1.739
26677WAT      O80272   0.856   7.621   2.693
26677WAT     H180273   0.801   7.694   2.653
26677WAT     H280274   0.905   7.573   2.620
26678WAT      O80275   4.461   4.784   8.339
26678WAT     H180276   4.554   4.820   8.349
26678WAT     H280277   4.396   4.859   8.347
26679WAT      O80278   1.207   8.790   6.519
26679WAT     H180279   1.292   8.842   6.510
26679WAT     H280280   1.213   8.730   6.599
26680WAT      O80281   4.589   9.428   8.287
26680WAT     H180282   4.550   9.500   8.230
26680WAT     H280283   4.515   9.376   8.330
26681WAT      O80284   9.538   7.914   2.182
26681WAT     H180285   9.496   7.939   2.269
26681WAT     H280286   9.536   7.814   2.172
26682WAT      O80287   7.585   0.818   3.708
26682WAT     H180288   7.623   0.735   3.668
26682WAT     H280289   7.491   0.802   3.737
26683WAT      O80290   3.619   8.511   4.755
26683WAT     H180291   3.550   8.542   4.689
26683WAT     H280292   3.628   8.411   4.748
26684WAT      O80293   4.267   6.699   2.639
26684WAT     H180294   4.323   6.655   2.569
26684WAT     H280295   4.191   6.639   2.663
26685WAT      O80296   0.814   3.158   1.469
26685WAT     H180297   0.749   3.133   1.398
26685WAT     H280298   0.800   3.100   1.550
26686WAT      O80299   9.244   3.870   3.412
26686WAT     H180300   9.187   3.939   3.456
26686WAT     H280301   9.340   3.883   3.438
26687WAT      O80302   4.196   2.255   7.040
26687WAT     H180303   4.115   2.212   7.079
26687WAT     H280304   4.224   2.332   7.098
26688WAT      O80305   2.479   4.949   1.773
26688WAT     H180306   2.397   4.913   1.729
26688WAT     H280307   2.517   4.879   1.835
26689WAT      O80308   3.117   2.916   5.497
26689WAT     H180309   3.080   2.849   5.561
26689WAT     H280310   3.145   2.869   5.413
26690WAT      O80311   4.616   0.478   1.425
26690WAT     H180312   4.700   0.469   1.372
26690WAT     H280313   4.636   0.460   1.522
26691WAT      O80314   0.584   3.957   3.449
26691WAT     H180315   0.611   3.864   3.476
26691WAT     H280316   0.596   3.967   3.350
26692WAT      O80317   2.498   6.891   5.018
26692WAT     H180318   2.588   6.876   4.979
26692WAT     H280319   2.439   6.814   4.997
26693WAT      O80320   9.825   5.463   8.947
26693WAT     H180321   9.791   5.381   8.901
26693WAT     H280322   9.880   5.437   9.025
26694WAT      O80323   4.836   0.633   1.216
26694WAT     H180324   4.867   0.570   1.287
26694WAT     H280325   4.836   0.586   1.128
26695WAT      O80326   9.076   4.058   2.697
26695WAT     H180327   9.157   4.111   2.671
26695WAT     H280328   8.999   4.119   2.712
26696WAT      O80329   4.278   3.287   4.055
26696WAT     H180330   4.356   3.347   4.038
26696WAT     H280331   4.236   3.261   3.969
26697WAT      O80332   7.448   5.171   1.486
26697WAT     H180333   7.365   5.195   1.436
26697WAT     H280334   7.424   5.147   1.580
26698WAT      O80335   7.864   1.180   7.812
26698WAT     H180336   7.788   1.172   7.876
26698WAT     H280337   7.829   1.198   7.720
26699WAT      O80338   7.309   9.210   1.632
26699WAT     H180339   7.366   9.284   1.668
26699WAT     H280340   7.354   9.123   1.649
26700WAT      O80341   9.185   0.066   3.489
26700WAT     H180342   9.279   0.077   3.522
26700WAT     H280343   9.182  -0.009   3.423
26701WAT      O80344   6.015   6.403   8.060
26701WAT     H180345   5.931   6.360   8.092
26701WAT     H280346   6.094   6.350   8.092
26702WAT      O80347   6.346   4.317   8.550
26702WAT     H180348   6.339   4.400   8.604
26702WAT     H280349   6.255   4.274   8.543
26703WAT      O80350   7.270   0.375   4.131
26703WAT     H180351   7.324   0.450   4.091
26703WAT     H280352   7.321   0.289   4.122
26704WAT      O80353   3.468   9.580   1.500
26704WAT     H180354   3.469   9.667   1.450
26704WAT     H280355   3.402   9.584   1.574
26705WAT      O80356   3.064   6.257   5.109
26705WAT     H180357   2.967   6.237   5.123
26705WAT     H280358   3.101   6.196   5.039
26706WAT      O80359   3.769   7.832   6.445
26706WAT     H180360   3.752   7.892   6.523
26706WAT     H280361   3.793   7.740   6.479
26707WAT      O80362   4.684   3.595   0.361
26707WAT     H180363   4.634   3.681   0.373
26707WAT     H280364   4.776   3.605   0.398
26708WAT      O80365   0.204   7.437   9.681
26708WAT     H180366   0.208   7.341   9.651
26708WAT     H280367   0.297   7.469   9.699
26709WAT      O80368   6.080   2.033   8.813
26709WAT     H180369   6.015   1.960   8.795
26709WAT     H280370   6.144   2.004   8.885
26710WAT      O80371   5.301   8.640   0.026
26710WAT     H180372   5.249   8.705  -0.030
26710WAT     H280373   5.277   8.546  -0.001
26711WAT      O80374   1.825   8.509   8.266
26711WAT     H180375   1.764   8.584   8.246
26711WAT     H280376   1.772   8.427   8.286
26712WAT      O80377   7.079   2.588   4.471
26712WAT     H180378   6.988   2.627   4.456
26712WAT     H280379   7.146   2.662   4.478
26713WAT      O80380   6.380   0.683   2.935
26713WAT     H180381   6.380   0.718   2.841
26713WAT     H280382   6.320   0.603   2.941
26714WAT      O80383   3.503   2.811   1.657
26714WAT     H180384   3.446   2.795   1.576
26714WAT     H280385   3.464   2.886   1.711
26715WAT      O80386   8.972   8.743   1.576
26715WAT     H180387   8.878   8.720   1.552
26715WAT     H280388   9.035   8.701   1.510
26716WAT      O80389   6.272   1.053   8.126
26716WAT     H180390   6.240   0.960   8.142
26716WAT     H280391   6.196   1.117   8.141
26717WAT      O80392   2.301   6.393   3.724
26717WAT     H180393   2.229   6.456   3.756
26717WAT     H280394   2.295   6.384   3.625
26718WAT      O80395   5.901   7.636   0.211
26718WAT     H180396   5.880   7.646   0.309
26718WAT     H280397   6.000   7.626   0.199
26719WAT      O80398   7.482   9.044   3.221
26719WAT     H180399   7.506   8.957   3.178
26719WAT     H280400   7.390   9.070   3.194
26720WAT      O80401   6.529   3.237   6.300
26720WAT     H180402   6.494   3.221   6.392
26720WAT     H280403   6.578   3.155   6.268
26721WAT      O80404   5.646   1.223   9.720
26721WAT     H180405   5.700   1.274   9.654
26721WAT     H280406   5.703   1.154   9.765
26722WAT      O80407   9.082   1.161   4.318
26722WAT     H180408   9.171   1.191   4.351
26722WAT     H280409   9.035   1.238   4.274
26723WAT      O80410   2.078   7.069   9.713
26723WAT     H180411   2.026   7.146   9.751
26723WAT     H280412   2.117   7.095   9.625
26724WAT      O80413   0.337   0.793   9.145
26724WAT     H180414   0.318   0.775   9.048
26724WAT     H280415   0.265   0.751   9.201
26725WAT      O80416   4.716   2.683   9.768
26725WAT     H180417   4.663   2.766   9.787
26725WAT     H280418   4.656   2.613   9.729
26726WAT      O80419   9.280   8.445   2.605
26726WAT     H180420   9.341   8.396   2.667
26726WAT     H280421   9.327   8.464   2.519
26727WAT      O80422   1.279   7.181   9.009
26727WAT     H180423   1.203   7.165   9.072
26727WAT     H280424   1.329   7.264   9.036
26728WAT      O80425   1.881   5.418   3.570
26728WAT     H180426   1.785   5.439   3.550
26728WAT     H280427   1.886   5.328   3.614
26729WAT      O80428   6.196   6.332   7.785
26729WAT     H180429   6.099   6.355   7.787
26729WAT     H280430   6.209   6.241   7.824
26730WAT      O80431   5.855   9.634   2.358
26730WAT     H180432   5.829   9.564   2.425
26730WAT     H280433   5.816   9.722   2.384
26731WAT      O80434   4.446   6.591   2.188
26731WAT     H180435   4.443   6.568   2.285
26731WAT     H280436   4.413   6.684   2.175
26732WAT      O80437   5.434   5.179   5.333
26732WAT     H180438   5.533   5.163   5.333
26732WAT     H280439   5.413   5.258   5.391
26733WAT      O80440   3.750   4.044   4.807
26733WAT     H180441   3.691   4.091   4.741
26733WAT     H280442   3.843   4.040   4.771
26734WAT      O80443   6.445   2.995   7.605
26734WAT     H180444   6.476   2.938   7.681
26734WAT     H280445   6.346   2.984   7.594
26735WAT      O80446   0.933   2.979   4.333
26735WAT     H180447   0.988   2.902   4.367
26735WAT     H280448   0.989   3.062   4.332
26736WAT      O80449   4.210   8.380   6.450
26736WAT     H180450   4.289   8.441   6.436
26736WAT     H280451   4.135   8.433   6.489
26737WAT      O80452   2.975   1.936   4.404
26737WAT     H180453   2.976   1.942   4.504
26737WAT     H280454   2.890   1.976   4.369
26738WAT      O80455   4.686   6.881   4.511
26738WAT     H180456   4.692   6.960   4.450
26738WAT     H280457   4.610   6.893   4.575
26739WAT      O80458   3.987   2.310   6.567
26739WAT     H180459   4.021   2.402   6.547
26739WAT     H280460   3.990   2.294   6.666
26740WAT      O80461   2.291   9.382   4.678
26740WAT     H180462   2.342   9.400   4.763
26740WAT     H280463   2.220   9.451   4.666
26741WAT      O80464   3.346   2.336   8.507
26741WAT     H180465   3.398   2.295   8.581
26741WAT     H280466   3.251   2.346   8.534
26742WAT      O80467   7.254   7.281   9.526
26742WAT     H180468   7.241   7.260   9.623
26742WAT     H280469   7.341   7.328   9.514
26743WAT      O80470   3.177   1.673   6.266
26743WAT     H180471   3.114   1.751   6.264
26743WAT     H280472   3.265   1.700   6.226
26744WAT      O80473   0.758   5.283   5.052
26744WAT     H180474   0.753   5.185   5.032
26744WAT     H280475   0.674   5.311   5.099
26745WAT      O80476   9.494   3.716   3.756
26745WAT     H180477   9.402   3.690   3.784
26745WAT     H280478   9.560   3.652   3.795
26746WAT      O80479   8.981   5.528   8.783
26746WAT     H180480   8.943   5.461   8.719
26746WAT     H280481   9.068   5.563   8.748
26747WAT      O80482   2.225   5.491   0.046
26747WAT     H180483   2.306   5.546   0.021
26747WAT     H280484   2.144   5.532   0.005
26748WAT      O80485   3.953   0.444   9.366
26748WAT     H180486   3.857   0.429   9.390
26748WAT     H280487   3.963   0.438   9.266
26749WAT      O80488   1.794   1.031   5.380
26749WAT     H180489   1.756   0.944   5.409
26749WAT     H280490   1.778   1.100   5.451
26750WAT      O80491   7.131   2.304   1.454
26750WAT     H180492   7.186   2.304   1.370
26750WAT     H280493   7.051   2.363   1.441
26751WAT      O80494   8.620   8.221   4.525
26751WAT     H180495   8.645   8.184   4.614
26751WAT     H280496   8.524   8.202   4.506
26752WAT      O80497   5.590   8.780   6.190
26752WAT     H180498   5.521   8.820   6.130
26752WAT     H280499   5.642   8.710   6.141
26753WAT      O80500   7.997   5.226   1.132
26753WAT     H180501   8.040   5.229   1.222
26753WAT     H280502   8.030   5.146   1.083
26754WAT      O80503   5.189   3.342   9.718
26754WAT     H180504   5.119   3.369   9.783
26754WAT     H280505   5.252   3.277   9.762
26755WAT      O80506   8.534   1.542   4.453
26755WAT     H180507   8.591   1.602   4.397
26755WAT     H280508   8.467   1.496   4.396
26756WAT      O80509   5.981   9.666   6.499
26756WAT     H180510   5.952   9.716   6.581
26756WAT     H280511   5.933   9.701   6.419
26757WAT      O80512   6.658   6.287   5.033
26757WAT     H180513   6.630   6.343   4.955
26757WAT     H280514   6.757   6.277   5.033
26758WAT      O80515   4.257   6.244   8.922
26758WAT     H180516   4.224   6.180   8.991
26758WAT     H280517   4.251   6.337   8.958
26759WAT      O80518   8.867   3.335   3.765
26759WAT     H180519   8.775   3.335   3.726
26759WAT     H280520   8.917   3.254   3.734
26760WAT      O80521   1.878   8.987   3.468
26760WAT     H180522   1.855   8.929   3.546
26760WAT     H280523   1.825   9.072   3.472
26761WAT      O80524   2.859   4.615   9.349
26761WAT     H180525   2.895   4.543   9.409
26761WAT     H280526   2.927   4.687   9.339
26762WAT      O80527   1.921   2.011   2.550
26762WAT     H180528   1.998   2.002   2.487
26762WAT     H280529   1.874   1.923   2.558
26763WAT      O80530   6.948   8.096   1.817
26763WAT     H180531   6.889   8.055   1.747
26763WAT     H280532   6.964   8.192   1.794
26764WAT      O80533   5.290   8.337   3.945
26764WAT     H180534   5.290   8.238   3.960
26764WAT     H280535   5.206   8.377   3.981
26765WAT      O80536   5.349   4.529   2.818
26765WAT     H180537   5.373   4.484   2.904
26765WAT     H280538   5.414   4.502   2.747
26766WAT      O80539   8.888   4.771   3.502
26766WAT     H180540   8.869   4.841   3.571
26766WAT     H280541   8.908   4.814   3.414
26767WAT      O80542   1.009   8.023   1.826
26767WAT     H180543   0.966   7.975   1.749
26767WAT     H280544   0.938   8.069   1.880
26768WAT      O80545   7.283   5.202   6.643
26768WAT     H180546   7.217   5.267   6.605
26768WAT     H280547   7.375   5.226   6.612
26769WAT      O80548   3.475   3.671   9.528
26769WAT     H180549   3.549   3.626   9.577
26769WAT     H280550   3.441   3.748   9.582
26770WAT      O80551   3.183   9.673   1.287
26770WAT     H180552   3.189   9.573   1.293
26770WAT     H280553   3.156   9.709   1.377
26771WAT      O80554   1.556   9.753   8.447
26771WAT     H180555   1.516   9.796   8.528
26771WAT     H280556   1.569   9.822   8.376
26772WAT      O80557   4.599   8.470   3.558
26772WAT     H180558   4.659   8.531   3.610
26772WAT     H280559   4.629   8.376   3.569
26773WAT      O80560   1.147   8.879   6.921
26773WAT     H180561   1.192   8.962   6.888
26773WAT     H280562   1.170   8.802   6.861
26774WAT      O80563   0.637   4.495   9.128
26774WAT     H180564   0.547   4.525   9.097
26774WAT     H280565   0.706   4.522   9.060
26775WAT      O80566   3.556   3.694   0.550
26775WAT     H180567   3.581   3.684   0.646
26775WAT     H280568   3.463   3.659   0.536
26776WAT      O80569   7.708   4.608   2.388
26776WAT     H180570   7.745   4.598   2.480
26776WAT     H280571   7.712   4.704   2.360
26777WAT      O80572   4.113   5.272   0.441
26777WAT     H180573   4.152   5.349   0.492
26777WAT     H280574   4.180   5.240   0.373
26778WAT      O80575   0.644   3.822   8.895
26778WAT     H180576   0.557   3.828   8.945
26778WAT     H280577   0.627   3.794   8.801
26779WAT      O80578   4.871   7.788   1.897
26779WAT     H180579   4.920   7.782   1.984
26779WAT     H280580   4.825   7.877   1.892
26780WAT      O80581   6.375   0.194   1.215
26780WAT     H180582   6.464   0.201   1.260
26780WAT     H280583   6.379   0.241   1.126
26781WAT      O80584   3.250   6.577   6.484
26781WAT     H180585   3.288   6.530   6.563
26781WAT     H280586   3.150   6.573   6.488
26782WAT      O80587   0.723   8.713   2.279
26782WAT     H180588   0.698   8.797   2.329
26782WAT     H280589   0.810   8.726   2.233
26783WAT      O80590   9.102   6.078   6.243
26783WAT     H180591   9.013   6.096   6.285
26783WAT     H280592   9.169   6.062   6.316
26784WAT      O80593   7.018   3.320   1.458
26784WAT     H180594   7.022   3.333   1.359
26784WAT     H280595   7.067   3.236   1.483
26785WAT      O80596   0.295   5.983   0.242
26785WAT     H180597   0.385   5.980   0.285
26785WAT     H280598   0.292   5.917   0.167
26786WAT      O80599   9.420   3.527   9.170
26786WAT     H180600   9.514   3.541   9.138
26786WAT     H280601   9.418   3.455   9.239
26787WAT      O80602   8.836   2.600   0.210
26787WAT     H180603   8.934   2.620   0.209
26787WAT     H280604   8.796   2.628   0.123
26788WAT      O80605   9.210   4.365   7.399
26788WAT     H180606   9.173   4.437   7.341
26788WAT     H280607   9.148   4.287   7.399
26789WAT      O80608   1.532   3.577   1.224
26789WAT     H180609   1.432   3.575   1.217
26789WAT     H280610   1.558   3.582   1.321
26790WAT      O80611   2.040   4.615   3.315
26790WAT     H180612   2.049   4.542   3.382
26790WAT     H280613   1.951   4.660   3.327
26791WAT      O80614   0.119   4.585   6.403
26791WAT     H180615   0.172   4.610   6.484
26791WAT     H280616   0.060   4.508   6.424
26792WAT      O80617   9.017   0.273   9.201
26792WAT     H180618   9.060   0.184   9.219
26792WAT     H280619   8.990   0.278   9.105
26793WAT      O80620   8.077   4.801   5.281
26793WAT     H180621   8.141   4.821   5.355
26793WAT     H280622   7.986   4.834   5.306
26794WAT      O80623   1.055   5.749   4.888
26794WAT     H180624   1.020   5.770   4.979
26794WAT     H280625   1.151   5.777   4.881
26795WAT      O80626   0.240   1.584   1.692
26795WAT     H180627   0.275   1.662   1.641
26795WAT     H280628   0.141   1.593   1.704
26796WAT      O80629   5.985   9.099   5.155
26796WAT     H180630   6.042   9.178   5.177
26796WAT     H280631   5.889   9.121   5.171
26797WAT      O80632   5.611   0.446   2.137
26797WAT     H180633   5.656   0.535   2.126
26797WAT     H280634   5.513   0.456   2.119
26798WAT      O80635   5.402   0.061   9.611
26798WAT     H180636   5.338   0.045   9.536
26798WAT     H280637   5.489   0.092   9.574
26799WAT      O80638   6.449   4.670   8.018
26799WAT     H180639   6.453   4.581   7.972
26799WAT     H280640   6.540   4.710   8.022
26800WAT      O80641   8.808   3.064   2.386
26800WAT     H180642   8.724   3.013   2.368
26800WAT     H280643   8.799   3.158   2.353
26801WAT      O80644   3.541   7.341   0.085
26801WAT     H180645   3.468   7.398   0.048
26801WAT     H280646   3.629   7.370   0.047
26802WAT      O80647   7.666   6.271   6.715
26802WAT     H180648   7.636   6.179   6.740
26802WAT     H280649   7.696   6.272   6.619
26803WAT      O80650   6.149   3.177   3.861
26803WAT     H180651   6.079   3.136   3.801
26803WAT     H280652   6.167   3.115   3.938
26804WAT      O80653   1.555   2.725   7.959
26804WAT     H180654   1.492   2.803   7.966
26804WAT     H280655   1.510   2.650   7.911
26805WAT      O80656   3.279   2.128   3.177
26805WAT     H180657   3.279   2.120   3.077
26805WAT     H280658   3.196   2.087   3.214
26806WAT      O80659   1.899   2.881   6.874
26806WAT     H180660   1.941   2.854   6.788
26806WAT     H280661   1.911   2.807   6.941
26807WAT      O80662   3.028   1.129   1.826
26807WAT     H180663   2.948   1.179   1.858
26807WAT     H280664   3.002   1.068   1.751
26808WAT      O80665   8.659   8.916   5.432
26808WAT     H180666   8.604   8.997   5.417
26808WAT     H280667   8.624   8.865   5.510
26809WAT      O80668   3.381   3.954   5.462
26809WAT     H180669   3.438   3.906   5.529
26809WAT     H280670   3.285   3.931   5.478
26810WAT      O80671   2.331   0.431   7.225
26810WAT     H180672   2.367   0.410   7.134
26810WAT     H280673   2.407   0.456   7.285
26811WAT      O80674   9.428   6.169   8.774
26811WAT     H180675   9.424   6.235   8.849
26811WAT     H280676   9.519   6.171   8.733
26812WAT      O80677   2.609   2.533   0.936
26812WAT     H180678   2.599   2.633   0.944
26812WAT     H280679   2.543   2.489   0.997
26813WAT      O80680   1.609   9.232   2.734
26813WAT     H180681   1.635   9.155   2.675
26813WAT     H280682   1.613   9.317   2.681
26814WAT      O80683   7.835   6.601   4.120
26814WAT     H180684   7.870   6.581   4.212
26814WAT     H280685   7.819   6.515   4.071
26815WAT      O80686   0.980   5.785   5.140
26815WAT     H180687   0.888   5.787   5.179
26815WAT     H280688   1.045   5.756   5.211
26816WAT      O80689   0.367   4.589   9.103
26816WAT     H180690   0.375   4.554   9.196
26816WAT     H280691   0.376   4.689   9.105
26817WAT      O80692   7.463   0.729   9.354
26817WAT     H180693   7.500   0.656   9.411
26817WAT     H280694   7.413   0.794   9.411
26818WAT      O80695   4.585   1.693   6.439
26818WAT     H180696   4.553   1.715   6.531
26818WAT     H280697   4.564   1.768   6.377
26819WAT      O80698   8.253   2.861   1.574
26819WAT     H180699   8.338   2.909   1.551
26819WAT     H280700   8.258   2.827   1.668
26820WAT      O80701   6.783   9.343   3.384
26820WAT     H180702   6.806   9.246   3.377
26820WAT     H280703   6.744   9.375   3.298
26821WAT      O80704   4.740   7.883   3.044
26821WAT     H180705   4.656   7.922   3.081
26821WAT     H280706   4.722   7.838   2.957
26822WAT      O80707   5.493   6.523   0.971
26822WAT     H180708   5.529   6.573   0.892
26822WAT     H280709   5.569   6.487   1.025
26823WAT      O80710   8.602   4.197   5.788
26823WAT     H180711   8.641   4.189   5.879
26823WAT     H280712   8.583   4.106   5.751
26824WAT      O80713   5.046   6.643   0.407
26824WAT     H180714   5.017   6.619   0.500
26824WAT     H280715   5.143   6.621   0.396
26825WAT      O80716   2.221   2.019   4.463
26825WAT     H180717   2.265   1.930   4.469
26825WAT     H280718   2.282   2.085   4.419
26826WAT      O80719   1.142   3.280   5.845
26826WAT     H180720   1.049   3.314   5.857
26826WAT     H280721   1.187   3.273   5.934
26827WAT      O80722   0.793   8.284   4.808
26827WAT     H180723   0.709   8.268   4.860
26827WAT     H280724   0.870   8.293   4.871
26828WAT      O80725   3.809   1.021   8.766
26828WAT     H180726   3.904   1.031   8.796
26828WAT     H280727   3.749   1.073   8.826
26829WAT      O80728   2.588   6.883   3.692
26829WAT     H180729   2.494   6.904   3.665
26829WAT     H280730   2.619   6.801   3.644
26830WAT      O80731   1.405   4.569   3.355
26830WAT     H180732   1.455   4.579   3.441
26830WAT     H280733   1.322   4.624   3.359
26831WAT      O80734   5.497   3.290   4.189
26831WAT     H180735   5.443   3.246   4.117
26831WAT     H280736   5.487   3.389   4.182
26832WAT      O80737   2.437   2.141   2.219
26832WAT     H180738   2.391   2.180   2.140
26832WAT     H280739   2.464   2.214   2.282
26833WAT      O80740   1.605   3.836   6.397
26833WAT     H180741   1.640   3.794   6.314
26833WAT     H280742   1.643   3.928   6.405
26834WAT      O80743   3.732   8.625   2.143
26834WAT     H180744   3.799   8.601   2.214
26834WAT     H280745   3.759   8.710   2.099
26835WAT      O80746   5.126   0.119   1.543
26835WAT     H180747   5.124   0.022   1.569
26835WAT     H280748   5.046   0.140   1.486
26836WAT      O80749   1.789   3.837   1.903
26836WAT     H180750   1.887   3.854   1.910
26836WAT     H280751   1.770   3.783   1.821
26837WAT      O80752   1.078   9.046   2.214
26837WAT     H180753   1.077   9.140   2.248
26837WAT     H280754   1.024   8.988   2.274
26838WAT      O80755   5.172   8.088   8.526
26838WAT     H180756   5.172   7.996   8.487
26838WAT     H280757   5.203   8.084   8.621
26839WAT      O80758   5.351   1.539   2.893
26839WAT     H180759   5.398   1.621   2.925
26839WAT     H280760   5.419   1.468   2.872
26840WAT      O80761   3.356   1.765   1.272
26840WAT     H180762   3.309   1.817   1.202
26840WAT     H280763   3.439   1.725   1.234
26841WAT      O80764   0.637   1.751   8.736
26841WAT     H180765   0.713   1.691   8.762
26841WAT     H280766   0.658   1.793   8.648
26842WAT      O80767   3.241   8.040   6.546
26842WAT     H180768   3.268   7.958   6.597
26842WAT     H280769   3.241   8.119   6.607
26843WAT      O80770   5.355   5.510   6.079
26843WAT     H180771   5.350   5.503   6.178
26843WAT     H280772   5.321   5.426   6.038
26844WAT      O80773   1.827   3.851   8.997
26844WAT     H180774   1.845   3.903   9.081
26844WAT     H280775   1.798   3.759   9.021
26845WAT      O80776   8.158   7.063   3.756
26845WAT     H180777   8.092   7.138   3.765
26845WAT     H280778   8.178   7.048   3.659
26846WAT      O80779   9.117   4.156   1.704
26846WAT     H180780   9.072   4.132   1.791
26846WAT     H280781   9.112   4.079   1.641
26847WAT      O80782   4.419   1.291   5.158
26847WAT     H180783   4.334   1.237   5.152
26847WAT     H280784   4.413   1.353   5.237
26848WAT      O80785   2.652   3.200   3.257
26848WAT     H180786   2.592   3.202   3.177
26848WAT     H280787   2.597   3.206   3.340
26849WAT      O80788   4.307   6.180   9.542
26849WAT     H180789   4.312   6.134   9.631
26849WAT     H280790   4.256   6.122   9.478
26850WAT      O80791   8.668   4.033   1.174
26850WAT     H180792   8.660   4.112   1.113
26850WAT     H280793   8.612   3.958   1.138
26851WAT      O80794   7.365   0.330   1.754
26851WAT     H180795   7.388   0.337   1.851
26851WAT     H280796   7.422   0.261   1.710
26852WAT      O80797   5.591   3.773   1.393
26852WAT     H180798   5.635   3.824   1.320
26852WAT     H280799   5.602   3.675   1.377
26853WAT      O80800   0.666   4.224   2.052
26853WAT     H180801   0.571   4.254   2.058
26853WAT     H280802   0.707   4.222   2.143
26854WAT      O80803   5.306   8.033   0.142
26854WAT     H180804   5.339   8.055   0.234
26854WAT     H280805   5.308   7.934   0.129
26855WAT      O80806   5.277   3.041   6.725
26855WAT     H180807   5.247   2.946   6.721
26855WAT     H280808   5.364   3.051   6.677
26856WAT      O80809   8.911   5.355   0.932
26856WAT     H180810   8.995   5.377   0.882
26856WAT     H280811   8.852   5.435   0.935
26857WAT      O80812   1.272   2.449   1.820
26857WAT     H180813   1.362   2.487   1.799
26857WAT     H280814   1.228   2.506   1.890
26858WAT      O80815   9.811   0.493   9.084
26858WAT     H180816   9.738   0.435   9.047
26858WAT     H280817   9.838   0.460   9.174
26859WAT      O80818   8.802   9.060   4.245
26859WAT     H180819   8.741   9.139   4.250
26859WAT     H280820   8.891   9.084   4.285
26860WAT      O80821   8.465   9.440   3.194
26860WAT     H180822   8.491   9.533   3.167
26860WAT     H280823   8.393   9.406   3.133
26861WAT      O80824   4.521   8.861   4.629
26861WAT     H180825   4.607   8.815   4.653
26861WAT     H280826   4.541   8.951   4.591
26862WAT      O80827   0.053   5.012   0.488
26862WAT     H180828  -0.044   4.988   0.487
26862WAT     H280829   0.064   5.105   0.523
26863WAT      O80830   1.618   8.803   9.740
26863WAT     H180831   1.618   8.874   9.811
26863WAT     H280832   1.534   8.750   9.746
26864WAT      O80833   5.800   3.509   9.479
26864WAT     H180834   5.816   3.419   9.521
26864WAT     H280835   5.851   3.515   9.394
26865WAT      O80836   1.545   4.652   5.752
26865WAT     H180837   1.465   4.594   5.740
26865WAT     H280838   1.517   4.748   5.755
26866WAT      O80839   1.388   3.648   5.831
26866WAT     H180840   1.321   3.664   5.903
26866WAT     H280841   1.465   3.710   5.842
26867WAT      O80842   2.051   6.500   4.483
26867WAT     H180843   2.057   6.509   4.384
26867WAT     H280844   1.986   6.567   4.519
26868WAT      O80845   9.837   6.215   4.255
26868WAT     H180846   9.819   6.297   4.310
26868WAT     H280847   9.815   6.234   4.159
26869WAT      O80848   0.723   7.303   0.526
26869WAT     H180849   0.724   7.203   0.524
26869WAT     H280850   0.679   7.335   0.610
26870WAT      O80851   7.490   2.692   0.341
26870WAT     H180852   7.511   2.669   0.436
26870WAT     H280853   7.573   2.682   0.285
26871WAT      O80854   1.368   2.156   7.902
26871WAT     H180855   1.431   2.217   7.950
26871WAT     H280856   1.421   2.090   7.848
26872WAT      O80857   3.540   5.709   4.388
26872WAT     H180858   3.623   5.748   4.428
26872WAT     H280859   3.464   5.720   4.452
26873WAT      O80860   2.689   2.152   0.191
26873WAT     H180861   2.620   2.202   0.244
26873WAT     H280862   2.721   2.210   0.116
26874WAT      O80863   2.388   3.717   5.717
26874WAT     H180864   2.459   3.647   5.716
26874WAT     H280865   2.411   3.789   5.651
26875WAT      O80866   5.102   2.164   3.116
26875WAT     H180867   5.155   2.246   3.096
26875WAT     H280868   5.056   2.175   3.204
26876WAT      O80869   9.523   2.057   0.436
26876WAT     H180870   9.568   2.001   0.506
26876WAT     H280871   9.564   2.147   0.434
26877WAT      O80872   0.457   8.188   9.336
26877WAT     H180873   0.477   8.094   9.365
26877WAT     H280874   0.496   8.252   9.401
26878WAT      O80875   0.394   1.703   8.068
26878WAT     H180876   0.431   1.791   8.095
26878WAT     H280877   0.450   1.629   8.105
26879WAT      O80878   2.572   7.491   4.422
26879WAT     H180879   2.512   7.566   4.394
26879WAT     H280880   2.518   7.410   4.442
26880WAT      O80881   2.204   9.271   2.928
26880WAT     H180882   2.121   9.293   2.877
26880WAT     H280883   2.259   9.354   2.939
26881WAT      O80884   8.287   9.167   4.295
26881WAT     H180885   8.352   9.168   4.371
26881WAT     H280886   8.249   9.076   4.284
26882WAT      O80887   1.473   7.184   4.423
26882WAT     H180888   1.382   7.143   4.431
26882WAT     H280889   1.481   7.230   4.335
26883WAT      O80890   8.844   6.106   3.717
26883WAT     H180891   8.927   6.050   3.707
26883WAT     H280892   8.810   6.099   3.810
26884WAT      O80893   8.818   2.993   8.850
26884WAT     H180894   8.766   3.053   8.789
26884WAT     H280895   8.859   2.919   8.796
26885WAT      O80896   0.888   2.001   8.076
26885WAT     H180897   0.852   2.085   8.035
26885WAT     H280898   0.974   1.976   8.032
26886WAT      O80899   2.740   1.124   9.524
26886WAT     H180900   2.820   1.122   9.464
26886WAT     H280901   2.720   1.218   9.551
26887WAT      O80902   8.308   0.050   5.624
26887WAT     H180903   8.339   0.114   5.694
26887WAT     H280904   8.364  -0.033   5.627
26888WAT      O80905   7.151   5.082   2.907
26888WAT     H180906   7.152   5.044   2.999
26888WAT     H280907   7.099   5.021   2.846
26889WAT      O80908   2.434   1.495   2.478
26889WAT     H180909   2.405   1.537   2.392
26889WAT     H280910   2.436   1.396   2.468
26890WAT      O80911   4.347   9.790   1.101
26890WAT     H180912   4.263   9.757   1.059
26890WAT     H280913   4.336   9.885   1.130
26891WAT      O80914   3.471   3.853   8.767
26891WAT     H180915   3.415   3.933   8.744
26891WAT     H280916   3.412   3.774   8.783
26892WAT      O80917   5.163   7.387   4.093
26892WAT     H180918   5.170   7.370   4.191
26892WAT     H280919   5.226   7.461   4.068
26893WAT      O80920   3.186   2.181   9.053
26893WAT     H180921   3.194   2.269   9.006
26893WAT     H280922   3.276   2.137   9.059
26894WAT      O80923   9.217   1.856   2.762
26894WAT     H180924   9.291   1.789   2.760
26894WAT     H280925   9.204   1.894   2.670
26895WAT      O80926   1.490   5.300   9.824
26895WAT     H180927   1.412   5.240   9.807
26895WAT     H280928   1.534   5.323   9.737
26896WAT      O80929   7.816   0.960   7.256
26896WAT     H180930   7.893   1.017   7.285
26896WAT     H280931   7.828   0.867   7.288
26897WAT      O80932   7.854   7.952   4.593
26897WAT     H180933   7.878   7.920   4.685
26897WAT     H280934   7.917   7.914   4.526
26898WAT      O80935   2.275   3.212   1.322
26898WAT     H180936   2.179   3.194   1.343
26898WAT     H280937   2.305   3.294   1.370
26899WAT      O80938   8.692   6.761   8.687
26899WAT     H180939   8.680   6.809   8.775
26899WAT     H280940   8.669   6.823   8.612
26900WAT      O80941   9.094   6.923   1.648
26900WAT     H180942   9.155   6.848   1.623
26900WAT     H280943   9.114   6.952   1.741
26901WAT      O80944   3.443   9.537   9.837
26901WAT     H180945   3.451   9.450   9.788
26901WAT     H280946   3.350   9.549   9.871
26902WAT      O80947   8.715   5.414   3.957
26902WAT     H180948   8.801   5.386   4.000
26902WAT     H280949   8.645   5.345   3.976
26903WAT      O80950   7.626   6.824   3.310
26903WAT     H180951   7.695   6.883   3.269
26903WAT     H280952   7.606   6.748   3.247
26904WAT      O80953   8.085   8.545   5.971
26904WAT     H180954   8.107   8.514   5.879
26904WAT     H280955   8.163   8.593   6.010
26905WAT      O80956   7.690   5.899   4.589
26905WAT     H180957   7.614   5.834   4.601
26905WAT     H280958   7.667   5.985   4.636
26906WAT      O80959   1.715   9.477   0.940
26906WAT     H180960   1.671   9.557   0.982
26906WAT     H280961   1.646   9.422   0.894
26907WAT      O80962   2.166   9.529   3.820
26907WAT     H180963   2.117   9.604   3.776
26907WAT     H280964   2.197   9.557   3.911
26908WAT      O80965   8.082   1.943   5.944
26908WAT     H180966   8.151   1.909   5.881
26908WAT     H280967   8.063   2.040   5.924
26909WAT      O80968   0.401   7.088   7.181
26909WAT     H180969   0.467   7.162   7.167
26909WAT     H280970   0.431   7.030   7.257
26910WAT      O80971   9.361   4.743   0.293
26910WAT     H180972   9.293   4.797   0.243
26910WAT     H280973   9.444   4.734   0.238
26911WAT      O80974   4.323   4.277   9.116
26911WAT     H180975   4.281   4.325   9.039
26911WAT     H280976   4.414   4.317   9.134
26912WAT      O80977   3.644   0.395   7.006
26912WAT     H180978   3.571   0.331   6.981
26912WAT     H280979   3.637   0.477   6.949
26913WAT      O80980   8.389   0.727   3.558
26913WAT     H180981   8.351   0.807   3.511
26913WAT     H280982   8.447   0.757   3.633
26914WAT      O80983   1.647   1.980   2.909
26914WAT     H180984   1.682   2.032   2.831
26914WAT     H280985   1.553   1.950   2.891
26915WAT      O80986   7.341   7.266   6.369
26915WAT     H180987   7.305   7.173   6.374
26915WAT     H280988   7.313   7.308   6.283
26916WAT      O80989   4.727   3.295   1.251
26916WAT     H180990   4.751   3.390   1.229
26916WAT     H280991   4.810   3.239   1.247
26917WAT      O80992   4.158   7.120   8.975
26917WAT     H180993   4.135   7.182   9.050
26917WAT     H280994   4.075   7.091   8.929
26918WAT      O80995   2.145   4.902   2.122
26918WAT     H180996   2.197   4.976   2.080
26918WAT     H280997   2.072   4.872   2.060
26919WAT      O80998   3.690   7.860   0.470
26919WAT     H180999   3.656   7.893   0.558
26919WAT     H281000   3.787   7.837   0.477
26920WAT      O81001   9.000   5.699   3.232
26920WAT     H181002   8.944   5.782   3.230
26920WAT     H281003   9.089   5.719   3.273
26921WAT      O81004   2.877   4.866   0.395
26921WAT     H181005   2.867   4.805   0.474
26921WAT     H281006   2.959   4.921   0.406
26922WAT      O81007   0.032   1.767   1.262
26922WAT     H181008  -0.038   1.699   1.286
26922WAT     H281009   0.110   1.721   1.219
26923WAT      O81010   1.821   2.471   9.433
26923WAT     H181011   1.840   2.469   9.335
26923WAT     H281012   1.756   2.400   9.456
26924WAT      O81013   2.084   4.000   1.197
26924WAT     H181014   2.171   4.039   1.167
26924WAT     H281015   2.019   4.001   1.121
26925WAT      O81016   6.399   4.006   3.068
26925WAT     H181017   6.347   4.009   2.982
26925WAT     H281018   6.342   3.968   3.140
26926WAT      O81019   0.860   0.802   6.625
26926WAT     H181020   0.835   0.715   6.668
26926WAT     H281021   0.855   0.875   6.693
26927WAT      O81022   4.005   4.450   9.186
26927WAT     H181023   3.957   4.375   9.231
26927WAT     H281024   4.102   4.446   9.209
26928WAT      O81025   1.366   4.857   7.093
26928WAT     H181026   1.269   4.858   7.117
26928WAT     H281027   1.399   4.950   7.083
26929WAT      O81028   5.374   1.155   9.704
26929WAT     H181029   5.469   1.167   9.732
26929WAT     H281030   5.321   1.236   9.727
26930WAT      O81031   2.363   5.240   9.414
26930WAT     H181032   2.344   5.338   9.411
26930WAT     H281033   2.351   5.207   9.508
26931WAT      O81034   9.469   9.750   6.276
26931WAT     H181035   9.439   9.693   6.352
26931WAT     H281036   9.389   9.792   6.232
26932WAT      O81037   6.335   3.746   2.462
26932WAT     H181038   6.397   3.758   2.540
26932WAT     H281039   6.372   3.795   2.382
26933WAT      O81040   5.425   6.264   3.171
26933WAT     H181041   5.460   6.346   3.215
26933WAT     H281042   5.376   6.208   3.238
26934WAT      O81043   2.728   8.741   6.584
26934WAT     H181044   2.819   8.729   6.623
26934WAT     H281045   2.674   8.658   6.598
26935WAT      O81046   6.623   5.924   3.729
26935WAT     H181047   6.666   5.903   3.817
26935WAT     H281048   6.676   5.882   3.656
26936WAT      O81049   2.220   4.187   5.149
26936WAT     H181050   2.232   4.228   5.059
26936WAT     H281051   2.123   4.191   5.175
26937WAT      O81052   6.833   7.638   4.152
26937WAT     H181053   6.788   7.551   4.175
26937WAT     H281054   6.846   7.643   4.053
26938WAT      O81055   8.305   1.877   9.187
26938WAT     H181056   8.376   1.948   9.184
26938WAT     H281057   8.271   1.868   9.280
26939WAT      O81058   2.229   9.768   0.140
26939WAT     H181059   2.205   9.750   0.236
26939WAT     H281060   2.233   9.681   0.091
26940WAT      O81061   1.387   9.596   8.314
26940WAT     H181062   1.472   9.635   8.351
26940WAT     H281063   1.308   9.643   8.355
26941WAT      O81064   3.199   4.674   6.806
26941WAT     H181065   3.126   4.606   6.798
26941WAT     H281066   3.206   4.703   6.902
26942WAT      O81067   6.997   1.277   6.679
26942WAT     H181068   6.989   1.340   6.757
26942WAT     H281069   7.089   1.238   6.677
26943WAT      O81070   1.718   6.136   9.153
26943WAT     H181071   1.814   6.165   9.150
26943WAT     H281072   1.713   6.037   9.136
26944WAT      O81073   2.957   4.397   2.805
26944WAT     H181074   3.046   4.352   2.797
26944WAT     H281075   2.888   4.330   2.834
26945WAT      O81076   6.665   1.042   0.610
26945WAT     H181077   6.698   1.119   0.556
26945WAT     H281078   6.568   1.056   0.632
26946WAT      O81079   0.965   1.369   6.192
26946WAT     H181080   0.891   1.338   6.132
26946WAT     H281081   0.968   1.469   6.190
26947WAT      O81082   6.108   8.847   6.677
26947WAT     H181083   6.043   8.914   6.714
26947WAT     H281084   6.150   8.884   6.594
26948WAT      O81085   9.182   2.973   2.034
26948WAT     H181086   9.236   2.890   2.020
26948WAT     H281087   9.122   2.961   2.112
26949WAT      O81088   2.415   5.888   7.315
26949WAT     H181089   2.317   5.903   7.309
26949WAT     H281090   2.455   5.956   7.377
26950WAT      O81091   6.854   7.393   7.784
26950WAT     H181092   6.764   7.365   7.818
26950WAT     H281093   6.867   7.359   7.691
26951WAT      O81094   6.360   3.508   5.571
26951WAT     H181095   6.262   3.494   5.587
26951WAT     H281096   6.374   3.597   5.527
26952WAT      O81097   0.673   6.042   3.545
26952WAT     H181098   0.621   5.978   3.490
26952WAT     H281099   0.770   6.018   3.542
26953WAT      O81100   8.465   9.493   4.546
26953WAT     H181101   8.553   9.526   4.578
26953WAT     H281102   8.410   9.569   4.512
26954WAT      O81103   4.747   7.268   9.577
26954WAT     H181104   4.689   7.218   9.640
26954WAT     H281105   4.701   7.352   9.549
26955WAT      O81106   0.784   9.572   1.014
26955WAT     H181107   0.868   9.549   1.062
26955WAT     H281108   0.720   9.616   1.077
26956WAT      O81109   7.154   5.196   9.349
26956WAT     H181110   7.083   5.249   9.394
26956WAT     H281111   7.126   5.100   9.344
26957WAT      O81112   9.333   6.240   0.685
26957WAT     H181113   9.318   6.144   0.663
26957WAT     H281114   9.253   6.276   0.733
26958WAT      O81115   9.398   6.495   8.260
26958WAT     H181116   9.456   6.438   8.319
26958WAT     H281117   9.445   6.581   8.240
26959WAT      O81118   9.347   5.843   5.294
26959WAT     H181119   9.399   5.841   5.208
26959WAT     H281120   9.363   5.758   5.344
26960WAT      O81121   9.108   8.944   8.492
26960WAT     H181122   9.024   8.998   8.484
26960WAT     H281123   9.129   8.929   8.589
26961WAT      O81124   3.577   4.234   9.092
26961WAT     H181125   3.624   4.257   9.008
26961WAT     H281126   3.488   4.280   9.094
26962WAT      O81127   5.073   5.932   3.956
26962WAT     H181128   5.022   6.001   4.007
26962WAT     H281129   5.171   5.948   3.967
26963WAT      O81130   5.713   8.711   0.391
26963WAT     H181131   5.793   8.659   0.360
26963WAT     H281132   5.631   8.673   0.349
26964WAT      O81133   7.802   0.416   9.691
26964WAT     H181134   7.714   0.395   9.733
26964WAT     H281135   7.833   0.337   9.638
26965WAT      O81136   7.325   0.868   9.535
26965WAT     H181137   7.332   0.887   9.633
26965WAT     H281138   7.234   0.896   9.502
26966WAT      O81139   9.220   2.383   2.981
26966WAT     H181140   9.172   2.388   2.893
26966WAT     H281141   9.224   2.474   3.022
26967WAT      O81142   0.998   5.069   7.636
26967WAT     H181143   1.069   5.111   7.579
26967WAT     H281144   0.908   5.099   7.604
26968WAT      O81145   3.446   2.676   2.331
26968WAT     H181146   3.485   2.764   2.303
26968WAT     H281147   3.349   2.688   2.354
26969WAT      O81148   4.736   9.603   7.558
26969WAT     H181149   4.777   9.512   7.571
26969WAT     H281150   4.705   9.612   7.464
26970WAT      O81151   2.120   3.847   9.253
26970WAT     H181152   2.210   3.891   9.254
26970WAT     H281153   2.049   3.916   9.246
26971WAT      O81154   0.335   8.643   8.419
26971WAT     H181155   0.289   8.641   8.330
26971WAT     H281156   0.410   8.577   8.418
26972WAT      O81157   2.732   3.646   7.744
26972WAT     H181158   2.795   3.667   7.819
26972WAT     H281159   2.638   3.656   7.776
26973WAT      O81160   9.834   6.760   7.297
26973WAT     H181161   9.764   6.828   7.318
26973WAT     H281162   9.858   6.710   7.381
26974WAT      O81163   3.906   5.349   9.315
26974WAT     H181164   3.953   5.324   9.399
26974WAT     H281165   3.966   5.405   9.257
26975WAT      O81166   4.119   7.823   6.335
26975WAT     H181167   4.147   7.896   6.273
26975WAT     H281168   4.063   7.861   6.408
26976WAT      O81169   2.928   2.488   6.718
26976WAT     H181170   2.833   2.502   6.690
26976WAT     H281171   2.948   2.547   6.796
26977WAT      O81172   7.620   3.521   0.795
26977WAT     H181173   7.701   3.575   0.817
26977WAT     H281174   7.543   3.582   0.778
26978WAT      O81175   6.065   3.882   5.035
26978WAT     H181176   6.098   3.815   5.101
26978WAT     H281177   6.061   3.840   4.944
26979WAT      O81178   8.278   4.000   6.915
26979WAT     H181179   8.288   3.903   6.941
26979WAT     H281180   8.193   4.012   6.864
26980WAT      O81181   8.621   2.849   9.582
26980WAT     H181182   8.620   2.933   9.636
26980WAT     H281183   8.701   2.794   9.606
26981WAT      O81184   5.621   0.862   9.086
26981WAT     H181185   5.661   0.888   9.173
26981WAT     H281186   5.521   0.868   9.091
26982WAT      O81187   2.244   5.905   8.600
26982WAT     H181188   2.157   5.937   8.565
26982WAT     H281189   2.247   5.916   8.700
26983WAT      O81190   1.419   6.114   9.205
26983WAT     H181191   1.510   6.147   9.232
26983WAT     H281192   1.414   6.109   9.105
26984WAT      O81193   1.993   1.482   3.743
26984WAT     H181194   1.960   1.391   3.766
26984WAT     H281195   2.035   1.524   3.824
26985WAT      O81196   2.957   8.124   1.147
26985WAT     H181197   2.939   8.099   1.242
26985WAT     H281198   3.052   8.153   1.137
26986WAT      O81199   1.438   3.802   8.250
26986WAT     H181200   1.432   3.702   8.252
26986WAT     H281201   1.510   3.832   8.312
26987WAT      O81202   9.165   6.415   0.858
26987WAT     H181203   9.158   6.432   0.957
26987WAT     H281204   9.241   6.468   0.821
26988WAT      O81205   8.043   2.516   1.332
26988WAT     H181206   8.105   2.456   1.281
26988WAT     H281207   8.078   2.531   1.424
26989WAT      O81208   7.526   9.401   1.486
26989WAT     H181209   7.521   9.305   1.459
26989WAT     H281210   7.554   9.407   1.582
26990WAT      O81211   7.026   1.904   4.689
26990WAT     H181212   7.111   1.955   4.695
26990WAT     H281213   7.004   1.865   4.778
26991WAT      O81214   0.451   4.099   9.115
26991WAT     H181215   0.367   4.145   9.086
26991WAT     H281216   0.530   4.144   9.074
26992WAT      O81217   4.540   8.464   8.790
26992WAT     H181218   4.500   8.524   8.720
26992WAT     H281219   4.547   8.371   8.755
26993WAT      O81220   1.660   9.610   2.888
26993WAT     H181221   1.749   9.587   2.850
26993WAT     H281222   1.664   9.605   2.987
26994WAT      O81223   0.263   3.932   5.846
26994WAT     H181224   0.193   3.899   5.910
26994WAT     H281225   0.233   3.913   5.752
26995WAT      O81226   8.242   0.352   3.246
26995WAT     H181227   8.206   0.370   3.154
26995WAT     H281228   8.340   0.368   3.247
26996WAT      O81229   4.460   8.787   7.813
26996WAT     H181230   4.410   8.837   7.883
26996WAT     H281231   4.525   8.724   7.856
26997WAT      O81232   6.644   0.861   6.815
26997WAT     H181233   6.681   0.946   6.778
26997WAT     H281234   6.645   0.791   6.743
26998WAT      O81235   2.138   9.061   3.365
26998WAT     H181236   2.045   9.044   3.398
26998WAT     H281237   2.136   9.080   3.267
26999WAT      O81238   6.574   8.970   3.253
26999WAT     H181239   6.532   9.060   3.247
26999WAT     H281240   6.519   8.911   3.313
27000WAT      O81241   2.753   2.583   3.674
27000WAT     H181242   2.754   2.531   3.589
27000WAT     H281243   2.822   2.547   3.737
27001WAT      O81244   4.254   7.342   6.857
27001WAT     H181245   4.160   7.357   6.889
27001WAT     H281246   4.296   7.430   6.835
27002WAT      O81247   2.797   7.487   6.585
27002WAT     H181248   2.697   7.478   6.576
27002WAT     H281249   2.829   7.426   6.657
27003WAT      O81250   8.649   8.435   7.247
27003WAT     H181251   8.586   8.507   7.273
27003WAT     H281252   8.742   8.459   7.276
27004WAT      O81253   9.320   6.326   9.020
27004WAT     H181254   9.315   6.379   9.105
27004WAT     H281255   9.333   6.229   9.042
27005WAT      O81256   7.106   1.791   3.841
27005WAT     H181257   7.033   1.845   3.884
27005WAT     H281258   7.182   1.782   3.904
27006WAT      O81259   9.343   1.735   6.276
27006WAT     H181260   9.328   1.646   6.319
27006WAT     H281261   9.396   1.723   6.192
27007WAT      O81262   0.015   9.167   4.327
27007WAT     H181263  -0.041   9.202   4.252
27007WAT     H281264   0.053   9.078   4.303
27008WAT      O81265   4.663   6.479   2.062
27008WAT     H181266   4.574   6.514   2.090
27008WAT     H281267   4.714   6.449   2.143
27009WAT      O81268   7.341   4.100   1.069
27009WAT     H181269   7.430   4.137   1.098
27009WAT     H281270   7.317   4.022   1.127
27010WAT      O81271   1.732   5.339   1.848
27010WAT     H181272   1.691   5.262   1.898
27010WAT     H281273   1.809   5.375   1.901
27011WAT      O81274   4.657   7.122   1.265
27011WAT     H181275   4.751   7.138   1.293
27011WAT     H281276   4.641   7.163   1.175
27012WAT      O81277   4.970   9.701   2.082
27012WAT     H181278   4.879   9.741   2.086
27012WAT     H281279   4.965   9.604   2.106
27013WAT      O81280   7.733   8.243   2.616
27013WAT     H181281   7.722   8.318   2.682
27013WAT     H281282   7.818   8.194   2.634
27014WAT      O81283   9.426   3.518   5.626
27014WAT     H181284   9.369   3.600   5.626
27014WAT     H281285   9.436   3.485   5.720
27015WAT      O81286   4.142   4.150   1.739
27015WAT     H181287   4.223   4.134   1.794
27015WAT     H281288   4.122   4.248   1.737
27016WAT      O81289   9.723   0.994   3.330
27016WAT     H181290   9.731   0.895   3.340
27016WAT     H281291   9.641   1.016   3.277
27017WAT      O81292   6.320   8.452   7.514
27017WAT     H181293   6.397   8.502   7.475
27017WAT     H281294   6.255   8.428   7.442
27018WAT      O81295   7.971   6.654   0.772
27018WAT     H181296   8.004   6.748   0.773
27018WAT     H281297   7.991   6.612   0.684
27019WAT      O81298   8.664   6.373   9.464
27019WAT     H181299   8.585   6.354   9.521
27019WAT     H281300   8.702   6.463   9.487
27020WAT      O81301   8.639   3.548   0.332
27020WAT     H181302   8.705   3.616   0.365
27020WAT     H281303   8.557   3.552   0.389
27021WAT      O81304   5.036   1.650   3.616
27021WAT     H181305   4.964   1.602   3.565
27021WAT     H281306   5.067   1.729   3.563
27022WAT      O81307   7.624   8.594   7.141
27022WAT     H181308   7.673   8.673   7.178
27022WAT     H281309   7.589   8.616   7.050
27023WAT      O81310   6.464   4.827   7.747
27023WAT     H181311   6.390   4.761   7.729
27023WAT     H281312   6.432   4.894   7.814
27024WAT      O81313   0.761   1.215   6.079
27024WAT     H181314   0.705   1.210   6.162
27024WAT     H281315   0.733   1.294   6.025
27025WAT      O81316   6.298   7.829   5.733
27025WAT     H181317   6.258   7.744   5.699
27025WAT     H281318   6.343   7.877   5.657
27026WAT      O81319   6.217   2.301   3.188
27026WAT     H181320   6.284   2.227   3.201
27026WAT     H281321   6.172   2.320   3.275
27027WAT      O81322   1.982   7.554   0.961
27027WAT     H181323   1.888   7.552   0.996
27027WAT     H281324   2.041   7.500   1.020
27028WAT      O81325   0.008   4.596   4.576
27028WAT     H181326   0.001   4.663   4.651
27028WAT     H281327   0.105   4.576   4.558
27029WAT      O81328   8.474   3.514   3.320
27029WAT     H181329   8.408   3.472   3.382
27029WAT     H281330   8.552   3.451   3.307
27030WAT      O81331   6.845   5.553   6.830
27030WAT     H181332   6.769   5.503   6.871
27030WAT     H281333   6.821   5.650   6.823
27031WAT      O81334   5.572   6.400   9.238
27031WAT     H181335   5.599   6.383   9.332
27031WAT     H281336   5.577   6.498   9.218
27032WAT      O81337   8.404   7.213   4.331
27032WAT     H181338   8.432   7.118   4.340
27032WAT     H281339   8.461   7.270   4.391
27033WAT      O81340   3.678   7.936   3.853
27033WAT     H181341   3.669   7.909   3.758
27033WAT     H281342   3.613   7.884   3.909
27034WAT      O81343   0.391   3.965   9.779
27034WAT     H181344   0.322   3.910   9.731
27034WAT     H281345   0.390   4.059   9.744
27035WAT      O81346   0.634   0.429   3.363
27035WAT     H181347   0.581   0.432   3.278
27035WAT     H281348   0.675   0.519   3.380
27036WAT      O81349   5.951   8.692   4.232
27036WAT     H181350   6.049   8.691   4.255
27036WAT     H281351   5.897   8.691   4.316
27037WAT      O81352   6.200   7.355   4.593
27037WAT     H181353   6.139   7.333   4.669
27037WAT     H281354   6.206   7.455   4.584
27038WAT      O81355   8.259   0.541   4.535
27038WAT     H181356   8.280   0.451   4.496
27038WAT     H281357   8.327   0.607   4.506
27039WAT      O81358   9.429   4.047   1.819
27039WAT     H181359   9.471   3.994   1.893
27039WAT     H281360   9.401   4.136   1.853
27040WAT      O81361   5.283   7.555   1.010
27040WAT     H181362   5.242   7.500   1.082
27040WAT     H281363   5.342   7.497   0.954
27041WAT      O81364   5.193   1.286   6.919
27041WAT     H181365   5.192   1.381   6.889
27041WAT     H281366   5.264   1.274   6.988
27042WAT      O81367   3.694   8.689   3.566
27042WAT     H181368   3.604   8.673   3.606
27042WAT     H281369   3.724   8.607   3.518
27043WAT      O81370   4.423   2.692   3.632
27043WAT     H181371   4.447   2.596   3.643
27043WAT     H281372   4.323   2.701   3.626
27044WAT      O81373   4.250   2.904   6.078
27044WAT     H181374   4.316   2.977   6.058
27044WAT     H281375   4.160   2.930   6.044
27045WAT      O81376   7.162   8.744   5.639
27045WAT     H181377   7.088   8.724   5.575
27045WAT     H281378   7.247   8.759   5.588
27046WAT      O81379   3.762   5.290   8.891
27046WAT     H181380   3.767   5.193   8.871
27046WAT     H281381   3.681   5.329   8.848
27047WAT      O81382   7.320   0.741   8.885
27047WAT     H181383   7.320   0.831   8.842
27047WAT     H281384   7.298   0.751   8.982
27048WAT      O81385   3.960   3.085   8.490
27048WAT     H181386   3.960   3.084   8.390
27048WAT     H281387   3.867   3.071   8.523
27049WAT      O81388   7.440   7.545   1.266
27049WAT     H181389   7.454   7.446   1.258
27049WAT     H281390   7.343   7.564   1.283
27050WAT      O81391   0.849   0.255   1.122
27050WAT     H181392   0.861   0.343   1.076
27050WAT     H281393   0.764   0.257   1.174
27051WAT      O81394   9.632   8.580   8.432
27051WAT     H181395   9.629   8.589   8.532
27051WAT     H281396   9.540   8.586   8.395
27052WAT      O81397   5.558   7.415   5.422
27052WAT     H181398   5.501   7.366   5.489
27052WAT     H281399   5.650   7.428   5.460
27053WAT      O81400   5.395   3.180   1.387
27053WAT     H181401   5.446   3.094   1.390
27053WAT     H281402   5.302   3.164   1.421
27054WAT      O81403   0.198   0.223   9.753
27054WAT     H181404   0.183   0.131   9.716
27054WAT     H281405   0.110   0.263   9.780
27055WAT      O81406   3.363   3.877   4.655
27055WAT     H181407   3.332   3.866   4.750
27055WAT     H281408   3.291   3.847   4.593
27056WAT      O81409   6.715   2.851   7.018
27056WAT     H181410   6.803   2.847   6.971
27056WAT     H281411   6.672   2.940   7.002
27057WAT      O81412   2.987   9.465   3.118
27057WAT     H181413   3.070   9.431   3.072
27057WAT     H281414   2.985   9.565   3.113
27058WAT      O81415   0.281   3.025   1.578
27058WAT     H181416   0.185   3.002   1.559
27058WAT     H281417   0.284   3.096   1.649
27059WAT      O81418   7.742   0.674   8.600
27059WAT     H181419   7.730   0.759   8.651
27059WAT     H281420   7.818   0.622   8.638
27060WAT      O81421   8.126   0.137   0.724
27060WAT     H181422   8.073   0.059   0.688
27060WAT     H281423   8.074   0.221   0.710
27061WAT      O81424   8.816   1.561   5.494
27061WAT     H181425   8.850   1.581   5.402
27061WAT     H281426   8.743   1.492   5.488
27062WAT      O81427   0.206   3.927   6.729
27062WAT     H181428   0.140   3.917   6.804
27062WAT     H281429   0.178   4.002   6.670
27063WAT      O81430   1.468   6.798   2.155
27063WAT     H181431   1.552   6.803   2.101
27063WAT     H281432   1.489   6.765   2.247
27064WAT      O81433   4.644   3.240   9.593
27064WAT     H181434   4.724   3.196   9.635
27064WAT     H281435   4.609   3.182   9.520
27065WAT      O81436   5.672   5.808   0.767
27065WAT     H181437   5.659   5.818   0.668
27065WAT     H281438   5.629   5.723   0.798
27066WAT      O81439   4.321   4.038   1.986
27066WAT     H181440   4.388   4.080   1.925
27066WAT     H281441   4.369   3.983   2.055
27067WAT      O81442   2.676   9.643   4.201
27067WAT     H181443   2.681   9.555   4.153
27067WAT     H281444   2.701   9.629   4.297
27068WAT      O81445   2.794   2.613   5.226
27068WAT     H181446   2.852   2.594   5.305
27068WAT     H281447   2.748   2.529   5.197
27069WAT      O81448   9.148   2.126   3.782
27069WAT     H181449   9.075   2.193   3.795
27069WAT     H281450   9.126   2.043   3.833
27070WAT      O81451   9.321   3.083   1.183
27070WAT     H181452   9.308   3.152   1.112
27070WAT     H281453   9.297   3.121   1.272
27071WAT      O81454   5.099   6.849   8.597
27071WAT     H181455   5.043   6.860   8.679
27071WAT     H281456   5.117   6.939   8.557
27072WAT      O81457   1.055   9.080   4.742
27072WAT     H181458   1.019   9.172   4.730
27072WAT     H281459   1.022   9.042   4.828
27073WAT      O81460   4.440   6.018   5.808
27073WAT     H181461   4.431   6.095   5.744
27073WAT     H281462   4.535   6.010   5.837
27074WAT      O81463   8.274   4.963   7.157
27074WAT     H181464   8.225   5.027   7.215
27074WAT     H281465   8.212   4.891   7.126
27075WAT      O81466   1.406   8.568   3.362
27075WAT     H181467   1.434   8.606   3.274
27075WAT     H281468   1.324   8.616   3.395
27076WAT      O81469   2.550   0.530   0.823
27076WAT     H181470   2.511   0.535   0.914
27076WAT     H281471   2.487   0.569   0.756
27077WAT      O81472   1.651   1.692   9.251
27077WAT     H181473   1.702   1.627   9.307
27077WAT     H281474   1.606   1.759   9.309
27078WAT      O81475   2.346   1.752   4.504
27078WAT     H181476   2.309   1.659   4.510
27078WAT     H281477   2.418   1.755   4.435
27079WAT      O81478   8.643   6.906   6.496
27079WAT     H181479   8.740   6.886   6.484
27079WAT     H281480   8.624   6.999   6.464
27080WAT      O81481   2.667   6.630   7.901
27080WAT     H181482   2.578   6.636   7.948
27080WAT     H281483   2.740   6.625   7.970
27081WAT      O81484   7.929   6.452   7.577
27081WAT     H181485   8.027   6.455   7.596
27081WAT     H281486   7.879   6.497   7.652
27082WAT      O81487   0.333   2.197   1.128
27082WAT     H181488   0.322   2.273   1.192
27082WAT     H281489   0.287   2.116   1.163
27083WAT      O81490   5.997   9.754   5.080
27083WAT     H181491   6.056   9.833   5.069
27083WAT     H281492   6.034   9.694   5.151
27084WAT      O81493   1.080   9.723   9.005
27084WAT     H181494   1.064   9.628   9.030
27084WAT     H281495   1.059   9.783   9.083
27085WAT      O81496   6.393   4.795   9.673
27085WAT     H181497   6.309   4.771   9.623
27085WAT     H281498   6.447   4.860   9.619
27086WAT      O81499   4.607   8.389   4.188
27086WAT     H181500   4.655   8.436   4.114
27086WAT     H281501   4.514   8.426   4.196
27087WAT      O81502   1.948   1.704   7.344
27087WAT     H181503   1.997   1.617   7.335
27087WAT     H281504   1.971   1.763   7.267
27088WAT      O81505   8.969   9.376   2.254
27088WAT     H181506   9.030   9.342   2.326
27088WAT     H281507   9.019   9.441   2.197
27089WAT      O81508   4.370   4.436   3.765
27089WAT     H181509   4.337   4.522   3.803
27089WAT     H281510   4.376   4.444   3.665
27090WAT      O81511   8.503   8.612   8.184
27090WAT     H181512   8.573   8.560   8.135
27090WAT     H281513   8.538   8.637   8.274
27091WAT      O81514   4.084   4.770   8.262
27091WAT     H181515   4.156   4.765   8.193
27091WAT     H281516   4.088   4.688   8.320
27092WAT      O81517   3.009   8.312   4.025
27092WAT     H181518   3.071   8.235   4.008
27092WAT     H281519   2.933   8.282   4.083
27093WAT      O81520   2.561   7.166   4.922
27093WAT     H181521   2.528   7.080   4.884
27093WAT     H281522   2.654   7.154   4.958
27094WAT      O81523   1.120   7.258   2.623
27094WAT     H181524   1.042   7.196   2.626
27094WAT     H281525   1.092   7.344   2.578
27095WAT      O81526   8.930   1.418   7.671
27095WAT     H181527   8.973   1.474   7.600
27095WAT     H281528   8.896   1.476   7.745
27096WAT      O81529   8.237   6.876   6.577
27096WAT     H181530   8.265   6.877   6.673
27096WAT     H281531   8.144   6.842   6.570
27097WAT      O81532   1.698   8.391   4.956
27097WAT     H181533   1.720   8.312   4.898
27097WAT     H281534   1.684   8.471   4.898
27098WAT      O81535   8.369   0.261   8.649
27098WAT     H181536   8.278   0.258   8.609
27098WAT     H281537   8.435   0.290   8.579
27099WAT      O81538   7.644   9.491   3.106
27099WAT     H181539   7.730   9.508   3.155
27099WAT     H281540   7.567   9.522   3.162
27100WAT      O81541   7.164   1.598   1.220
27100WAT     H181542   7.198   1.555   1.303
27100WAT     H281543   7.241   1.620   1.160
27101WAT      O81544   9.723   0.941   6.888
27101WAT     H181545   9.805   0.993   6.865
27101WAT     H281546   9.744   0.843   6.881
27102WAT      O81547   9.445   5.177   3.592
27102WAT     H181548   9.452   5.151   3.495
27102WAT     H281549   9.391   5.107   3.640
27103WAT      O81550   2.443   2.089   7.260
27103WAT     H181551   2.473   1.994   7.269
27103WAT     H281552   2.360   2.102   7.314
27104WAT      O81553   4.628   3.117   2.275
27104WAT     H181554   4.701   3.173   2.314
27104WAT     H281555   4.620   3.135   2.177
27105WAT      O81556   4.118   6.401   6.534
27105WAT     H181557   4.163   6.405   6.445
27105WAT     H281558   4.088   6.493   6.560
27106WAT      O81559   0.461   7.718   7.369
27106WAT     H181560   0.429   7.677   7.284
27106WAT     H281561   0.518   7.797   7.348
27107WAT      O81562   7.489   8.106   0.771
27107WAT     H181563   7.397   8.144   0.773
27107WAT     H281564   7.494   8.036   0.699
27108WAT      O81565   0.392   0.311   2.123
27108WAT     H181566   0.447   0.296   2.205
27108WAT     H281567   0.398   0.407   2.096
27109WAT      O81568   0.387   2.672   4.798
27109WAT     H181569   0.297   2.670   4.842
27109WAT     H281570   0.381   2.720   4.710
27110WAT      O81571   6.830   3.396   8.671
27110WAT     H181572   6.810   3.484   8.714
27110WAT     H281573   6.900   3.409   8.600
27111WAT      O81574   5.880   7.586   7.454
27111WAT     H181575   5.965   7.621   7.415
27111WAT     H281576   5.899   7.499   7.501
27112WAT      O81577   0.666   6.403   4.390
27112WAT     H181578   0.605   6.465   4.439
27112WAT     H281579   0.623   6.312   4.385
27113WAT      O81580   1.808   8.279   5.520
27113WAT     H181581   1.836   8.224   5.442
27113WAT     H281582   1.864   8.255   5.599
27114WAT      O81583   0.046   0.531   5.603
27114WAT     H181584   0.056   0.619   5.556
27114WAT     H281585   0.027   0.459   5.537
27115WAT      O81586   0.442   2.003   8.088
27115WAT     H181587   0.438   2.018   7.989
27115WAT     H281588   0.472   2.087   8.133
27116WAT      O81589   2.490   0.210   0.562
27116WAT     H181590   2.554   0.157   0.506
27116WAT     H281591   2.461   0.291   0.511
27117WAT      O81592   3.071   7.497   0.815
27117WAT     H181593   2.995   7.433   0.820
27117WAT     H281594   3.073   7.553   0.898
27118WAT      O81595   5.261   0.539   5.647
27118WAT     H181596   5.256   0.439   5.644
27118WAT     H281597   5.337   0.570   5.590
27119WAT      O81598   9.123   6.154   1.265
27119WAT     H181599   9.027   6.159   1.295
27119WAT     H281600   9.130   6.091   1.187
27120WAT      O81601   5.151   7.473   2.092
27120WAT     H181602   5.225   7.440   2.150
27120WAT     H281603   5.123   7.400   2.029
27121WAT      O81604   0.791   8.348   6.245
27121WAT     H181605   0.807   8.425   6.307
27121WAT     H281606   0.768   8.267   6.299
27122WAT      O81607   1.752   2.909   3.160
27122WAT     H181608   1.693   2.830   3.141
27122WAT     H281609   1.706   2.970   3.224
27123WAT      O81610   1.583   3.872   9.837
27123WAT     H181611   1.497   3.900   9.880
27123WAT     H281612   1.587   3.907   9.743
27124WAT      O81613   6.106   4.119   3.401
27124WAT     H181614   6.008   4.133   3.417
27124WAT     H281615   6.157   4.141   3.484
27125WAT      O81616   7.597   0.315   9.304
27125WAT     H181617   7.519   0.254   9.291
27125WAT     H281618   7.565   0.407   9.323
27126WAT      O81619   1.740   1.666   6.447
27126WAT     H181620   1.667   1.731   6.427
27126WAT     H281621   1.818   1.715   6.488
27127WAT      O81622   4.171   7.062   0.503
27127WAT     H181623   4.084   7.042   0.458
27127WAT     H281624   4.190   6.993   0.572
27128WAT      O81625   5.641   4.489   3.371
27128WAT     H181626   5.546   4.496   3.342
27128WAT     H281627   5.691   4.571   3.342
27129WAT      O81628   3.675   5.073   6.045
27129WAT     H181629   3.685   4.973   6.051
27129WAT     H281630   3.740   5.109   5.978
27130WAT      O81631   2.812   4.902   0.129
27130WAT     H181632   2.839   4.990   0.091
27130WAT     H281633   2.847   4.894   0.222
27131WAT      O81634   2.203   4.264   4.894
27131WAT     H181635   2.290   4.236   4.852
27131WAT     H281636   2.153   4.323   4.830
27132WAT      O81637   8.438   4.437   4.121
27132WAT     H181638   8.356   4.424   4.176
27132WAT     H281639   8.420   4.410   4.027
27133WAT      O81640   0.062   2.878   8.283
27133WAT     H181641  -0.013   2.863   8.219
27133WAT     H281642   0.077   2.976   8.296
27134WAT      O81643   9.651   6.526   2.711
27134WAT     H181644   9.706   6.541   2.629
27134WAT     H281645   9.710   6.532   2.792
27135WAT      O81646   1.965   3.140   4.856
27135WAT     H181647   1.907   3.071   4.899
27135WAT     H281648   1.935   3.231   4.883
27136WAT      O81649   6.234   0.044   1.855
27136WAT     H181650   6.208   0.029   1.759
27136WAT     H281651   6.182  -0.018   1.913
27137WAT      O81652   3.775   9.342   0.596
27137WAT     H181653   3.760   9.250   0.632
27137WAT     H281654   3.796   9.337   0.498
27138WAT      O81655   7.731   7.657   4.595
27138WAT     H181656   7.691   7.741   4.559
27138WAT     H281657   7.780   7.609   4.522
27139WAT      O81658   9.227   8.001   1.085
27139WAT     H181659   9.237   7.982   1.182
27139WAT     H281660   9.183   8.090   1.073
27140WAT      O81661   0.915   1.905   9.475
27140WAT     H181662   0.868   1.877   9.391
27140WAT     H281663   0.853   1.897   9.553
27141WAT      O81664   1.743   2.955   1.830
27141WAT     H181665   1.730   2.896   1.909
27141WAT     H281666   1.837   2.987   1.827
27142WAT      O81667   6.471   8.989   7.012
27142WAT     H181668   6.394   8.927   6.998
27142WAT     H281669   6.556   8.941   6.994
27143WAT      O81670   9.370   6.908   9.562
27143WAT     H181671   9.460   6.936   9.529
27143WAT     H281672   9.381   6.843   9.637
27144WAT      O81673   3.075   9.738   9.173
27144WAT     H181674   3.026   9.735   9.086
27144WAT     H281675   3.164   9.784   9.159
27145WAT      O81676   2.823   7.185   9.756
27145WAT     H181677   2.772   7.213   9.675
27145WAT     H281678   2.918   7.169   9.732
27146WAT      O81679   8.217   6.155   8.840
27146WAT     H181680   8.210   6.083   8.910
27146WAT     H281681   8.313   6.166   8.814
27147WAT      O81682   8.241   5.579   5.578
27147WAT     H181683   8.339   5.578   5.556
27147WAT     H281684   8.198   5.497   5.541
27148WAT      O81685   8.621   4.255   7.127
27148WAT     H181686   8.699   4.213   7.173
27148WAT     H281687   8.584   4.192   7.059
27149WAT      O81688   9.610   5.753   6.931
27149WAT     H181689   9.613   5.816   6.854
27149WAT     H281690   9.667   5.673   6.911
27150WAT      O81691   9.255   1.261   3.148
27150WAT     H181692   9.245   1.335   3.214
27150WAT     H281693   9.309   1.292   3.070
27151WAT      O81694   0.798   5.243   7.952
27151WAT     H181695   0.754   5.220   8.039
27151WAT     H281696   0.783   5.169   7.887
27152WAT      O81697   1.750   2.761   2.043
27152WAT     H181698   1.744   2.815   2.127
27152WAT     H281699   1.844   2.728   2.031
27153WAT      O81700   8.044   9.463   8.947
27153WAT     H181701   8.110   9.536   8.930
27153WAT     H281702   8.013   9.468   9.042
27154WAT      O81703   9.412   6.463   2.694
27154WAT     H181704   9.392   6.413   2.611
27154WAT     H281705   9.502   6.505   2.688
27155WAT      O81706   3.679   0.158   9.475
27155WAT     H181707   3.766   0.129   9.515
27155WAT     H281708   3.614   0.082   9.476
27156WAT      O81709   0.527   0.509   9.764
27156WAT     H181710   0.542   0.519   9.665
27156WAT     H281711   0.513   0.600   9.804
27157WAT      O81712   1.276   6.310   2.478
27157WAT     H181713   1.183   6.282   2.454
27157WAT     H281714   1.293   6.402   2.445
27158WAT      O81715   4.436   8.807   0.961
27158WAT     H181716   4.471   8.757   1.040
27158WAT     H281717   4.466   8.762   0.877
27159WAT      O81718   1.260   7.551   8.555
27159WAT     H181719   1.173   7.593   8.582
27159WAT     H281720   1.243   7.475   8.492
27160WAT      O81721   5.618   2.213   5.574
27160WAT     H181722   5.632   2.129   5.626
27160WAT     H281723   5.649   2.291   5.627
27161WAT      O81724   7.744   8.564   2.556
27161WAT     H181725   7.768   8.497   2.626
27161WAT     H281726   7.686   8.635   2.596
27162WAT      O81727   2.420   7.225   1.457
27162WAT     H181728   2.364   7.185   1.385
27162WAT     H281729   2.363   7.240   1.538
27163WAT      O81730   7.331   5.437   0.824
27163WAT     H181731   7.407   5.475   0.877
27163WAT     H281732   7.351   5.341   0.803
27164WAT      O81733   0.084   2.388   8.698
27164WAT     H181734   0.117   2.391   8.603
27164WAT     H281735   0.002   2.445   8.707
27165WAT      O81736   2.220   6.324   5.645
27165WAT     H181737   2.314   6.350   5.667
27165WAT     H281738   2.206   6.330   5.546
27166WAT      O81739   1.108   6.382   6.021
27166WAT     H181740   1.050   6.423   6.091
27166WAT     H281741   1.164   6.453   5.978
27167WAT      O81742   3.147   2.166   3.895
27167WAT     H181743   3.234   2.165   3.943
27167WAT     H281744   3.095   2.248   3.922
27168WAT      O81745   2.779   6.264   3.021
27168WAT     H181746   2.808   6.190   3.082
27168WAT     H281747   2.839   6.344   3.034
27169WAT      O81748   8.630   7.604   9.018
27169WAT     H181749   8.694   7.535   9.051
27169WAT     H281750   8.654   7.630   8.924
27170WAT      O81751   3.481   9.492   7.571
27170WAT     H181752   3.423   9.419   7.533
27170WAT     H281753   3.552   9.516   7.505
27171WAT      O81754   8.769   4.452   9.504
27171WAT     H181755   8.735   4.366   9.542
27171WAT     H281756   8.760   4.525   9.572
27172WAT      O81757   3.340   3.242   1.928
27172WAT     H181758   3.423   3.295   1.946
27172WAT     H281759   3.268   3.269   1.992
27173WAT      O81760   8.153   7.569   9.573
27173WAT     H181761   8.230   7.544   9.631
27173WAT     H281762   8.117   7.658   9.602
27174WAT      O81763   6.067   1.360   2.950
27174WAT     H181764   6.033   1.314   2.867
27174WAT     H281765   6.123   1.439   2.923
27175WAT      O81766   6.410   9.404   5.670
27175WAT     H181767   6.498   9.431   5.631
27175WAT     H281768   6.375   9.324   5.622
27176WAT      O81769   7.675   6.050   5.483
27176WAT     H181770   7.733   5.979   5.442
27176WAT     H281771   7.594   6.008   5.524
27177WAT      O81772   5.108   0.506   4.552
27177WAT     H181773   5.202   0.539   4.546
27177WAT     H281774   5.052   0.574   4.601
27178WAT      O81775   1.508   7.258   8.361
27178WAT     H181776   1.512   7.355   8.388
27178WAT     H281777   1.414   7.227   8.363
27179WAT      O81778   4.704   7.522   9.537
27179WAT     H181779   4.615   7.558   9.508
27179WAT     H281780   4.774   7.549   9.470
27180WAT      O81781   4.864   0.050   3.094
27180WAT     H181782   4.900   0.103   3.017
27180WAT     H281783   4.769   0.076   3.111
27181WAT      O81784   1.667   0.155   4.693
27181WAT     H181785   1.594   0.099   4.732
27181WAT     H281786   1.654   0.250   4.719
27182WAT      O81787   6.542   7.726   4.663
27182WAT     H181788   6.550   7.695   4.568
27182WAT     H281789   6.627   7.708   4.712
27183WAT      O81790   6.321   9.228   7.956
27183WAT     H181791   6.238   9.236   8.011
27183WAT     H281792   6.373   9.149   7.986
27184WAT      O81793   2.331   3.376   8.043
27184WAT     H181794   2.330   3.308   8.117
27184WAT     H281795   2.339   3.330   7.955
27185WAT      O81796   0.919   0.242   4.494
27185WAT     H181797   0.865   0.280   4.569
27185WAT     H281798   0.866   0.248   4.409
27186WAT      O81799   3.123   2.663   1.189
27186WAT     H181800   3.055   2.701   1.126
27186WAT     H281801   3.091   2.575   1.223
27187WAT      O81802   0.657   6.710   0.640
27187WAT     H181803   0.696   6.692   0.731
27187WAT     H281804   0.591   6.637   0.618
27188WAT      O81805   2.894   5.891   7.318
27188WAT     H181806   2.854   5.817   7.263
27188WAT     H281807   2.946   5.851   7.393
27189WAT      O81808   5.498   4.879   6.806
27189WAT     H181809   5.562   4.826   6.751
27189WAT     H281810   5.544   4.911   6.889
27190WAT      O81811   0.171   6.980   1.396
27190WAT     H181812   0.122   7.050   1.447
27190WAT     H281813   0.171   7.003   1.299
27191WAT      O81814   0.594   7.143   9.654
27191WAT     H181815   0.533   7.122   9.577
27191WAT     H281816   0.539   7.160   9.736
27192WAT      O81817   2.907   9.716   5.565
27192WAT     H181818   2.914   9.629   5.515
27192WAT     H281819   2.815   9.726   5.603
27193WAT      O81820   9.390   9.794   7.910
27193WAT     H181821   9.482   9.768   7.938
27193WAT     H281822   9.324   9.728   7.946
27194WAT      O81823   3.039   5.788   4.321
27194WAT     H181824   3.082   5.823   4.238
27194WAT     H281825   3.067   5.843   4.399
27195WAT      O81826   0.911   0.068   9.249
27195WAT     H181827   1.001   0.055   9.291
27195WAT     H281828   0.840   0.052   9.317
27196WAT      O81829   4.717   4.964   0.538
27196WAT     H181830   4.763   4.899   0.479
27196WAT     H281831   4.727   5.056   0.500
27197WAT      O81832   0.878   4.086   0.639
27197WAT     H181833   0.856   4.179   0.669
27197WAT     H281834   0.838   4.021   0.703
27198WAT      O81835   9.398   0.181   5.876
27198WAT     H181836   9.407   0.280   5.864
27198WAT     H281837   9.302   0.155   5.868
27199WAT      O81838   9.119   3.215   9.504
27199WAT     H181839   9.116   3.116   9.514
27199WAT     H281840   9.053   3.243   9.434
27200WAT      O81841   5.563   1.852   0.916
27200WAT     H181842   5.520   1.934   0.955
27200WAT     H281843   5.661   1.854   0.935
27201WAT      O81844   2.769   1.537   8.252
27201WAT     H181845   2.682   1.574   8.217
27201WAT     H281846   2.756   1.442   8.280
27202WAT      O81847   2.949   0.685   1.189
27202WAT     H181848   2.875   0.619   1.200
27202WAT     H281849   2.928   0.746   1.113
27203WAT      O81850   8.050   6.635   9.255
27203WAT     H181851   7.997   6.681   9.183
27203WAT     H281852   8.147   6.653   9.242
27204WAT      O81853   0.380   5.472   7.718
27204WAT     H181854   0.475   5.458   7.749
27204WAT     H281855   0.318   5.457   7.795
27205WAT      O81856   7.183   8.992   2.052
27205WAT     H181857   7.190   8.983   2.152
27205WAT     H281858   7.088   8.977   2.025
27206WAT      O81859   6.358   0.289   7.465
27206WAT     H181860   6.303   0.206   7.448
27206WAT     H281861   6.299   0.360   7.504
27207WAT      O81862   4.701   2.502   5.148
27207WAT     H181863   4.633   2.483   5.218
27207WAT     H281864   4.674   2.582   5.096
27208WAT      O81865   5.851   9.293   3.756
27208WAT     H181866   5.888   9.201   3.745
27208WAT     H281867   5.896   9.339   3.832
27209WAT      O81868   8.251   3.580   9.405
27209WAT     H181869   8.240   3.528   9.490
27209WAT     H281870   8.206   3.531   9.330
27210WAT      O81871   0.165   4.623   1.365
27210WAT     H181872   0.124   4.540   1.328
27210WAT     H281873   0.161   4.620   1.465
27211WAT      O81874   3.601   4.491   8.253
27211WAT     H181875   3.628   4.527   8.164
27211WAT     H281876   3.646   4.403   8.269
27212WAT      O81877   9.065   9.832   5.214
27212WAT     H181878   9.099   9.881   5.134
27212WAT     H281879   8.965   9.827   5.210
27213WAT      O81880   8.490   4.267   6.411
27213WAT     H181881   8.402   4.224   6.390
27213WAT     H281882   8.562   4.224   6.356
27214WAT      O81883   1.043   8.192   3.123
27214WAT     H181884   1.123   8.232   3.080
27214WAT     H281885   1.003   8.124   3.062
27215WAT      O81886   1.680   8.020   4.016
27215WAT     H181887   1.661   7.960   3.938
27215WAT     H281888   1.673   8.115   3.987
27216WAT      O81889   4.560   0.329   8.516
27216WAT     H181890   4.640   0.289   8.471
27216WAT     H281891   4.502   0.256   8.552
27217WAT      O81892   4.079   7.069   6.557
27217WAT     H181893   4.136   7.114   6.488
27217WAT     H281894   4.128   7.065   6.644
27218WAT      O81895   6.258   9.739   6.310
27218WAT     H181896   6.213   9.668   6.256
27218WAT     H281897   6.256   9.713   6.407
27219WAT      O81898   2.716   1.225   0.705
27219WAT     H181899   2.659   1.143   0.695
27219WAT     H281900   2.805   1.209   0.663
27220WAT      O81901   2.838   8.875   8.905
27220WAT     H181902   2.821   8.786   8.946
27220WAT     H281903   2.752   8.913   8.869
27221WAT      O81904   1.320   3.438   8.464
27221WAT     H181905   1.304   3.482   8.375
27221WAT     H281906   1.255   3.476   8.531
27222WAT      O81907   7.828   9.748   2.044
27222WAT     H181908   7.920   9.722   2.017
27222WAT     H281909   7.810   9.841   2.014
27223WAT      O81910   2.850   1.766   8.861
27223WAT     H181911   2.940   1.774   8.819
27223WAT     H281912   2.795   1.700   8.809
27224WAT      O81913   8.314   3.869   2.872
27224WAT     H181914   8.353   3.846   2.783
27224WAT     H281915   8.334   3.965   2.895
27225WAT      O81916   8.808   5.676   2.484
27225WAT     H181917   8.830   5.703   2.390
27225WAT     H281918   8.786   5.757   2.538
27226WAT      O81919   2.335   4.122   1.127
27226WAT     H181920   2.387   4.188   1.182
27226WAT     H281921   2.292   4.170   1.051
27227WAT      O81922   3.342   7.907   4.442
27227WAT     H181923   3.298   7.833   4.391
27227WAT     H281924   3.377   7.871   4.529
27228WAT      O81925   2.053   4.212   7.880
27228WAT     H181926   2.072   4.114   7.893
27228WAT     H281927   2.111   4.265   7.942
27229WAT      O81928   9.388   0.202   3.289
27229WAT     H181929   9.471   0.234   3.243
27229WAT     H281930   9.412   0.156   3.374
27230WAT      O81931   8.736   8.570   6.135
27230WAT     H181932   8.761   8.646   6.196
27230WAT     H281933   8.807   8.560   6.065
27231WAT      O81934   1.558   8.610   2.983
27231WAT     H181935   1.463   8.592   2.955
27231WAT     H281936   1.558   8.661   3.069
27232WAT      O81937   0.975   6.790   1.948
27232WAT     H181938   1.025   6.876   1.934
27232WAT     H281939   0.879   6.803   1.924
27233WAT      O81940   7.008   4.804   7.212
27233WAT     H181941   6.914   4.774   7.229
27233WAT     H281942   7.044   4.849   7.294
27234WAT      O81943   5.884   9.664   1.045
27234WAT     H181944   5.925   9.689   0.957
27234WAT     H281945   5.935   9.588   1.085
27235WAT      O81946   8.788   6.229   0.926
27235WAT     H181947   8.844   6.147   0.938
27235WAT     H281948   8.814   6.297   0.995
27236WAT      O81949   3.520   5.649   0.821
27236WAT     H181950   3.591   5.579   0.827
27236WAT     H281951   3.468   5.652   0.906
27237WAT      O81952   9.083   4.433   4.076
27237WAT     H181953   9.001   4.469   4.030
27237WAT     H281954   9.149   4.403   4.007
27238WAT      O81955   3.074   3.086   8.398
27238WAT     H181956   3.062   3.157   8.329
27238WAT     H281957   2.994   3.026   8.398
27239WAT      O81958   3.846   0.785   3.606
27239WAT     H181959   3.778   0.769   3.678
27239WAT     H281960   3.884   0.697   3.576
27240WAT      O81961   0.742   0.327   8.119
27240WAT     H181962   0.803   0.407   8.119
27240WAT     H281963   0.695   0.321   8.206
27241WAT      O81964   0.147   7.043   7.927
27241WAT     H181965   0.183   7.134   7.906
27241WAT     H281966   0.195   7.005   8.006
27242WAT      O81967   5.413   3.821   2.051
27242WAT     H181968   5.468   3.746   2.089
27242WAT     H281969   5.458   3.859   1.971
27243WAT      O81970   7.352   2.211   5.226
27243WAT     H181971   7.377   2.149   5.300
27243WAT     H281972   7.310   2.294   5.264
27244WAT      O81973   2.901   2.414   5.837
27244WAT     H181974   2.840   2.359   5.894
27244WAT     H281975   2.850   2.451   5.759
27245WAT      O81976   8.097   5.078   4.908
27245WAT     H181977   8.090   5.155   4.846
27245WAT     H281978   8.108   4.993   4.856
27246WAT      O81979   1.031   2.776   7.288
27246WAT     H181980   0.955   2.712   7.278
27246WAT     H281981   1.063   2.775   7.383
27247WAT      O81982   7.593   4.442   0.933
27247WAT     H181983   7.692   4.438   0.946
27247WAT     H281984   7.547   4.451   1.022
27248WAT      O81985   2.467   4.082   4.263
27248WAT     H181986   2.399   4.130   4.318
27248WAT     H281987   2.420   4.029   4.192
27249WAT      O81988   6.210   9.041   3.973
27249WAT     H181989   6.256   9.005   3.892
27249WAT     H281990   6.120   8.997   3.982
27250WAT      O81991   9.034   4.570   3.604
27250WAT     H181992   9.025   4.664   3.571
27250WAT     H281993   9.006   4.506   3.532
27251WAT      O81994   3.589   6.981   7.326
27251WAT     H181995   3.604   6.911   7.397
27251WAT     H281996   3.506   6.960   7.275
27252WAT      O81997   4.075   4.426   1.414
27252WAT     H181998   4.135   4.503   1.437
27252WAT     H281999   4.129   4.356   1.367
27253WAT      O82000   9.559   0.050   6.698
27253WAT     H182001   9.624   0.116   6.661
27253WAT     H282002   9.523  -0.007   6.624
27254WAT      O82003   2.097   1.987   8.291
27254WAT     H182004   2.065   2.001   8.197
27254WAT     H282005   2.135   1.895   8.300
27255WAT      O82006   5.551   0.272   0.863
27255WAT     H182007   5.590   0.183   0.887
27255WAT     H282008   5.583   0.341   0.927
27256WAT      O82009   7.845   5.987   0.650
27256WAT     H182010   7.937   6.022   0.668
27256WAT     H282011   7.850   5.909   0.588
27257WAT      O82012   0.171   2.497   2.062
27257WAT     H182013   0.141   2.406   2.090
27257WAT     H282014   0.233   2.535   2.131
27258WAT      O82015   3.880   8.931   6.335
27258WAT     H182016   3.974   8.909   6.309
27258WAT     H282017   3.832   8.968   6.256
27259WAT      O82018   7.992   9.131   0.875
27259WAT     H182019   7.929   9.060   0.842
27259WAT     H282020   7.940   9.215   0.891
27260WAT      O82021   9.882   4.262   4.819
27260WAT     H182022   9.797   4.305   4.852
27260WAT     H282023   9.907   4.302   4.731
27261WAT      O82024   7.313   3.288   4.055
27261WAT     H182025   7.403   3.291   4.012
27261WAT     H282026   7.314   3.220   4.128
27262WAT      O82027   6.112   4.470   6.346
27262WAT     H182028   6.072   4.385   6.383
27262WAT     H282029   6.070   4.491   6.258
27263WAT      O82030   7.835   4.131   9.853
27263WAT     H182031   7.803   4.039   9.874
27263WAT     H282032   7.863   4.177   9.936
27264WAT      O82033   2.513   3.058   2.487
27264WAT     H182034   2.472   2.969   2.511
27264WAT     H282035   2.556   3.051   2.398
27265WAT      O82036   9.417   0.212   6.375
27265WAT     H182037   9.489   0.179   6.314
27265WAT     H282038   9.338   0.240   6.321
27266WAT      O82039   4.374   8.632   4.837
27266WAT     H182040   4.428   8.569   4.781
27266WAT     H282041   4.327   8.697   4.778
27267WAT      O82042   4.567   7.385   4.624
27267WAT     H182043   4.510   7.405   4.544
27267WAT     H282044   4.652   7.437   4.618
27268WAT      O82045   3.739   9.373   7.251
27268WAT     H182046   3.707   9.362   7.157
27268WAT     H282047   3.825   9.423   7.252
27269WAT      O82048   6.794   6.697   6.105
27269WAT     H182049   6.766   6.618   6.051
27269WAT     H282050   6.764   6.781   6.060
27270WAT      O82051   1.820   4.854   1.458
27270WAT     H182052   1.819   4.951   1.435
27270WAT     H282053   1.761   4.838   1.538
27271WAT      O82054   6.623   5.758   0.280
27271WAT     H182055   6.527   5.787   0.283
27271WAT     H282056   6.662   5.763   0.371
27272WAT      O82057   2.859   9.798   3.413
27272WAT     H182058   2.931   9.762   3.473
27272WAT     H282059   2.770   9.778   3.453
27273WAT      O82060   9.136   7.040   4.360
27273WAT     H182061   9.107   7.105   4.290
27273WAT     H282062   9.119   6.947   4.327
27274WAT      O82063   0.228   8.646   8.989
27274WAT     H182064   0.177   8.731   8.976
27274WAT     H282065   0.164   8.569   8.985
27275WAT      O82066   5.607   7.875   3.150
27275WAT     H182067   5.547   7.841   3.078
27275WAT     H282068   5.556   7.938   3.208
27276WAT      O82069   9.693   1.760   1.586
27276WAT     H182070   9.717   1.857   1.584
27276WAT     H282071   9.717   1.718   1.499
27277WAT      O82072   9.372   0.839   7.277
27277WAT     H182073   9.360   0.740   7.265
27277WAT     H282074   9.458   0.868   7.235
27278WAT      O82075   9.768   8.261   1.770
27278WAT     H182076   9.796   8.356   1.786
27278WAT     H282077   9.761   8.245   1.671
27279WAT      O82078   7.530   2.329   9.562
27279WAT     H182079   7.484   2.241   9.554
27279WAT     H282080   7.627   2.319   9.537
27280WAT      O82081   2.253   2.493   7.895
27280WAT     H182082   2.351   2.474   7.908
27280WAT     H282083   2.231   2.488   7.798
27281WAT      O82084   3.262   7.033   5.908
27281WAT     H182085   3.220   7.097   5.973
27281WAT     H282086   3.340   7.076   5.864
27282WAT      O82087   0.601   5.201   8.877
27282WAT     H182088   0.664   5.210   8.800
27282WAT     H282089   0.513   5.241   8.853
27283WAT      O82090   8.115   3.013   9.147
27283WAT     H182091   8.084   3.057   9.063
27283WAT     H282092   8.162   3.080   9.204
27284WAT      O82093   3.203   0.756   5.669
27284WAT     H182094   3.196   0.714   5.579
27284WAT     H282095   3.161   0.847   5.667
27285WAT      O82096   2.196   7.752   9.840
27285WAT     H182097   2.289   7.716   9.834
27285WAT     H282098   2.168   7.757   9.936
27286WAT      O82099   4.052   2.286   1.887
27286WAT     H182100   4.113   2.214   1.922
27286WAT     H282101   4.043   2.358   1.955
27287WAT      O82102   1.763   2.201   7.792
27287WAT     H182103   1.831   2.172   7.725
27287WAT     H282104   1.706   2.122   7.817
27288WAT      O82105   9.328   7.453   2.499
27288WAT     H182106   9.267   7.470   2.577
27288WAT     H282107   9.309   7.363   2.461
27289WAT      O82108   0.020   5.794   1.022
27289WAT     H182109   0.036   5.734   0.943
27289WAT     H282110   0.039   5.889   0.996
27290WAT      O82111   0.096   3.125   0.265
27290WAT     H182112   0.093   3.214   0.221
27290WAT     H282113   0.189   3.109   0.301
27291WAT      O82114   0.611   2.729   0.769
27291WAT     H182115   0.674   2.699   0.697
27291WAT     H282116   0.609   2.662   0.843
27292WAT      O82117   0.929   8.717   8.434
27292WAT     H182118   0.928   8.799   8.376
27292WAT     H282119   0.848   8.716   8.492
27293WAT      O82120   4.773   1.539   0.053
27293WAT     H182121   4.778   1.592   0.138
27293WAT     H282122   4.813   1.592  -0.021
27294WAT      O82123   6.372   5.520   5.842
27294WAT     H182124   6.456   5.574   5.849
27294WAT     H282125   6.332   5.508   5.932
27295WAT      O82126   0.733   5.735   6.316
27295WAT     H182127   0.680   5.765   6.395
27295WAT     H282128   0.791   5.810   6.283
27296WAT      O82129   6.006   2.909   2.025
27296WAT     H182130   5.922   2.892   2.075
27296WAT     H282131   6.078   2.937   2.089
27297WAT      O82132   1.777   7.437   6.560
27297WAT     H182133   1.833   7.373   6.614
27297WAT     H282134   1.711   7.482   6.620
27298WAT      O82135   4.131   8.920   8.902
27298WAT     H182136   4.206   8.968   8.858
27298WAT     H282137   4.108   8.838   8.849
27299WAT      O82138   7.176   3.145   6.248
27299WAT     H182139   7.117   3.223   6.270
27299WAT     H282140   7.191   3.141   6.149
27300WAT      O82141   9.453   0.402   4.813
27300WAT     H182142   9.512   0.395   4.733
27300WAT     H282143   9.485   0.340   4.885
27301WAT      O82144   6.864   7.530   3.632
27301WAT     H182145   6.926   7.478   3.691
27301WAT     H282146   6.915   7.568   3.555
27302WAT      O82147   4.059   0.785   1.762
27302WAT     H182148   4.119   0.788   1.842
27302WAT     H282149   4.012   0.872   1.752
27303WAT      O82150   9.572   8.865   2.234
27303WAT     H182151   9.664   8.831   2.214
27303WAT     H282152   9.559   8.868   2.333
27304WAT      O82153   6.495   1.808   1.933
27304WAT     H182154   6.592   1.831   1.937
27304WAT     H282155   6.444   1.886   1.897
27305WAT      O82156   8.614   4.518   5.329
27305WAT     H182157   8.657   4.451   5.388
27305WAT     H282158   8.669   4.530   5.246
27306WAT      O82159   6.464   2.392   5.084
27306WAT     H182160   6.404   2.313   5.072
27306WAT     H282161   6.506   2.388   5.175
27307WAT      O82162   5.118   5.987   5.702
27307WAT     H182163   5.036   5.932   5.686
27307WAT     H282164   5.177   5.941   5.769
27308WAT      O82165   3.039   9.104   8.219
27308WAT     H182166   2.956   9.154   8.192
27308WAT     H282167   3.115   9.168   8.225
27309WAT      O82168   5.296   8.095   3.716
27309WAT     H182169   5.259   8.012   3.674
27309WAT     H282170   5.239   8.173   3.691
27310WAT      O82171   3.870   8.950   7.286
27310WAT     H182172   3.925   8.872   7.255
27310WAT     H282173   3.785   8.916   7.326
27311WAT      O82174   0.036   5.683   2.126
27311WAT     H182175  -0.029   5.755   2.150
27311WAT     H282176   0.033   5.667   2.027
27312WAT      O82177   3.002   5.643   6.268
27312WAT     H182178   3.091   5.673   6.233
27312WAT     H282179   2.977   5.556   6.225
27313WAT      O82180   1.843   4.021   0.576
27313WAT     H182181   1.873   4.016   0.481
27313WAT     H282182   1.917   4.056   0.633
27314WAT      O82183   0.001   7.588   0.435
27314WAT     H182184   0.075   7.578   0.501
27314WAT     H282185   0.029   7.649   0.361
27315WAT      O82186   8.867   0.886   7.709
27315WAT     H182187   8.848   0.796   7.669
27315WAT     H282188   8.794   0.910   7.774
27316WAT      O82189   8.655   2.366   3.296
27316WAT     H182190   8.665   2.295   3.366
27316WAT     H282191   8.734   2.427   3.299
27317WAT      O82192   5.114   1.669   4.838
27317WAT     H182193   5.079   1.703   4.751
27317WAT     H282194   5.213   1.681   4.842
27318WAT      O82195   4.237   8.595   0.505
27318WAT     H182196   4.147   8.600   0.461
27318WAT     H282197   4.305   8.563   0.439
27319WAT      O82198   1.856   3.642   9.686
27319WAT     H182199   1.882   3.547   9.702
27319WAT     H282200   1.844   3.689   9.774
27320WAT      O82201   4.617   2.260   3.531
27320WAT     H182202   4.605   2.178   3.474
27320WAT     H282203   4.589   2.341   3.479
27321WAT      O82204   2.994   4.231   2.332
27321WAT     H182205   3.018   4.303   2.266
27321WAT     H282206   2.976   4.272   2.421
27322WAT      O82207   0.044   5.195   2.465
27322WAT     H182208   0.067   5.140   2.545
27322WAT     H282209  -0.023   5.146   2.409
27323WAT      O82210   5.893   5.161   1.190
27323WAT     H182211   5.989   5.179   1.208
27323WAT     H282212   5.847   5.135   1.276
27324WAT      O82213   6.436   7.831   2.689
27324WAT     H182214   6.401   7.899   2.624
27324WAT     H282215   6.496   7.876   2.755
27325WAT      O82216   4.708   4.744   7.539
27325WAT     H182217   4.785   4.681   7.543
27325WAT     H282218   4.661   4.734   7.451
27326WAT      O82219   4.427   5.925   3.655
27326WAT     H182220   4.452   5.994   3.587
27326WAT     H282221   4.340   5.883   3.629
27327WAT      O82222   1.016   9.026   9.543
27327WAT     H182223   0.958   9.104   9.567
27327WAT     H282224   1.046   9.035   9.449
27328WAT      O82225   4.987   3.818   9.140
27328WAT     H182226   5.062   3.852   9.084
27328WAT     H282227   4.924   3.894   9.162
27329WAT      O82228   8.555   1.240   7.828
27329WAT     H182229   8.553   1.287   7.917
27329WAT     H282230   8.464   1.240   7.789
27330WAT      O82231   5.740   4.763   0.449
27330WAT     H182232   5.798   4.845   0.451
27330WAT     H282233   5.699   4.748   0.538
27331WAT      O82234   6.805   7.839   0.927
27331WAT     H182235   6.866   7.848   0.849
27331WAT     H282236   6.745   7.919   0.932
27332WAT      O82237   8.931   5.052   0.743
27332WAT     H182238   8.901   5.004   0.825
27332WAT     H282239   8.856   5.109   0.709
27333WAT      O82240   6.452   7.569   2.205
27333WAT     H182241   6.440   7.657   2.251
27333WAT     H282242   6.527   7.576   2.138
27334WAT      O82243   5.140   3.589   1.282
27334WAT     H182244   5.161   3.493   1.262
27334WAT     H282245   5.201   3.649   1.230
27335WAT      O82246   4.648   6.028   0.983
27335WAT     H182247   4.627   6.104   1.044
27335WAT     H282248   4.717   5.970   1.025
27336WAT      O82249   8.754   9.604   4.594
27336WAT     H182250   8.841   9.557   4.577
27336WAT     H282251   8.763   9.662   4.675
27337WAT      O82252   9.844   0.973   2.602
27337WAT     H182253   9.874   1.053   2.550
27337WAT     H282254   9.751   0.949   2.574
27338WAT      O82255   3.458   6.026   9.749
27338WAT     H182256   3.529   6.048   9.681
27338WAT     H282257   3.476   6.077   9.833
27339WAT      O82258   3.448   2.548   4.800
27339WAT     H182259   3.363   2.497   4.812
27339WAT     H282260   3.525   2.485   4.793
27340WAT      O82261   5.414   5.446   1.828
27340WAT     H182262   5.381   5.367   1.880
27340WAT     H282263   5.512   5.458   1.846
27341WAT      O82264   6.052   0.528   7.518
27341WAT     H182265   6.030   0.431   7.520
27341WAT     H282266   6.142   0.543   7.559
27342WAT      O82267   4.113   1.278   6.216
27342WAT     H182268   4.040   1.265   6.148
27342WAT     H282269   4.132   1.376   6.225
27343WAT      O82270   7.859   4.680   3.001
27343WAT     H182271   7.901   4.590   2.987
27343WAT     H282272   7.930   4.746   3.025
27344WAT      O82273   3.561   4.663   2.404
27344WAT     H182274   3.637   4.631   2.346
27344WAT     H282275   3.580   4.756   2.435
27345WAT      O82276   6.136   5.267   5.894
27345WAT     H182277   6.141   5.209   5.814
27345WAT     H282278   6.104   5.358   5.868
27346WAT      O82279   0.832   3.505   5.220
27346WAT     H182280   0.871   3.458   5.299
27346WAT     H282281   0.857   3.601   5.223
27347WAT      O82282   4.927   0.949   2.314
27347WAT     H182283   4.884   0.970   2.226
27347WAT     H282284   4.979   0.864   2.306
27348WAT      O82285   5.958   2.125   8.231
27348WAT     H182286   6.002   2.076   8.157
27348WAT     H282287   5.859   2.116   8.223
27349WAT      O82288   3.190   7.280   3.801
27349WAT     H182289   3.110   7.261   3.745
27349WAT     H282290   3.230   7.368   3.773
27350WAT      O82291   7.511   6.126   0.464
27350WAT     H182292   7.526   6.113   0.561
27350WAT     H282293   7.413   6.122   0.445
27351WAT      O82294   1.483   1.749   7.853
27351WAT     H182295   1.435   1.690   7.788
27351WAT     H282296   1.433   1.752   7.939
27352WAT      O82297   1.638   3.544   4.313
27352WAT     H182298   1.544   3.532   4.345
27352WAT     H282299   1.640   3.533   4.213
27353WAT      O82300   3.633   7.054   0.615
27353WAT     H182301   3.648   7.120   0.542
27353WAT     H282302   3.721   7.025   0.653
27354WAT      O82303   9.303   4.225   5.584
27354WAT     H182304   9.384   4.243   5.527
27354WAT     H282305   9.239   4.301   5.573
27355WAT      O82306   7.580   7.837   5.226
27355WAT     H182307   7.487   7.873   5.237
27355WAT     H282308   7.612   7.802   5.314
27356WAT      O82309   9.163   2.338   2.675
27356WAT     H182310   9.259   2.319   2.692
27356WAT     H282311   9.154   2.427   2.629
27357WAT      O82312   3.355   2.027   2.427
27357WAT     H182313   3.287   1.954   2.418
27357WAT     H282314   3.313   2.115   2.401
27358WAT      O82315   1.005   1.844   2.473
27358WAT     H182316   1.070   1.879   2.541
27358WAT     H282317   1.054   1.789   2.405
27359WAT      O82318   6.281   2.847   2.426
27359WAT     H182319   6.343   2.771   2.444
27359WAT     H282320   6.319   2.905   2.353
27360WAT      O82321   4.427   0.123   3.661
27360WAT     H182322   4.484   0.115   3.742
27360WAT     H282323   4.452   0.051   3.595
27361WAT      O82324   8.747   1.408   4.184
27361WAT     H182325   8.818   1.393   4.115
27361WAT     H282326   8.726   1.506   4.188
27362WAT      O82327   4.508   4.686   3.168
27362WAT     H182328   4.546   4.763   3.220
27362WAT     H282329   4.561   4.674   3.084
27363WAT      O82330   2.352   7.971   6.338
27363WAT     H182331   2.365   8.028   6.257
27363WAT     H282332   2.419   7.997   6.408
27364WAT      O82333   3.269   1.975   8.166
27364WAT     H182334   3.300   1.885   8.135
27364WAT     H282335   3.171   1.971   8.186
27365WAT      O82336   7.861   9.082   6.346
27365WAT     H182337   7.870   9.037   6.257
27365WAT     H282338   7.903   9.025   6.417
27366WAT      O82339   3.836   3.473   5.711
27366WAT     H182340   3.774   3.427   5.647
27366WAT     H282341   3.931   3.456   5.685
27367WAT      O82342   1.129   2.153   4.486
27367WAT     H182343   1.134   2.065   4.438
27367WAT     H282344   1.033   2.176   4.504
27368WAT      O82345   7.327   4.938   3.365
27368WAT     H182346   7.356   4.980   3.451
27368WAT     H282347   7.285   4.849   3.384
27369WAT      O82348   6.479   0.400   2.242
27369WAT     H182349   6.543   0.438   2.175
27369WAT     H282350   6.504   0.305   2.261
27370WAT      O82351   3.610   7.425   2.004
27370WAT     H182352   3.678   7.351   2.007
27370WAT     H282353   3.606   7.463   1.912
27371WAT      O82354   1.853   1.498   7.784
27371WAT     H182355   1.870   1.414   7.836
27371WAT     H282356   1.823   1.571   7.846
27372WAT      O82357   6.996   5.563   8.648
27372WAT     H182358   6.999   5.569   8.748
27372WAT     H282359   7.069   5.618   8.609
27373WAT      O82360   4.520   0.788   8.582
27373WAT     H182361   4.516   0.727   8.502
27373WAT     H282362   4.577   0.867   8.560
27374WAT      O82363   7.378   8.063   7.145
27374WAT     H182364   7.283   8.034   7.161
27374WAT     H282365   7.400   8.138   7.208
27375WAT      O82366   6.372   7.746   9.769
27375WAT     H182367   6.392   7.650   9.755
27375WAT     H282368   6.449   7.802   9.737
27376WAT      O82369   1.965   0.838   0.718
27376WAT     H182370   1.987   0.925   0.762
27376WAT     H282371   1.958   0.766   0.787
27377WAT      O82372   9.772   3.272   2.031
27377WAT     H182373   9.681   3.257   1.992
27377WAT     H282374   9.841   3.230   1.972
27378WAT      O82375   3.622   0.211   4.135
27378WAT     H182376   3.612   0.146   4.060
27378WAT     H282377   3.584   0.172   4.218
27379WAT      O82378   8.862   2.206   4.383
27379WAT     H182379   8.886   2.144   4.458
27379WAT     H282380   8.780   2.257   4.407
27380WAT      O82381   9.731   2.820   4.789
27380WAT     H182382   9.799   2.892   4.805
27380WAT     H282383   9.657   2.830   4.855
27381WAT      O82384   1.821   3.053   7.269
27381WAT     H182385   1.918   3.058   7.291
27381WAT     H282386   1.777   3.140   7.291
27382WAT      O82387   4.038   7.849   7.969
27382WAT     H182388   4.068   7.940   7.943
27382WAT     H282389   3.974   7.855   8.046
27383WAT      O82390   2.917   7.695   6.478
27383WAT     H182391   2.852   7.630   6.519
27383WAT     H282392   2.970   7.739   6.551
27384WAT      O82393   7.363   9.228   4.141
27384WAT     H182394   7.449   9.243   4.091
27384WAT     H282395   7.361   9.135   4.176
27385WAT      O82396   9.872   8.234   7.776
27385WAT     H182397   9.819   8.296   7.719
27385WAT     H282398   9.820   8.151   7.792
27386WAT      O82399   1.599   2.942   6.543
27386WAT     H182400   1.650   2.974   6.624
27386WAT     H282401   1.524   3.006   6.525
27387WAT      O82402   6.309   4.075   6.736
27387WAT     H182403   6.224   4.127   6.723
27387WAT     H282404   6.321   4.058   6.834
27388WAT      O82405   4.214   9.529   5.437
27388WAT     H182406   4.166   9.570   5.514
27388WAT     H282407   4.167   9.554   5.352
27389WAT      O82408   0.077   5.270   6.178
27389WAT     H182409   0.050   5.177   6.154
27389WAT     H282410   0.172   5.271   6.207
27390WAT      O82411   6.838   1.588   5.686
27390WAT     H182412   6.914   1.626   5.633
27390WAT     H282413   6.863   1.497   5.718
27391WAT      O82414   6.031   2.322   6.456
27391WAT     H182415   6.020   2.230   6.417
27391WAT     H282416   6.125   2.333   6.488
27392WAT      O82417   6.164   5.269   0.573
27392WAT     H182418   6.115   5.189   0.538
27392WAT     H282419   6.146   5.348   0.513
27393WAT      O82420   3.367   5.644   0.590
27393WAT     H182421   3.445   5.623   0.649
27393WAT     H282422   3.282   5.625   0.639
27394WAT      O82423   5.323   6.352   8.318
27394WAT     H182424   5.267   6.336   8.237
27394WAT     H282425   5.313   6.448   8.347
27395WAT      O82426   1.425   2.235   8.752
27395WAT     H182427   1.386   2.146   8.726
27395WAT     H282428   1.373   2.274   8.827
27396WAT      O82429   7.065   3.801   9.436
27396WAT     H182430   7.100   3.873   9.496
27396WAT     H282431   6.977   3.768   9.472
27397WAT      O82432   9.620   6.673   1.430
27397WAT     H182433   9.527   6.678   1.396
27397WAT     H282434   9.631   6.592   1.487
27398WAT      O82435   3.358   2.057   1.969
27398WAT     H182436   3.430   1.994   2.000
27398WAT     H282437   3.359   2.140   2.026
27399WAT      O82438   3.833   8.796   4.141
27399WAT     H182439   3.761   8.820   4.075
27399WAT     H282440   3.851   8.875   4.200
27400WAT      O82441   3.124   2.761   3.514
27400WAT     H182442   3.098   2.815   3.595
27400WAT     H282443   3.211   2.714   3.532
27401WAT      O82444   9.581   8.155   2.706
27401WAT     H182445   9.619   8.209   2.631
27401WAT     H282446   9.655   8.127   2.767
27402WAT      O82447   0.068   2.904   3.956
27402WAT     H182448   0.132   2.919   3.880
27402WAT     H282449   0.092   2.965   4.031
27403WAT      O82450   3.224   3.569   9.507
27403WAT     H182451   3.323   3.578   9.504
27403WAT     H282452   3.192   3.516   9.429
27404WAT      O82453   9.188   9.390   8.250
27404WAT     H182454   9.120   9.442   8.302
27404WAT     H282455   9.143   9.339   8.177
27405WAT      O82456   7.276   1.024   4.653
27405WAT     H182457   7.303   0.932   4.678
27405WAT     H282458   7.334   1.091   4.700
27406WAT      O82459   1.428   7.818   4.032
27406WAT     H182460   1.375   7.779   3.957
27406WAT     H282461   1.408   7.769   4.117
27407WAT      O82462   7.532   8.602   7.862
27407WAT     H182463   7.583   8.608   7.948
27407WAT     H282464   7.551   8.683   7.806
27408WAT      O82465   7.340   8.846   9.066
27408WAT     H182466   7.416   8.787   9.040
27408WAT     H282467   7.266   8.836   9.000
27409WAT      O82468   8.531   1.826   6.024
27409WAT     H182469   8.596   1.782   5.963
27409WAT     H282470   8.455   1.764   6.043
27410WAT      O82471   2.004   8.134   6.895
27410WAT     H182472   2.103   8.115   6.891
27410WAT     H282473   1.988   8.211   6.957
27411WAT      O82474   6.126   7.748   8.306
27411WAT     H182475   6.029   7.764   8.323
27411WAT     H282476   6.142   7.743   8.208
27412WAT      O82477   1.400   8.694   0.959
27412WAT     H182478   1.357   8.606   0.978
27412WAT     H282479   1.499   8.682   0.952
27413WAT      O82480   2.285   7.554   1.809
27413WAT     H182481   2.345   7.559   1.889
27413WAT     H282482   2.317   7.483   1.747
27414WAT      O82483   5.809   7.824   3.582
27414WAT     H182484   5.777   7.819   3.677
27414WAT     H282485   5.901   7.863   3.580
27415WAT      O82486   4.829   1.602   5.620
27415WAT     H182487   4.838   1.695   5.655
27415WAT     H282488   4.808   1.540   5.696
27416WAT      O82489   1.108   2.404   8.233
27416WAT     H182490   1.107   2.449   8.322
27416WAT     H282491   1.016   2.407   8.193
27417WAT      O82492   6.267   2.710   6.570
27417WAT     H182493   6.292   2.768   6.648
27417WAT     H282494   6.268   2.764   6.486
27418WAT      O82495   6.010   6.408   3.842
27418WAT     H182496   6.022   6.329   3.902
27418WAT     H282497   5.981   6.487   3.897
27419WAT      O82498   6.746   2.168   9.407
27419WAT     H182499   6.682   2.196   9.479
27419WAT     H282500   6.707   2.093   9.354
27420WAT      O82501   7.043   0.392   4.276
27420WAT     H182502   6.972   0.372   4.208
27420WAT     H282503   7.133   0.371   4.238
27421WAT      O82504   7.688   2.361   4.424
27421WAT     H182505   7.766   2.361   4.362
27421WAT     H282506   7.706   2.424   4.500
27422WAT      O82507   1.586   4.969   2.370
27422WAT     H182508   1.593   5.056   2.321
27422WAT     H282509   1.609   4.982   2.466
27423WAT      O82510   3.533   1.349   9.059
27423WAT     H182511   3.529   1.427   8.996
27423WAT     H282512   3.442   1.329   9.093
27424WAT      O82513   6.080   5.407   8.354
27424WAT     H182514   6.169   5.384   8.394
27424WAT     H282515   6.069   5.507   8.354
27425WAT      O82516   9.151   8.136   7.238
27425WAT     H182517   9.235   8.083   7.256
27425WAT     H282518   9.174   8.217   7.184
27426WAT      O82519   8.321   5.207   4.289
27426WAT     H182520   8.371   5.122   4.277
27426WAT     H282521   8.305   5.250   4.200
27427WAT      O82522   4.603   2.867   0.460
27427WAT     H182523   4.654   2.786   0.491
27427WAT     H282524   4.661   2.921   0.398
27428WAT      O82525   8.178   8.415   9.015
27428WAT     H182526   8.227   8.480   9.072
27428WAT     H282527   8.128   8.350   9.073
27429WAT      O82528   7.780   9.504   9.860
27429WAT     H182529   7.843   9.570   9.900
27429WAT     H282530   7.688   9.544   9.855
27430WAT      O82531   8.407   9.065   2.748
27430WAT     H182532   8.361   9.036   2.664
27430WAT     H282533   8.407   9.165   2.754
27431WAT      O82534   4.856   7.415   0.779
27431WAT     H182535   4.801   7.497   0.768
27431WAT     H282536   4.817   7.341   0.724
27432WAT      O82537   0.470   9.276   8.136
27432WAT     H182538   0.521   9.329   8.069
27432WAT     H282539   0.478   9.319   8.226
27433WAT      O82540   6.555   5.155   3.027
27433WAT     H182541   6.544   5.249   2.993
27433WAT     H282542   6.511   5.147   3.116
27434WAT      O82543   4.274   9.556   4.012
27434WAT     H182544   4.312   9.611   3.938
27434WAT     H282545   4.299   9.596   4.100
27435WAT      O82546   5.982   2.159   5.441
27435WAT     H182547   5.970   2.170   5.539
27435WAT     H282548   5.894   2.171   5.395
27436WAT      O82549   2.569   7.261   4.206
27436WAT     H182550   2.549   7.179   4.152
27436WAT     H282551   2.497   7.274   4.275
27437WAT      O82552   6.834   3.542   4.788
27437WAT     H182553   6.818   3.605   4.711
27437WAT     H282554   6.859   3.595   4.869
27438WAT      O82555   7.668   7.679   0.030
27438WAT     H182556   7.711   7.723  -0.049
27438WAT     H282557   7.693   7.728   0.113
27439WAT      O82558   0.275   2.976   6.329
27439WAT     H182559   0.313   2.904   6.271
27439WAT     H282560   0.178   2.989   6.305
27440WAT      O82561   1.982   2.962   0.689
27440WAT     H182562   1.975   2.880   0.747
27440WAT     H282563   2.049   3.025   0.728
27441WAT      O82564   4.617   8.553   3.305
27441WAT     H182565   4.574   8.484   3.247
27441WAT     H282566   4.608   8.526   3.401
27442WAT      O82567   6.196   0.684   6.876
27442WAT     H182568   6.122   0.677   6.810
27442WAT     H282569   6.277   0.637   6.840
27443WAT      O82570   7.817   1.611   9.071
27443WAT     H182571   7.880   1.688   9.058
27443WAT     H282572   7.866   1.525   9.062
27444WAT      O82573   6.444   1.060   5.681
27444WAT     H182574   6.532   1.103   5.662
27444WAT     H282575   6.404   1.101   5.764
27445WAT      O82576   1.930   7.296   1.903
27445WAT     H182577   1.946   7.210   1.855
27445WAT     H282578   1.859   7.283   1.973
27446WAT      O82579   3.201   8.246   9.348
27446WAT     H182580   3.227   8.317   9.283
27446WAT     H282581   3.282   8.196   9.378
27447WAT      O82582   0.767   1.950   2.386
27447WAT     H182583   0.741   1.931   2.291
27447WAT     H282584   0.859   1.917   2.403
27448WAT      O82585   5.376   6.730   6.827
27448WAT     H182586   5.445   6.705   6.895
27448WAT     H282587   5.287   6.740   6.871
27449WAT      O82588   2.459   3.826   3.495
27449WAT     H182589   2.555   3.846   3.477
27449WAT     H282590   2.422   3.770   3.420
27450WAT      O82591   2.111   3.328   7.546
27450WAT     H182592   2.086   3.401   7.610
27450WAT     H282593   2.055   3.335   7.464
27451WAT      O82594   5.044   1.605   2.931
27451WAT     H182595   4.986   1.587   3.011
27451WAT     H282596   5.138   1.619   2.962
27452WAT      O82597   3.164   8.497   0.302
27452WAT     H182598   3.132   8.458   0.388
27452WAT     H282599   3.149   8.595   0.302
27453WAT      O82600   3.894   0.318   9.798
27453WAT     H182601   3.990   0.331   9.823
27453WAT     H282602   3.887   0.239   9.737
27454WAT      O82603   6.193   8.909   5.550
27454WAT     H182604   6.203   8.873   5.643
27454WAT     H282605   6.250   8.856   5.487
27455WAT      O82606   2.270   5.902   8.887
27455WAT     H182607   2.355   5.854   8.865
27455WAT     H282608   2.291   5.981   8.944
27456WAT      O82609   3.453   0.781   4.319
27456WAT     H182610   3.375   0.836   4.288
27456WAT     H282611   3.509   0.755   4.241
27457WAT      O82612   2.420   8.422   8.053
27457WAT     H182613   2.472   8.492   8.002
27457WAT     H282614   2.434   8.435   8.151
27458WAT      O82615   0.682   6.311   3.517
27458WAT     H182616   0.658   6.349   3.606
27458WAT     H282617   0.673   6.212   3.519
27459WAT      O82618   2.887   0.776   5.957
27459WAT     H182619   2.854   0.730   5.875
27459WAT     H282620   2.825   0.759   6.033
27460WAT      O82621   9.688   2.924   4.514
27460WAT     H182622   9.603   2.977   4.512
27460WAT     H282623   9.702   2.887   4.605
27461WAT      O82624   8.352   9.074   3.029
27461WAT     H182625   8.442   9.041   3.057
27461WAT     H282626   8.339   9.056   2.932
27462WAT      O82627   7.568   3.157   2.491
27462WAT     H182628   7.572   3.085   2.560
27462WAT     H282629   7.616   3.127   2.408
27463WAT      O82630   2.369   0.176   4.062
27463WAT     H182631   2.441   0.108   4.047
27463WAT     H282632   2.360   0.193   4.160
27464WAT      O82633   4.088   6.720   3.482
27464WAT     H182634   4.173   6.745   3.435
27464WAT     H282635   4.010   6.749   3.426
27465WAT      O82636   9.084   9.308   4.847
27465WAT     H182637   9.043   9.377   4.906
27465WAT     H282638   9.142   9.353   4.778
27466WAT      O82639   3.176   7.516   8.027
27466WAT     H182640   3.170   7.422   7.992
27466WAT     H282641   3.126   7.523   8.113
27467WAT      O82642   4.728   3.026   2.734
27467WAT     H182643   4.801   2.958   2.728
27467WAT     H282644   4.684   3.036   2.645
27468WAT      O82645   5.705   1.285   4.134
27468WAT     H182646   5.693   1.283   4.233
27468WAT     H282647   5.655   1.363   4.096
27469WAT      O82648   4.224   9.695   2.834
27469WAT     H182649   4.199   9.617   2.891
27469WAT     H282650   4.286   9.665   2.761
27470WAT      O82651   8.032   5.026   7.902
27470WAT     H182652   8.104   5.024   7.972
27470WAT     H282653   8.067   5.073   7.820
27471WAT      O82654   5.755   3.811   3.054
27471WAT     H182655   5.837   3.832   3.000
27471WAT     H282656   5.694   3.890   3.054
27472WAT      O82657   7.724   7.013   0.349
27472WAT     H182658   7.711   7.025   0.447
27472WAT     H282659   7.717   6.915   0.326
27473WAT      O82660   5.434   0.545   7.563
27473WAT     H182661   5.407   0.640   7.577
27473WAT     H282662   5.359   0.484   7.589
27474WAT      O82663   6.943   4.589   0.437
27474WAT     H182664   6.932   4.553   0.344
27474WAT     H282665   7.040   4.584   0.463
27475WAT      O82666   1.397   5.027   1.029
27475WAT     H182667   1.333   5.098   1.000
27475WAT     H282668   1.362   4.938   1.001
27476WAT      O82669   9.834   5.672   3.852
27476WAT     H182670   9.837   5.693   3.755
27476WAT     H282671   9.746   5.701   3.890
27477WAT      O82672   2.678   4.789   3.942
27477WAT     H182673   2.632   4.726   4.004
27477WAT     H282674   2.706   4.740   3.859
27478WAT      O82675   4.939   0.372   0.364
27478WAT     H182676   4.889   0.332   0.287
27478WAT     H282677   5.037   0.355   0.353
27479WAT      O82678   3.869   7.102   7.763
27479WAT     H182679   3.803   7.144   7.826
27479WAT     H282680   3.958   7.144   7.775
27480WAT      O82681   7.477   7.927   1.598
27480WAT     H182682   7.466   8.024   1.572
27480WAT     H282683   7.445   7.914   1.692
27481WAT      O82684   0.128   9.643   1.656
27481WAT     H182685   0.182   9.650   1.572
27481WAT     H282686   0.109   9.735   1.691
27482WAT      O82687   6.938   7.696   6.134
27482WAT     H182688   6.945   7.628   6.206
27482WAT     H282689   6.845   7.732   6.131
27483WAT      O82690   0.604   4.561   4.550
27483WAT     H182691   0.599   4.567   4.450
27483WAT     H282692   0.696   4.583   4.581
27484WAT      O82693   6.217   3.825   2.023
27484WAT     H182694   6.193   3.729   2.032
27484WAT     H282695   6.305   3.833   1.976
27485WAT      O82696   7.691   8.915   4.910
27485WAT     H182697   7.767   8.858   4.942
27485WAT     H282698   7.611   8.857   4.894
27486WAT      O82699   0.561   0.320   2.926
27486WAT     H182700   0.647   0.269   2.927
27486WAT     H282701   0.569   0.398   2.864
27487WAT      O82702   1.995   9.733   3.030
27487WAT     H182703   1.977   9.809   3.093
27487WAT     H282704   1.993   9.766   2.936
27488WAT      O82705   8.176   2.535   7.173
27488WAT     H182706   8.251   2.570   7.229
27488WAT     H282707   8.103   2.603   7.169
27489WAT      O82708   4.262   1.139   1.783
27489WAT     H182709   4.193   1.117   1.713
27489WAT     H282710   4.233   1.220   1.834
27490WAT      O82711   4.102   2.247   9.192
27490WAT     H182712   4.013   2.233   9.148
27490WAT     H282713   4.115   2.180   9.265
27491WAT      O82714   7.002   1.527   3.821
27491WAT     H182715   6.947   1.547   3.740
27491WAT     H282716   7.044   1.611   3.855
27492WAT      O82717   1.741   2.717   0.451
27492WAT     H182718   1.785   2.750   0.368
27492WAT     H282719   1.716   2.794   0.509
27493WAT      O82720   1.884   3.533   0.086
27493WAT     H182721   1.914   3.619   0.129
27493WAT     H282722   1.786   3.521   0.101
27494WAT      O82723   3.865   8.329   4.113
27494WAT     H182724   3.860   8.231   4.092
27494WAT     H282725   3.833   8.381   4.034
27495WAT      O82726   0.499   9.474   6.964
27495WAT     H182727   0.592   9.497   6.991
27495WAT     H282728   0.440   9.554   6.975
27496WAT      O82729   4.395   6.253   2.196
27496WAT     H182730   4.359   6.316   2.126
27496WAT     H282731   4.434   6.173   2.151
27497WAT      O82732   2.524   9.728   5.345
27497WAT     H182733   2.550   9.823   5.328
27497WAT     H282734   2.595   9.667   5.310
27498WAT      O82735   4.020   2.282   5.472
27498WAT     H182736   4.004   2.380   5.467
27498WAT     H282737   4.116   2.262   5.450
27499WAT      O82738   9.715   4.791   7.200
27499WAT     H182739   9.637   4.762   7.256
27499WAT     H282740   9.694   4.774   7.104
27500WAT      O82741   3.284   4.923   3.321
27500WAT     H182742   3.282   4.880   3.230
27500WAT     H282743   3.208   4.988   3.329
27501WAT      O82744   1.283   8.513   1.684
27501WAT     H182745   1.287   8.596   1.630
27501WAT     H282746   1.357   8.451   1.657
27502WAT      O82747   5.801   0.155   5.625
27502WAT     H182748   5.860   0.141   5.545
27502WAT     H282749   5.791   0.253   5.642
27503WAT      O82750   3.178   2.356   1.709
27503WAT     H182751   3.232   2.299   1.647
27503WAT     H282752   3.216   2.448   1.712
27504WAT      O82753   3.014   1.705   7.686
27504WAT     H182754   2.954   1.699   7.766
27504WAT     H282755   3.107   1.682   7.712
27505WAT      O82756   6.500   3.978   8.594
27505WAT     H182757   6.464   4.068   8.569
27505WAT     H282758   6.444   3.907   8.552
27506WAT      O82759   8.078   5.767   1.918
27506WAT     H182760   8.177   5.758   1.906
27506WAT     H282761   8.047   5.702   1.987
27507WAT      O82762   8.599   9.105   6.962
27507WAT     H182763   8.671   9.065   6.905
27507WAT     H282764   8.591   9.052   7.047
27508WAT      O82765   7.080   7.473   4.225
27508WAT     H182766   7.071   7.379   4.191
27508WAT     H282767   7.001   7.527   4.195
27509WAT      O82768   8.726   6.348   4.676
27509WAT     H182769   8.708   6.446   4.678
27509WAT     H282770   8.726   6.316   4.581
27510WAT      O82771   5.078   3.976   4.714
27510WAT     H182772   5.049   4.036   4.639
27510WAT     H282773   5.015   3.985   4.791
27511WAT      O82774   8.516   7.171   9.675
27511WAT     H182775   8.614   7.165   9.692
27511WAT     H282776   8.485   7.088   9.629
27512WAT      O82777   3.950   7.687   7.226
27512WAT     H182778   3.998   7.601   7.245
27512WAT     H282779   3.945   7.741   7.310
27513WAT      O82780   9.609   7.824   4.427
27513WAT     H182781   9.626   7.895   4.495
27513WAT     H282782   9.568   7.744   4.471
27514WAT      O82783   1.961   8.361   3.928
27514WAT     H182784   1.972   8.333   4.023
27514WAT     H282785   2.048   8.353   3.880
27515WAT      O82786   5.330   4.951   0.665
27515WAT     H182787   5.256   5.012   0.637
27515WAT     H282788   5.292   4.867   0.704
27516WAT      O82789   7.996   9.710   8.739
27516WAT     H182790   7.937   9.731   8.817
27516WAT     H282791   8.084   9.676   8.772
27517WAT      O82792   6.726   7.713   7.136
27517WAT     H182793   6.779   7.749   7.059
27517WAT     H282794   6.734   7.775   7.214
27518WAT      O82795   5.001   2.810   8.747
27518WAT     H182796   5.045   2.884   8.797
27518WAT     H282797   4.948   2.753   8.811
27519WAT      O82798   3.266   0.198   6.057
27519WAT     H182799   3.357   0.231   6.031
27519WAT     H282800   3.248   0.111   6.012
27520WAT      O82801   3.904   8.016   6.311
27520WAT     H182802   3.918   8.093   6.374
27520WAT     H282803   3.870   7.937   6.363
27521WAT      O82804   5.931   9.182   1.825
27521WAT     H182805   5.857   9.148   1.884
27521WAT     H282806   6.019   9.165   1.869
27522WAT      O82807   4.798   6.180   7.987
27522WAT     H182808   4.746   6.095   7.975
27522WAT     H282809   4.771   6.246   7.917
27523WAT      O82810   9.049   6.021   0.103
27523WAT     H182811   8.979   6.002   0.171
27523WAT     H282812   9.045   6.117   0.076
27524WAT      O82813   5.411   6.981   8.360
27524WAT     H182814   5.385   7.072   8.392
27524WAT     H282815   5.330   6.936   8.321
27525WAT      O82816   5.442   1.772   7.938
27525WAT     H182817   5.456   1.851   7.877
27525WAT     H282818   5.394   1.700   7.888
27526WAT      O82819   3.568   3.362   2.005
27526WAT     H182820   3.553   3.427   2.080
27526WAT     H282821   3.610   3.279   2.042
27527WAT      O82822   6.271   3.484   4.691
27527WAT     H182823   6.206   3.551   4.727
27527WAT     H282824   6.334   3.530   4.627
27528WAT      O82825   8.965   9.492   5.011
27528WAT     H182826   8.901   9.481   5.087
27528WAT     H282827   9.008   9.583   5.016
27529WAT      O82828   3.954   9.126   6.496
27529WAT     H182829   3.883   9.188   6.531
27529WAT     H282830   3.911   9.054   6.442
27530WAT      O82831   0.825   2.836   7.959
27530WAT     H182832   0.905   2.834   8.020
27530WAT     H282833   0.848   2.790   7.873
27531WAT      O82834   0.644   3.043   7.975
27531WAT     H182835   0.713   2.971   7.975
27531WAT     H282836   0.680   3.123   8.023
27532WAT      O82837   7.855   7.629   8.439
27532WAT     H182838   7.781   7.649   8.504
27532WAT     H282839   7.854   7.531   8.417
27533WAT      O82840   4.552   4.605   0.905
27533WAT     H182841   4.473   4.544   0.908
27533WAT     H282842   4.628   4.562   0.954
27534WAT      O82843   7.129   4.503   6.465
27534WAT     H182844   7.084   4.534   6.549
27534WAT     H282845   7.111   4.568   6.392
27535WAT      O82846   2.265   9.567   7.469
27535WAT     H182847   2.208   9.553   7.388
27535WAT     H282848   2.289   9.479   7.509
27536WAT      O82849   6.551   0.352   3.658
27536WAT     H182850   6.612   0.398   3.592
27536WAT     H282851   6.457   0.381   3.642
27537WAT      O82852   9.581   5.794   7.735
27537WAT     H182853   9.551   5.699   7.738
27537WAT     H282854   9.599   5.821   7.641
27538WAT      O82855   2.134   9.559   6.447
27538WAT     H182856   2.199   9.484   6.453
27538WAT     H282857   2.138   9.614   6.531
27539WAT      O82858   2.312   3.839   0.893
27539WAT     H182859   2.358   3.814   0.978
27539WAT     H282860   2.378   3.876   0.829
27540WAT      O82861   9.380   6.147   9.858
27540WAT     H182862   9.337   6.089   9.928
27540WAT     H282863   9.325   6.142   9.774
27541WAT      O82864   6.266   5.683   3.814
27541WAT     H182865   6.169   5.701   3.828
27541WAT     H282866   6.312   5.767   3.784
27542WAT      O82867   5.092   7.899   3.375
27542WAT     H182868   5.015   7.841   3.349
27542WAT     H282869   5.123   7.875   3.467
27543WAT      O82870   4.935   1.668   4.617
27543WAT     H182871   4.915   1.610   4.696
27543WAT     H282872   4.943   1.611   4.535
27544WAT      O82873   8.548   5.084   2.483
27544WAT     H182874   8.454   5.095   2.449
27544WAT     H282875   8.546   5.072   2.582
27545WAT      O82876   5.118   1.866   0.471
27545WAT     H182877   5.150   1.787   0.524
27545WAT     H282878   5.063   1.835   0.394
27546WAT      O82879   6.758   6.147   1.676
27546WAT     H182880   6.683   6.207   1.704
27546WAT     H282881   6.835   6.203   1.646
27547WAT      O82882   6.679   5.645   2.972
27547WAT     H182883   6.685   5.739   3.006
27547WAT     H282884   6.772   5.609   2.959
27548WAT      O82885   3.586   3.906   2.919
27548WAT     H182886   3.551   3.953   2.838
27548WAT     H282887   3.685   3.896   2.913
27549WAT      O82888   0.344   7.067   4.097
27549WAT     H182889   0.391   7.133   4.037
27549WAT     H282890   0.292   7.117   4.166
27550WAT      O82891   2.437   6.466   7.476
27550WAT     H182892   2.385   6.381   7.471
27550WAT     H282893   2.493   6.467   7.558
27551WAT      O82894   6.269   2.501   9.496
27551WAT     H182895   6.202   2.506   9.421
27551WAT     H282896   6.269   2.408   9.534
27552WAT      O82897   7.533   1.139   1.162
27552WAT     H182898   7.592   1.213   1.194
27552WAT     H282899   7.451   1.135   1.219
27553WAT      O82900   4.160   2.891   4.324
27553WAT     H182901   4.211   2.823   4.376
27553WAT     H282902   4.205   2.980   4.331
27554WAT      O82903   9.460   1.492   6.072
27554WAT     H182904   9.479   1.447   5.985
27554WAT     H282905   9.474   1.591   6.062
27555WAT      O82906   8.536   5.218   2.923
27555WAT     H182907   8.611   5.162   2.889
27555WAT     H282908   8.563   5.314   2.921
27556WAT      O82909   5.994   0.837   1.609
27556WAT     H182910   5.962   0.876   1.695
27556WAT     H282911   6.036   0.748   1.626
27557WAT      O82912   3.429   4.501   1.291
27557WAT     H182913   3.522   4.465   1.298
27557WAT     H282914   3.407   4.516   1.195
27558WAT      O82915   1.125   5.518   3.569
27558WAT     H182916   1.192   5.582   3.532
27558WAT     H282917   1.047   5.511   3.507
27559WAT      O82918   6.759   6.798   3.551
27559WAT     H182919   6.854   6.774   3.528
27559WAT     H282920   6.752   6.896   3.567
27560WAT      O82921   5.805   5.038   6.785
27560WAT     H182922   5.859   5.081   6.714
27560WAT     H282923   5.786   4.943   6.760
27561WAT      O82924   7.029   2.684   3.367
27561WAT     H182925   7.099   2.746   3.403
27561WAT     H282926   6.952   2.738   3.332
27562WAT      O82927   5.913   7.753   2.108
27562WAT     H182928   5.926   7.729   2.012
27562WAT     H282929   5.980   7.822   2.135
27563WAT      O82930   4.580   2.932   7.435
27563WAT     H182931   4.511   2.895   7.373
27563WAT     H282932   4.598   2.867   7.509
27564WAT      O82933   8.797   6.918   3.855
27564WAT     H182934   8.742   6.835   3.858
27564WAT     H282935   8.759   6.981   3.787
27565WAT      O82936   6.356   6.395   3.904
27565WAT     H182937   6.440   6.399   3.957
27565WAT     H282938   6.354   6.472   3.840
27566WAT      O82939   2.262   1.499   5.829
27566WAT     H182940   2.223   1.453   5.750
27566WAT     H282941   2.230   1.454   5.913
27567WAT      O82942   6.313   5.741   7.700
27567WAT     H182943   6.298   5.644   7.680
27567WAT     H282944   6.307   5.794   7.616
27568WAT      O82945   5.517   6.455   7.004
27568WAT     H182946   5.569   6.510   6.939
27568WAT     H282947   5.577   6.427   7.079
27569WAT      O82948   0.417   1.968   2.757
27569WAT     H182949   0.356   1.895   2.725
27569WAT     H282950   0.363   2.041   2.798
27570WAT      O82951   1.514   9.446   5.334
27570WAT     H182952   1.555   9.355   5.328
27570WAT     H282953   1.517   9.489   5.244
27571WAT      O82954   7.382   1.483   9.082
27571WAT     H182955   7.432   1.423   9.020
27571WAT     H282956   7.447   1.529   9.143
27572WAT      O82957   2.937   1.588   4.720
27572WAT     H182958   2.884   1.504   4.704
27572WAT     H282959   2.974   1.587   4.813
27573WAT      O82960   5.214   9.389   1.541
27573WAT     H182961   5.305   9.350   1.531
27573WAT     H282962   5.163   9.339   1.610
27574WAT      O82963   7.936   7.975   6.724
27574WAT     H182964   7.863   8.007   6.665
27574WAT     H282965   7.906   7.894   6.773
27575WAT      O82966   5.794   7.051   4.150
27575WAT     H182967   5.812   7.090   4.240
27575WAT     H282968   5.878   7.052   4.096
27576WAT      O82969   5.950   7.105   2.480
27576WAT     H182970   5.988   7.172   2.543
27576WAT     H282971   5.918   7.150   2.397
27577WAT      O82972   6.179   1.244   3.445
27577WAT     H182973   6.238   1.208   3.372
27577WAT     H282974   6.220   1.225   3.534
27578WAT      O82975   3.506   9.398   0.658
27578WAT     H182976   3.601   9.389   0.629
27578WAT     H282977   3.502   9.443   0.747
27579WAT      O82978   1.395   8.957   6.166
27579WAT     H182979   1.316   8.908   6.129
27579WAT     H282980   1.476   8.938   6.111
27580WAT      O82981   0.065   7.489   2.308
27580WAT     H182982   0.069   7.446   2.217
27580WAT     H282983   0.152   7.477   2.355
27581WAT      O82984   7.776   7.129   9.724
27581WAT     H182985   7.750   7.058   9.788
27581WAT     H282986   7.755   7.099   9.631
27582WAT      O82987   3.412   0.307   7.781
27582WAT     H182988   3.425   0.301   7.880
27582WAT     H282989   3.489   0.264   7.734
27583WAT      O82990   3.780   0.307   8.549
27583WAT     H182991   3.827   0.222   8.574
27583WAT     H282992   3.820   0.343   8.464
27584WAT      O82993   7.697   4.157   4.311
27584WAT     H182994   7.691   4.236   4.372
27584WAT     H282995   7.644   4.081   4.350
27585WAT      O82996   6.460   7.050   3.378
27585WAT     H182997   6.386   7.060   3.445
27585WAT     H282998   6.544   7.026   3.426
27586WAT      O82999   1.471   1.830   2.271
27586WAT     H183000   1.547   1.791   2.219
27586WAT     H283001   1.417   1.890   2.212
27587WAT      O83002   7.762   6.998   1.166
27587WAT     H183003   7.850   7.046   1.159
27587WAT     H283004   7.727   7.007   1.260
27588WAT      O83005   6.451   2.584   3.801
27588WAT     H183006   6.439   2.678   3.834
27588WAT     H283007   6.425   2.580   3.705
27589WAT      O83008   5.372   6.653   4.117
27589WAT     H183009   5.356   6.694   4.207
27589WAT     H283010   5.468   6.627   4.109
27590WAT      O83011   1.025   8.549   1.381
27590WAT     H183012   1.068   8.552   1.291
27590WAT     H283013   1.012   8.643   1.415
27591WAT      O83014   7.937   4.279   0.194
27591WAT     H183015   8.002   4.354   0.177
27591WAT     H283016   7.936   4.257   0.291
27592WAT      O83017   7.155   6.151   6.385
27592WAT     H183018   7.173   6.249   6.384
27592WAT     H283019   7.241   6.101   6.380
27593WAT      O83020   0.604   1.348   9.583
27593WAT     H183021   0.678   1.385   9.527
27593WAT     H283022   0.518   1.355   9.533
27594WAT      O83023   7.361   0.777   8.282
27594WAT     H183024   7.362   0.877   8.292
27594WAT     H283025   7.455   0.743   8.284
27595WAT      O83026   4.902   4.508   6.335
27595WAT     H183027   4.839   4.555   6.398
27595WAT     H283028   4.916   4.414   6.367
27596WAT      O83029   7.141   1.573   7.227
27596WAT     H183030   7.116   1.484   7.188
27596WAT     H283031   7.200   1.622   7.163
27597WAT      O83032   2.074   5.393   7.289
27597WAT     H183033   2.098   5.322   7.223
27597WAT     H283034   2.064   5.351   7.380
27598WAT      O83035   5.213   2.786   5.215
27598WAT     H183036   5.153   2.726   5.162
27598WAT     H283037   5.287   2.732   5.254
27599WAT      O83038   5.862   6.162   6.477
27599WAT     H183039   5.804   6.222   6.422
27599WAT     H283040   5.806   6.111   6.543
27600WAT      O83041   2.932   7.312   5.760
27600WAT     H183042   2.853   7.355   5.716
27600WAT     H283043   2.969   7.373   5.829
27601WAT      O83044   8.519   9.282   2.039
27601WAT     H183045   8.447   9.213   2.040
27601WAT     H283046   8.478   9.373   2.048
27602WAT      O83047   6.613   6.956   7.384
27602WAT     H183048   6.665   6.878   7.419
27602WAT     H283049   6.633   6.968   7.287
27603WAT      O83050   5.000   9.463   9.647
27603WAT     H183051   5.010   9.461   9.746
27603WAT     H283052   5.087   9.441   9.604
27604WAT      O83053   6.258   4.809   8.721
27604WAT     H183054   6.270   4.892   8.776
27604WAT     H283055   6.167   4.809   8.679
27605WAT      O83056   9.185   8.231   1.679
27605WAT     H183057   9.162   8.325   1.654
27605WAT     H283058   9.277   8.209   1.646
27606WAT      O83059   1.943   9.107   7.192
27606WAT     H183060   1.887   9.026   7.206
27606WAT     H283061   1.952   9.158   7.278
27607WAT      O83062   1.068   2.490   2.172
27607WAT     H183063   1.048   2.541   2.256
27607WAT     H283064   1.111   2.550   2.105
27608WAT      O83065   7.053   9.096   0.636
27608WAT     H183066   7.018   9.073   0.545
27608WAT     H283067   7.149   9.125   0.629
27609WAT      O83068   8.739   8.724   0.166
27609WAT     H183069   8.659   8.678   0.203
27609WAT     H283070   8.785   8.775   0.239
27610WAT      O83071   6.542   2.517   9.507
27610WAT     H183072   6.445   2.508   9.485
27610WAT     H283073   6.578   2.429   9.536
27611WAT      O83074   1.665   1.758   0.457
27611WAT     H183075   1.569   1.750   0.481
27611WAT     H283076   1.719   1.773   0.540
27612WAT      O83077   3.194   8.676   3.439
27612WAT     H183078   3.277   8.636   3.399
27612WAT     H283079   3.121   8.675   3.371
27613WAT      O83080   3.911   7.089   8.891
27613WAT     H183081   3.833   7.029   8.871
27613WAT     H283082   3.877   7.180   8.915
27614WAT      O83083   1.487   4.519   9.283
27614WAT     H183084   1.447   4.448   9.225
27614WAT     H283085   1.416   4.582   9.313
27615WAT      O83086   8.563   0.808   9.748
27615WAT     H183087   8.641   0.861   9.780
27615WAT     H283088   8.516   0.858   9.675
27616WAT      O83089   4.034   8.554   1.420
27616WAT     H183090   4.044   8.601   1.333
27616WAT     H283091   4.124   8.541   1.461
27617WAT      O83092   5.055   4.585   1.353
27617WAT     H183093   5.044   4.546   1.445
27617WAT     H283094   4.967   4.584   1.306
27618WAT      O83095   9.781   6.480   8.332
27618WAT     H183096   9.740   6.551   8.388
27618WAT     H283097   9.877   6.467   8.359
27619WAT      O83098   9.534   9.271   4.595
27619WAT     H183099   9.503   9.270   4.690
27619WAT     H283100   9.549   9.366   4.565
27620WAT      O83101   9.002   6.603   8.947
27620WAT     H183102   9.022   6.508   8.922
27620WAT     H283103   9.051   6.665   8.886
27621WAT      O83104   3.363   7.201   7.078
27621WAT     H183105   3.462   7.199   7.090
27621WAT     H283106   3.324   7.116   7.112
27622WAT      O83107   7.912   0.210   9.527
27622WAT     H183108   7.923   0.285   9.463
27622WAT     H283109   7.851   0.141   9.488
27623WAT      O83110   2.047   9.801   1.953
27623WAT     H183111   1.967   9.740   1.955
27623WAT     H283112   2.046   9.859   2.035
27624WAT      O83113   3.186   5.763   8.472
27624WAT     H183114   3.163   5.854   8.505
27624WAT     H283115   3.269   5.767   8.416
27625WAT      O83116   7.066   8.365   4.053
27625WAT     H183117   6.995   8.377   3.984
27625WAT     H283118   7.138   8.306   4.016
27626WAT      O83119   9.306   5.784   5.791
27626WAT     H183120   9.334   5.755   5.700
27626WAT     H283121   9.271   5.877   5.787
27627WAT      O83122   2.716   6.407   6.366
27627WAT     H183123   2.772   6.472   6.419
27627WAT     H283124   2.626   6.446   6.351
27628WAT      O83125   1.658   8.113   3.153
27628WAT     H183126   1.693   8.077   3.239
27628WAT     H283127   1.578   8.060   3.124
27629WAT      O83128   2.808   6.856   1.000
27629WAT     H183129   2.816   6.955   0.987
27629WAT     H283130   2.869   6.828   1.074
27630WAT      O83131   0.286   8.115   8.295
27630WAT     H183132   0.368   8.097   8.349
27630WAT     H283133   0.205   8.084   8.346
27631WAT      O83134   2.702   6.854   6.217
27631WAT     H183135   2.658   6.943   6.230
27631WAT     H283136   2.755   6.831   6.299
27632WAT      O83137   0.782   0.304   4.069
27632WAT     H183138   0.792   0.399   4.039
27632WAT     H283139   0.742   0.302   4.161
27633WAT      O83140   2.387   4.266   5.334
27633WAT     H183141   2.483   4.266   5.304
27633WAT     H283142   2.328   4.249   5.255
27634WAT      O83143   0.389   5.740   0.998
27634WAT     H183144   0.431   5.720   0.910
27634WAT     H283145   0.425   5.677   1.067
27635WAT      O83146   2.002   1.399   8.741
27635WAT     H183147   2.044   1.358   8.660
27635WAT     H283148   1.970   1.491   8.719
27636WAT      O83149   2.835   2.977   3.708
27636WAT     H183150   2.882   3.054   3.665
27636WAT     H283151   2.739   3.000   3.722
27637WAT      O83152   1.966   0.783   1.861
27637WAT     H183153   1.918   0.710   1.909
27637WAT     H283154   1.911   0.816   1.784
27638WAT      O83155   6.817   1.440   8.904
27638WAT     H183156   6.770   1.438   8.992
27638WAT     H283157   6.916   1.431   8.918
27639WAT      O83158   6.258   5.995   2.653
27639WAT     H183159   6.217   6.054   2.584
27639WAT     H283160   6.186   5.954   2.709
27640WAT      O83161   8.166   5.992   4.930
27640WAT     H183162   8.175   5.902   4.889
27640WAT     H283163   8.089   6.041   4.889
27641WAT      O83164   0.632   5.006   2.154
27641WAT     H183165   0.658   4.909   2.163
27641WAT     H283166   0.546   5.021   2.203
27642WAT      O83167   9.787   0.472   3.758
27642WAT     H183168   9.842   0.545   3.718
27642WAT     H283169   9.781   0.485   3.857
27643WAT      O83170   6.006   5.611   0.689
27643WAT     H183171   6.015   5.630   0.786
27643WAT     H283172   5.974   5.694   0.642
27644WAT      O83173   5.882   5.973   0.840
27644WAT     H183174   5.795   5.929   0.821
27644WAT     H283175   5.950   5.902   0.864
27645WAT      O83176   6.689   7.891   1.997
27645WAT     H183177   6.727   7.941   2.075
27645WAT     H283178   6.741   7.914   1.914
27646WAT      O83179   6.708   7.339   6.296
27646WAT     H183180   6.804   7.368   6.291
27646WAT     H283181   6.658   7.378   6.219
27647WAT      O83182   7.567   9.754   2.412
27647WAT     H183183   7.650   9.779   2.462
27647WAT     H283184   7.490   9.807   2.447
27648WAT      O83185   8.241   8.328   5.276
27648WAT     H183186   8.175   8.400   5.256
27648WAT     H283187   8.253   8.271   5.195
27649WAT      O83188   3.204   1.630   7.220
27649WAT     H183189   3.131   1.599   7.280
27649WAT     H283190   3.287   1.645   7.274
27650WAT      O83191   1.724   9.034   6.009
27650WAT     H183192   1.680   8.944   6.007
27650WAT     H283193   1.775   9.048   5.924
27651WAT      O83194   8.192   3.254   9.240
27651WAT     H183195   8.100   3.291   9.240
27651WAT     H283196   8.249   3.302   9.173
27652WAT      O83197   1.177   8.975   1.539
27652WAT     H183198   1.234   9.007   1.463
27652WAT     H283199   1.234   8.924   1.604
27653WAT      O83200   5.184   2.777   9.808
27653WAT     H183201   5.242   2.752   9.730
27653WAT     H283202   5.183   2.703   9.874
27654WAT      O83203   9.636   5.710   3.220
27654WAT     H183204   9.608   5.746   3.308
27654WAT     H283205   9.631   5.782   3.151
27655WAT      O83206   2.857   6.865   2.083
27655WAT     H183207   2.826   6.771   2.098
27655WAT     H283208   2.934   6.884   2.143
27656WAT      O83209   2.219   6.729   0.437
27656WAT     H183210   2.128   6.693   0.415
27656WAT     H283211   2.218   6.769   0.528
27657WAT      O83212   7.095   4.002   5.508
27657WAT     H183213   7.047   4.079   5.550
27657WAT     H283214   7.040   3.919   5.517
27658WAT      O83215   2.554   4.506   6.222
27658WAT     H183216   2.492   4.472   6.292
27658WAT     H283217   2.543   4.604   6.212
27659WAT      O83218   5.256   5.659   1.291
27659WAT     H183219   5.288   5.572   1.329
27659WAT     H283220   5.241   5.725   1.365
27660WAT      O83221   6.956   9.542   5.535
27660WAT     H183222   6.915   9.598   5.463
27660WAT     H283223   7.042   9.583   5.564
27661WAT      O83224   2.668   6.289   8.287
27661WAT     H183225   2.616   6.333   8.360
27661WAT     H283226   2.604   6.252   8.219
27662WAT      O83227   7.568   3.410   7.250
27662WAT     H183228   7.557   3.434   7.153
27662WAT     H283229   7.657   3.442   7.282
27663WAT      O83230   8.159   1.093   4.265
27663WAT     H183231   8.181   1.138   4.352
27663WAT     H283232   8.061   1.100   4.247
27664WAT      O83233   8.077   9.294   5.235
27664WAT     H183234   8.013   9.298   5.158
27664WAT     H283235   8.158   9.349   5.214
27665WAT      O83236   9.551   4.942   9.343
27665WAT     H183237   9.560   4.852   9.387
27665WAT     H283238   9.527   5.010   9.411
27666WAT      O83239   1.308   9.789   6.852
27666WAT     H183240   1.354   9.811   6.938
27666WAT     H283241   1.289   9.874   6.801
27667WAT      O83242   0.894   7.261   5.722
27667WAT     H183243   0.915   7.189   5.656
27667WAT     H283244   0.854   7.221   5.804
27668WAT      O83245   0.240   4.854   7.246
27668WAT     H183246   0.193   4.803   7.174
27668WAT     H283247   0.185   4.933   7.272
27669WAT      O83248   0.156   6.897   5.952
27669WAT     H183249   0.214   6.939   6.022
27669WAT     H283250   0.164   6.798   5.957
27670WAT      O83251   1.089   3.989   6.228
27670WAT     H183252   1.030   4.007   6.307
27670WAT     H283253   1.127   4.076   6.195
27671WAT      O83254   4.106   2.561   2.313
27671WAT     H183255   4.028   2.564   2.376
27671WAT     H283256   4.074   2.532   2.222
27672WAT      O83257   1.603   7.971   4.654
27672WAT     H183258   1.595   7.891   4.714
27672WAT     H283259   1.537   7.963   4.580
27673WAT      O83260   2.885   6.614   4.349
27673WAT     H183261   2.934   6.532   4.377
27673WAT     H283262   2.939   6.695   4.373
27674WAT      O83263   1.619   3.825   8.450
27674WAT     H183264   1.662   3.912   8.425
27674WAT     H283265   1.691   3.757   8.470
27675WAT      O83266   4.204   0.374   1.020
27675WAT     H183267   4.125   0.434   1.008
27675WAT     H283268   4.271   0.418   1.080
27676WAT      O83269   9.140   1.772   5.208
27676WAT     H183270   9.091   1.831   5.144
27676WAT     H283271   9.237   1.768   5.183
27677WAT      O83272   6.987   7.463   8.473
27677WAT     H183273   6.893   7.434   8.454
27677WAT     H283274   6.995   7.490   8.569
27678WAT      O83275   9.123   8.164   4.897
27678WAT     H183276   9.179   8.142   4.817
27678WAT     H283277   9.026   8.160   4.871
27679WAT      O83278   7.723   8.139   8.058
27679WAT     H183279   7.742   8.194   7.977
27679WAT     H283280   7.808   8.099   8.092
27680WAT      O83281   0.251   5.699   3.624
27680WAT     H183282   0.276   5.776   3.683
27680WAT     H283283   0.323   5.684   3.557
27681WAT      O83284   6.816   8.668   1.510
27681WAT     H183285   6.731   8.700   1.468
27681WAT     H283286   6.894   8.709   1.463
27682WAT      O83287   4.674   7.286   2.941
27682WAT     H183288   4.673   7.259   2.845
27682WAT     H283289   4.593   7.250   2.987
27683WAT      O83290   2.857   9.360   5.080
27683WAT     H183291   2.822   9.289   5.019
27683WAT     H283292   2.937   9.403   5.038
27684WAT      O83293   6.934   6.380   1.696
27684WAT     H183294   6.868   6.451   1.673
27684WAT     H283295   6.945   6.374   1.795
27685WAT      O83296   8.713   6.215   1.691
27685WAT     H183297   8.808   6.204   1.722
27685WAT     H283298   8.691   6.312   1.684
27686WAT      O83299   7.549   6.896   8.504
27686WAT     H183300   7.632   6.945   8.531
27686WAT     H283301   7.520   6.837   8.579
27687WAT      O83302   5.840   2.176   9.007
27687WAT     H183303   5.801   2.172   8.915
27687WAT     H283304   5.938   2.192   9.002
27688WAT      O83305   4.094   5.037   4.926
27688WAT     H183306   3.996   5.048   4.910
27688WAT     H283307   4.117   4.940   4.921
27689WAT      O83308   5.125   8.932   5.093
27689WAT     H183309   5.166   9.021   5.110
27689WAT     H283310   5.030   8.933   5.124
27690WAT      O83311   5.141   4.832   1.107
27690WAT     H183312   5.198   4.900   1.061
27690WAT     H283313   5.199   4.757   1.140
27691WAT      O83314   2.010   2.413   7.739
27691WAT     H183315   2.035   2.327   7.783
27691WAT     H283316   1.930   2.452   7.784
27692WAT      O83317   6.374   8.717   3.969
27692WAT     H183318   6.342   8.635   4.014
27692WAT     H283319   6.386   8.790   4.037
27693WAT      O83320   5.368   8.792   5.046
27693WAT     H183321   5.279   8.835   5.061
27693WAT     H283322   5.405   8.821   4.957
27694WAT      O83323   9.359   5.950   3.293
27694WAT     H183324   9.399   5.984   3.207
27694WAT     H283325   9.289   6.014   3.324
27695WAT      O83326   5.765   5.064   1.421
27695WAT     H183327   5.748   5.137   1.487
27695WAT     H283328   5.796   4.982   1.469
27696WAT      O83329   4.103   5.187   4.065
27696WAT     H183330   4.031   5.233   4.117
27696WAT     H283331   4.129   5.244   3.987
27697WAT      O83332   5.970   6.303   4.208
27697WAT     H183333   5.908   6.355   4.266
27697WAT     H283334   6.011   6.229   4.262
27698WAT      O83335   7.951   5.921   7.617
27698WAT     H183336   7.962   6.016   7.647
27698WAT     H283337   8.024   5.865   7.657
27699WAT      O83338   9.503   1.217   7.533
27699WAT     H183339   9.546   1.304   7.555
27699WAT     H283340   9.404   1.225   7.543
27700WAT      O83341   4.640   3.832   6.280
27700WAT     H183342   4.612   3.925   6.307
27700WAT     H283343   4.559   3.776   6.266
27701WAT      O83344   3.107   1.012   5.680
27701WAT     H183345   3.021   1.062   5.686
27701WAT     H283346   3.171   1.048   5.748
27702WAT      O83347   0.720   8.960   3.437
27702WAT     H183348   0.628   8.996   3.427
27702WAT     H283349   0.785   9.035   3.448
27703WAT      O83350   2.472   0.730   7.201
27703WAT     H183351   2.383   0.759   7.236
27703WAT     H283352   2.474   0.744   7.102
27704WAT      O83353   2.124   1.857   4.670
27704WAT     H183354   2.152   1.920   4.599
27704WAT     H283355   2.163   1.767   4.653
27705WAT      O83356   8.692   0.160   6.439
27705WAT     H183357   8.695   0.229   6.511
27705WAT     H283358   8.628   0.190   6.368
27706WAT      O83359   5.561   4.369   4.387
27706WAT     H183360   5.519   4.402   4.303
27706WAT     H283361   5.533   4.426   4.464
27707WAT      O83362   9.263   9.026   8.231
27707WAT     H183363   9.172   9.030   8.272
27707WAT     H283364   9.319   9.102   8.265
27708WAT      O83365   6.599   6.692   6.284
27708WAT     H183366   6.670   6.715   6.217
27708WAT     H283367   6.623   6.731   6.373
27709WAT      O83368   9.304   0.752   7.919
27709WAT     H183369   9.351   0.799   7.994
27709WAT     H283370   9.319   0.654   7.927
27710WAT      O83371   2.852   6.892   3.838
27710WAT     H183372   2.766   6.917   3.794
27710WAT     H283373   2.837   6.814   3.898
27711WAT      O83374   7.013   8.340   7.796
27711WAT     H183375   6.932   8.305   7.750
27711WAT     H283376   7.013   8.310   7.892
27712WAT      O83377   2.758   2.044   5.816
27712WAT     H183378   2.746   2.125   5.873
27712WAT     H283379   2.672   1.994   5.810
27713WAT      O83380   5.240   2.132   9.285
27713WAT     H183381   5.276   2.225   9.276
27713WAT     H283382   5.314   2.066   9.276
27714WAT      O83383   6.230   3.389   4.000
27714WAT     H183384   6.210   3.304   3.951
27714WAT     H283385   6.230   3.465   3.936
27715WAT      O83386   2.406   7.519   9.508
27715WAT     H183387   2.349   7.466   9.569
27715WAT     H283388   2.395   7.617   9.527
27716WAT      O83389   5.400   4.740   7.170
27716WAT     H183390   5.469   4.683   7.126
27716WAT     H283391   5.349   4.791   7.100
27717WAT      O83392   8.435   4.018   9.027
27717WAT     H183393   8.489   4.101   9.044
27717WAT     H283394   8.495   3.944   8.998
27718WAT      O83395   6.148   0.951   1.856
27718WAT     H183396   6.189   0.987   1.772
27718WAT     H283397   6.069   1.007   1.880
27719WAT      O83398   4.114   4.888   1.416
27719WAT     H183399   4.023   4.923   1.441
27719WAT     H283400   4.118   4.875   1.317
27720WAT      O83401   3.049   2.236   6.128
27720WAT     H183402   2.982   2.162   6.136
27720WAT     H283403   3.087   2.236   6.036
27721WAT      O83404   8.545   5.171   1.943
27721WAT     H183405   8.506   5.157   1.852
27721WAT     H283406   8.582   5.264   1.949
27722WAT      O83407   0.198   0.630   5.228
27722WAT     H183408   0.127   0.564   5.249
27722WAT     H283409   0.256   0.644   5.309
27723WAT      O83410   0.480   9.020   2.687
27723WAT     H183411   0.445   9.088   2.622
27723WAT     H283412   0.540   8.955   2.640
27724WAT      O83413   4.115   1.899   6.885
27724WAT     H183414   4.179   1.977   6.889
27724WAT     H283415   4.145   1.829   6.950
27725WAT      O83416   5.211   2.419   7.034
27725WAT     H183417   5.155   2.489   7.078
27725WAT     H283418   5.174   2.328   7.054
27726WAT      O83419   9.749   9.570   4.993
27726WAT     H183420   9.844   9.585   4.968
27726WAT     H283421   9.692   9.640   4.949
27727WAT      O83422   3.773   3.548   3.039
27727WAT     H183423   3.819   3.614   2.979
27727WAT     H283424   3.817   3.459   3.031
27728WAT      O83425   5.484   2.973   3.157
27728WAT     H183426   5.413   2.927   3.211
27728WAT     H283427   5.573   2.959   3.201
27729WAT      O83428   0.838   2.869   5.699
27729WAT     H183429   0.776   2.939   5.734
27729WAT     H283430   0.834   2.788   5.758
27730WAT      O83431   6.174   3.542   4.213
27730WAT     H183432   6.212   3.469   4.157
27730WAT     H283433   6.214   3.629   4.186
27731WAT      O83434   8.151   1.974   5.649
27731WAT     H183435   8.175   2.071   5.649
27731WAT     H283436   8.174   1.934   5.561
27732WAT      O83437   7.889   7.195   6.863
27732WAT     H183438   7.810   7.222   6.808
27732WAT     H283439   7.972   7.204   6.808
27733WAT      O83440   5.699   6.960   0.354
27733WAT     H183441   5.762   7.010   0.294
27733WAT     H283442   5.634   7.024   0.394
27734WAT      O83443   8.287   5.632   4.221
27734WAT     H183444   8.215   5.663   4.284
27734WAT     H283445   8.375   5.631   4.269
27735WAT      O83446   4.000   0.665   8.563
27735WAT     H183447   4.016   0.763   8.573
27735WAT     H283448   3.917   0.650   8.508
27736WAT      O83449   3.059   5.669   0.454
27736WAT     H183450   3.114   5.688   0.372
27736WAT     H283451   2.962   5.668   0.429
27737WAT      O83452   7.557   6.340   4.386
27737WAT     H183453   7.651   6.346   4.352
27737WAT     H283454   7.526   6.245   4.382
27738WAT      O83455   0.306   9.091   4.156
27738WAT     H183456   0.291   9.073   4.253
27738WAT     H283457   0.338   9.008   4.111
27739WAT      O83458   8.900   7.183   7.107
27739WAT     H183459   8.948   7.228   7.182
27739WAT     H283460   8.817   7.140   7.142
27740WAT      O83461   3.194   4.793   5.031
27740WAT     H183462   3.188   4.884   4.992
27740WAT     H283463   3.204   4.726   4.957
27741WAT      O83464   3.701   6.925   8.805
27741WAT     H183465   3.606   6.918   8.775
27741WAT     H283466   3.760   6.880   8.737
27742WAT      O83467   8.153   5.333   8.887
27742WAT     H183468   8.244   5.311   8.851
27742WAT     H283469   8.127   5.266   8.956
27743WAT      O83470   3.388   0.637   7.666
27743WAT     H183471   3.322   0.563   7.651
27743WAT     H283472   3.347   0.724   7.640
27744WAT      O83473   8.618   9.006   3.081
27744WAT     H183474   8.653   9.012   2.987
27744WAT     H283475   8.632   8.913   3.115
27745WAT      O83476   0.658   4.776   3.202
27745WAT     H183477   0.740   4.718   3.207
27745WAT     H283478   0.599   4.757   3.280
27746WAT      O83479   6.393   2.704   9.199
27746WAT     H183480   6.428   2.610   9.192
27746WAT     H283481   6.433   2.749   9.279
27747WAT      O83482   7.894   2.709   7.479
27747WAT     H183483   7.843   2.644   7.423
27747WAT     H283484   7.833   2.783   7.508
27748WAT      O83485   8.061   7.131   4.547
27748WAT     H183486   8.082   7.081   4.631
27748WAT     H283487   7.962   7.139   4.537
27749WAT      O83488   4.047   7.663   5.067
27749WAT     H183489   4.069   7.636   4.974
27749WAT     H283490   4.118   7.631   5.129
27750WAT      O83491   2.163   6.346   5.379
27750WAT     H183492   2.066   6.369   5.388
27750WAT     H283493   2.181   6.310   5.287
27751WAT      O83494   4.569   4.915   3.610
27751WAT     H183495   4.613   4.996   3.650
27751WAT     H283496   4.604   4.833   3.655
27752WAT      O83497   7.824   1.105   6.605
27752WAT     H183498   7.919   1.095   6.631
27752WAT     H283499   7.807   1.198   6.573
27753WAT      O83500   0.808   5.605   0.445
27753WAT     H183501   0.901   5.596   0.409
27753WAT     H283502   0.812   5.621   0.543
27754WAT      O83503   7.520   8.776   9.459
27754WAT     H183504   7.587   8.716   9.416
27754WAT     H283505   7.548   8.871   9.449
27755WAT      O83506   7.896   8.279   4.150
27755WAT     H183507   7.928   8.185   4.146
27755WAT     H283508   7.932   8.323   4.233
27756WAT      O83509   0.956   5.383   4.408
27756WAT     H183510   0.892   5.331   4.464
27756WAT     H283511   0.951   5.480   4.432
27757WAT      O83512   0.211   0.221   0.206
27757WAT     H183513   0.142   0.162   0.164
27757WAT     H283514   0.166   0.284   0.270
27758WAT      O83515   1.825   7.052   9.305
27758WAT     H183516   1.735   7.014   9.284
27758WAT     H283517   1.889   6.978   9.326
27759WAT      O83518   5.890   5.401   6.797
27759WAT     H183519   5.936   5.348   6.727
27759WAT     H283520   5.958   5.448   6.853
27760WAT      O83521   2.512   5.648   1.420
27760WAT     H183522   2.448   5.712   1.463
27760WAT     H283523   2.465   5.562   1.401
27761WAT      O83524   5.902   2.438   0.350
27761WAT     H183525   5.850   2.520   0.326
27761WAT     H283526   5.997   2.449   0.320
27762WAT      O83527   5.015   8.156   5.827
27762WAT     H183528   5.050   8.250   5.832
27762WAT     H283529   4.982   8.128   5.917
27763WAT      O83530   3.773   9.795   4.555
27763WAT     H183531   3.867   9.822   4.573
27763WAT     H283532   3.713   9.876   4.559
27764WAT      O83533   4.970   9.815   9.502
27764WAT     H183534   4.996   9.897   9.451
27764WAT     H283535   5.047   9.785   9.558
27765WAT      O83536   2.921   3.003   5.085
27765WAT     H183537   2.865   3.037   5.161
27765WAT     H283538   3.006   2.965   5.121
27766WAT      O83539   2.121   4.382   7.338
27766WAT     H183540   2.171   4.462   7.304
27766WAT     H283541   2.093   4.397   7.433
27767WAT      O83542   8.247   5.796   7.942
27767WAT     H183543   8.260   5.828   8.036
27767WAT     H283544   8.193   5.712   7.943
27768WAT      O83545   4.795   0.805   3.855
27768WAT     H183546   4.887   0.771   3.834
27768WAT     H283547   4.793   0.904   3.844
27769WAT      O83548   5.193   2.771   5.560
27769WAT     H183549   5.234   2.861   5.574
27769WAT     H283550   5.210   2.713   5.639
27770WAT      O83551   1.528   5.182   4.731
27770WAT     H183552   1.590   5.239   4.677
27770WAT     H283553   1.465   5.241   4.782
27771WAT      O83554   8.120   2.995   6.723
27771WAT     H183555   8.165   3.073   6.767
27771WAT     H283556   8.095   3.020   6.630
27772WAT      O83557   7.734   9.177   4.876
27772WAT     H183558   7.728   9.079   4.891
27772WAT     H283559   7.643   9.218   4.877
27773WAT      O83560   8.777   4.204   4.059
27773WAT     H183561   8.708   4.175   4.126
27773WAT     H283562   8.784   4.304   4.060
27774WAT      O83563   2.038   8.743   9.672
27774WAT     H183564   2.118   8.792   9.639
27774WAT     H283565   2.023   8.765   9.768
27775WAT      O83566   3.649   7.000   1.534
27775WAT     H183567   3.694   7.048   1.609
27775WAT     H283568   3.571   7.054   1.503
27776WAT      O83569   5.966   1.009   8.720
27776WAT     H183570   5.975   0.926   8.775
27776WAT     H283571   6.054   1.056   8.715
27777WAT      O83572   4.329   1.088   2.181
27777WAT     H183573   4.240   1.046   2.167
27777WAT     H283574   4.398   1.017   2.195
27778WAT      O83575   2.935   6.887   9.476
27778WAT     H183576   3.020   6.839   9.496
27778WAT     H283577   2.873   6.880   9.554
27779WAT      O83578   5.243   8.823   0.319
27779WAT     H183579   5.319   8.830   0.384
27779WAT     H283580   5.264   8.752   0.251
27780WAT      O83581   9.029   8.615   7.452
27780WAT     H183582   9.041   8.517   7.441
27780WAT     H283583   9.057   8.643   7.543
27781WAT      O83584   9.885   9.264   6.896
27781WAT     H183585   9.899   9.168   6.871
27781WAT     H283586   9.865   9.317   6.813
27782WAT      O83587   9.792   9.459   1.553
27782WAT     H183588   9.870   9.488   1.609
27782WAT     H283589   9.714   9.519   1.569
27783WAT      O83590   4.939   0.888   1.128
27783WAT     H183591   4.878   0.813   1.150
27783WAT     H283592   4.886   0.969   1.105
27784WAT      O83593   3.534   4.810   0.434
27784WAT     H183594   3.491   4.721   0.448
27784WAT     H283595   3.491   4.877   0.494
27785WAT      O83596   5.226   2.007   7.642
27785WAT     H183597   5.167   2.089   7.640
27785WAT     H283598   5.219   1.960   7.555
27786WAT      O83599   4.288   1.617   1.570
27786WAT     H183600   4.332   1.654   1.652
27786WAT     H283601   4.235   1.689   1.525
27787WAT      O83602   0.894   4.939   5.248
27787WAT     H183603   0.967   4.884   5.210
27787WAT     H283604   0.834   4.881   5.304
27788WAT      O83605   6.627   3.418   1.708
27788WAT     H183606   6.692   3.468   1.766
27788WAT     H283607   6.677   3.370   1.636
27789WAT      O83608   5.680   2.481   6.684
27789WAT     H183609   5.593   2.530   6.686
27789WAT     H283610   5.701   2.455   6.590
27790WAT      O83611   6.794   0.043   9.009
27790WAT     H183612   6.764   0.004   9.096
27790WAT     H283613   6.820   0.139   9.022
27791WAT      O83614   7.028   4.228   1.406
27791WAT     H183615   7.118   4.271   1.414
27791WAT     H283616   7.015   4.165   1.483
27792WAT      O83617   0.557   4.248   6.366
27792WAT     H183618   0.484   4.251   6.297
27792WAT     H283619   0.522   4.282   6.453
27793WAT      O83620   5.168   9.158   0.098
27793WAT     H183621   5.220   9.171   0.182
27793WAT     H283622   5.105   9.081   0.109
27794WAT      O83623   4.482   1.128   8.367
27794WAT     H183624   4.571   1.127   8.414
27794WAT     H283625   4.422   1.194   8.411
27795WAT      O83626   5.463   5.096   8.384
27795WAT     H183627   5.546   5.147   8.363
27795WAT     H283628   5.423   5.062   8.299
27796WAT      O83629   4.764   3.953   2.255
27796WAT     H183630   4.725   3.866   2.284
27796WAT     H283631   4.862   3.955   2.276
27797WAT      O83632   8.950   9.036   3.612
27797WAT     H183633   8.926   9.118   3.559
27797WAT     H283634   8.951   8.956   3.551
27798WAT      O83635   3.029   6.522   5.009
27798WAT     H183636   3.050   6.432   5.046
27798WAT     H283637   3.112   6.578   5.007
27799WAT      O83638   4.853   9.640   3.652
27799WAT     H183639   4.873   9.729   3.692
27799WAT     H283640   4.756   9.636   3.626
27800WAT      O83641   5.266   6.698   8.788
27800WAT     H183642   5.213   6.619   8.758
27800WAT     H283643   5.228   6.781   8.746
27801WAT      O83644   8.950   3.610   9.229
27801WAT     H183645   9.036   3.624   9.179
27801WAT     H283646   8.964   3.633   9.326
27802WAT      O83647   7.360   1.465   8.395
27802WAT     H183648   7.390   1.559   8.413
27802WAT     H283649   7.260   1.462   8.389
27803WAT      O83650   4.077   3.161   3.575
27803WAT     H183651   4.090   3.089   3.506
27803WAT     H283652   4.055   3.247   3.528
27804WAT      O83653   5.922   3.490   7.481
27804WAT     H183654   5.898   3.585   7.462
27804WAT     H283655   5.928   3.477   7.580
27805WAT      O83656   5.644   5.441   2.931
27805WAT     H183657   5.695   5.525   2.951
27805WAT     H283658   5.561   5.438   2.987
27806WAT      O83659   0.362   3.838   9.017
27806WAT     H183660   0.354   3.933   9.044
27806WAT     H283661   0.272   3.801   8.996
27807WAT      O83662   5.055   3.991   0.927
27807WAT     H183663   4.999   4.001   0.844
27807WAT     H283664   5.137   3.938   0.906
27808WAT      O83665   1.762   7.678   1.361
27808WAT     H183666   1.728   7.771   1.370
27808WAT     H283667   1.769   7.654   1.264
27809WAT      O83668   2.376   8.280   7.455
27809WAT     H183669   2.406   8.215   7.386
27809WAT     H283670   2.429   8.268   7.539
27810WAT      O83671   5.125   4.077   4.079
27810WAT     H183672   5.135   4.174   4.103
27810WAT     H283673   5.046   4.067   4.018
27811WAT      O83674   6.948   6.384   7.571
27811WAT     H183675   6.900   6.469   7.593
27811WAT     H283676   6.996   6.351   7.652
27812WAT      O83677   9.414   1.218   6.792
27812WAT     H183678   9.414   1.286   6.865
27812WAT     H283679   9.473   1.249   6.717
27813WAT      O83680   8.184   3.840   2.096
27813WAT     H183681   8.195   3.882   2.006
27813WAT     H283682   8.163   3.911   2.164
27814WAT      O83683   5.418   5.545   0.295
27814WAT     H183684   5.455   5.469   0.349
27814WAT     H283685   5.482   5.569   0.223
27815WAT      O83686   4.957   5.923   3.694
27815WAT     H183687   4.870   5.875   3.684
27815WAT     H283688   4.981   5.927   3.791
27816WAT      O83689   0.096   4.794   7.884
27816WAT     H183690   0.103   4.697   7.908
27816WAT     H283691   0.175   4.843   7.921
27817WAT      O83692   3.931   8.675   7.548
27817WAT     H183693   3.970   8.584   7.559
27817WAT     H283694   3.842   8.679   7.594
27818WAT      O83695   2.957   1.863   4.677
27818WAT     H183696   2.956   1.763   4.666
27818WAT     H283697   2.933   1.886   4.771
27819WAT      O83698   8.152   0.483   3.821
27819WAT     H183699   8.096   0.453   3.744
27819WAT     H283700   8.132   0.579   3.841
27820WAT      O83701   3.339   2.215   8.092
27820WAT     H183702   3.308   2.287   8.154
27820WAT     H283703   3.302   2.127   8.122
27821WAT      O83704   4.048   8.677   8.819
27821WAT     H183705   3.958   8.656   8.782
27821WAT     H283706   4.102   8.593   8.826
27822WAT      O83707   5.058   3.159   2.427
27822WAT     H183708   5.095   3.113   2.508
27822WAT     H283709   5.052   3.094   2.351
27823WAT      O83710   4.873   9.443   9.258
27823WAT     H183711   4.833   9.446   9.167
27823WAT     H283712   4.964   9.402   9.253
27824WAT      O83713   4.037   3.979   1.262
27824WAT     H183714   4.034   3.980   1.163
27824WAT     H283715   4.132   3.986   1.293
27825WAT      O83716   3.939   9.780   9.394
27825WAT     H183717   4.000   9.707   9.425
27825WAT     H283718   3.869   9.742   9.334
27826WAT      O83719   5.313   3.257   3.987
27826WAT     H183720   5.314   3.345   3.939
27826WAT     H283721   5.246   3.196   3.944
27827WAT      O83722   3.677   8.281   5.557
27827WAT     H183723   3.763   8.290   5.507
27827WAT     H283724   3.658   8.365   5.607
27828WAT      O83725   2.743   0.400   7.163
27828WAT     H183726   2.721   0.461   7.087
27828WAT     H283727   2.811   0.444   7.223
27829WAT      O83728   3.287   3.842   4.929
27829WAT     H183729   3.221   3.767   4.934
27829WAT     H283730   3.319   3.865   5.020
27830WAT      O83731   4.261   7.166   4.575
27830WAT     H183732   4.213   7.079   4.587
27830WAT     H283733   4.252   7.221   4.658
27831WAT      O83734   7.424   4.148   8.859
27831WAT     H183735   7.424   4.247   8.873
27831WAT     H283736   7.333   4.111   8.880
27832WAT      O83737   8.644   2.004   7.705
27832WAT     H183738   8.548   2.015   7.681
27832WAT     H283739   8.687   2.094   7.711
27833WAT      O83740   9.723   4.018   0.816
27833WAT     H183741   9.818   3.987   0.814
27833WAT     H283742   9.719   4.115   0.792
27834WAT      O83743   0.523   1.928   1.890
27834WAT     H183744   0.518   1.847   1.832
27834WAT     H283745   0.564   2.003   1.838
27835WAT      O83746   3.166   3.955   5.731
27835WAT     H183747   3.186   3.871   5.782
27835WAT     H283748   3.159   3.934   5.634
27836WAT      O83749   1.322   5.736   5.542
27836WAT     H183750   1.398   5.700   5.488
27836WAT     H283751   1.344   5.829   5.571
27837WAT      O83752   4.369   0.381   1.299
27837WAT     H183753   4.441   0.419   1.358
27837WAT     H283754   4.298   0.340   1.356
27838WAT      O83755   1.369   2.679   8.464
27838WAT     H183756   1.380   2.652   8.560
27838WAT     H283757   1.387   2.777   8.455
27839WAT      O83758   5.264   8.786   2.517
27839WAT     H183759   5.183   8.843   2.501
27839WAT     H283760   5.342   8.845   2.536
27840WAT      O83761   2.464   9.415   2.859
27840WAT     H183762   2.500   9.509   2.859
27840WAT     H283763   2.414   9.399   2.774
27841WAT      O83764   1.349   5.110   6.945
27841WAT     H183765   1.265   5.082   6.898
27841WAT     H283766   1.325   5.173   7.019
27842WAT      O83767   8.954   3.101   6.366
27842WAT     H183768   8.964   3.040   6.444
27842WAT     H283769   9.015   3.180   6.378
27843WAT      O83770   5.911   2.503   5.956
27843WAT     H183771   5.930   2.495   6.054
27843WAT     H283772   5.840   2.572   5.941
27844WAT      O83773   2.254   2.040   2.754
27844WAT     H183774   2.322   2.109   2.776
27844WAT     H283775   2.238   1.982   2.835
27845WAT      O83776   3.076   4.164   8.605
27845WAT     H183777   3.056   4.090   8.540
27845WAT     H283778   3.081   4.251   8.557
27846WAT      O83779   8.217   6.381   2.332
27846WAT     H183780   8.256   6.451   2.272
27846WAT     H283781   8.118   6.393   2.337
27847WAT      O83782   6.958   4.848   7.747
27847WAT     H183783   7.003   4.775   7.798
27847WAT     H283784   6.885   4.810   7.691
27848WAT      O83785   4.924   7.315   6.267
27848WAT     H183786   4.918   7.255   6.346
27848WAT     H283787   4.881   7.403   6.288
27849WAT      O83788   8.656   2.177   5.414
27849WAT     H183789   8.735   2.221   5.456
27849WAT     H283790   8.589   2.156   5.484
27850WAT      O83791   8.945   9.779   3.934
27850WAT     H183792   8.941   9.858   3.874
27850WAT     H283793   8.903   9.700   3.888
27851WAT      O83794   7.020   6.233   7.048
27851WAT     H183795   7.090   6.162   7.050
27851WAT     H283796   7.024   6.281   6.960
27852WAT      O83797   5.382   1.193   7.404
27852WAT     H183798   5.370   1.100   7.438
27852WAT     H283799   5.360   1.258   7.477
27853WAT      O83800   9.108   1.711   8.070
27853WAT     H183801   9.132   1.679   7.979
27853WAT     H283802   9.176   1.777   8.102
27854WAT      O83803   2.352   6.067   5.496
27854WAT     H183804   2.306   6.131   5.558
27854WAT     H283805   2.425   6.020   5.546
27855WAT      O83806   4.186   2.777   1.941
27855WAT     H183807   4.172   2.876   1.942
27855WAT     H283808   4.240   2.750   2.021
27856WAT      O83809   3.377   3.990   4.189
27856WAT     H183810   3.394   4.000   4.091
27856WAT     H283811   3.280   3.973   4.204
27857WAT      O83812   1.233   0.055   4.738
27857WAT     H183813   1.210   0.041   4.641
27857WAT     H283814   1.150   0.081   4.788
27858WAT      O83815   3.802   9.105   3.681
27858WAT     H183816   3.708   9.126   3.654
27858WAT     H283817   3.812   9.120   3.780
27859WAT      O83818   9.492   5.514   7.207
27859WAT     H183819   9.470   5.494   7.302
27859WAT     H283820   9.583   5.478   7.185
27860WAT      O83821   4.909   5.251   5.605
27860WAT     H183822   4.933   5.159   5.573
27860WAT     H283823   4.825   5.280   5.561
27861WAT      O83824   8.920   3.557   5.388
27861WAT     H183825   8.846   3.495   5.412
27861WAT     H283826   9.006   3.521   5.424
27862WAT      O83827   6.509   0.716   7.177
27862WAT     H183828   6.536   0.635   7.229
27862WAT     H283829   6.409   0.721   7.173
27863WAT      O83830   2.273   1.086   6.468
27863WAT     H183831   2.271   1.174   6.420
27863WAT     H283832   2.368   1.056   6.478
27864WAT      O83833   2.736   4.714   6.547
27864WAT     H183834   2.645   4.730   6.508
27864WAT     H283835   2.782   4.802   6.561
27865WAT      O83836   9.808   5.294   0.135
27865WAT     H183837   9.840   5.208   0.174
27865WAT     H283838   9.877   5.365   0.150
27866WAT      O83839   5.300   6.124   6.416
27866WAT     H183840   5.284   6.109   6.514
27866WAT     H283841   5.336   6.216   6.402
27867WAT      O83842   6.346   7.200   6.064
27867WAT     H183843   6.379   7.133   6.131
27867WAT     H283844   6.247   7.190   6.052
27868WAT      O83845   1.053   2.227   6.320
27868WAT     H183846   0.985   2.252   6.388
27868WAT     H283847   1.140   2.273   6.341
27869WAT      O83848   4.640   6.429   6.024
27869WAT     H183849   4.693   6.504   6.064
27869WAT     H283850   4.651   6.347   6.080
27870WAT      O83851   8.431   8.731   0.104
27870WAT     H183852   8.483   8.783   0.036
27870WAT     H283853   8.333   8.749   0.091
27871WAT      O83854   6.235   4.216   3.638
27871WAT     H183855   6.334   4.211   3.646
27871WAT     H283856   6.207   4.312   3.628
27872WAT      O83857   0.666   0.920   3.468
27872WAT     H183858   0.567   0.937   3.459
27872WAT     H283859   0.712   1.007   3.484
27873WAT      O83860   4.797   6.408   9.384
27873WAT     H183861   4.786   6.455   9.296
27873WAT     H283862   4.764   6.314   9.375
27874WAT      O83863   6.096   0.357   7.020
27874WAT     H183864   6.082   0.409   7.104
27874WAT     H283865   6.009   0.350   6.970
27875WAT      O83866   8.011   8.955   9.111
27875WAT     H183867   8.049   9.047   9.105
27875WAT     H283868   7.912   8.960   9.124
27876WAT      O83869   5.978   9.638   9.002
27876WAT     H183870   6.013   9.546   9.016
27876WAT     H283871   5.880   9.635   8.985
27877WAT      O83872   2.064   2.005   9.727
27877WAT     H183873   2.046   1.913   9.762
27877WAT     H283874   2.007   2.021   9.646
27878WAT      O83875   1.350   5.836   4.172
27878WAT     H183876   1.402   5.805   4.251
27878WAT     H283877   1.360   5.770   4.097
27879WAT      O83878   1.595   9.165   4.590
27879WAT     H183879   1.610   9.070   4.617
27879WAT     H283880   1.514   9.201   4.636
27880WAT      O83881   3.871   2.508   1.684
27880WAT     H183882   3.903   2.465   1.768
27880WAT     H283883   3.822   2.441   1.628
27881WAT      O83884   5.109   3.961   3.118
27881WAT     H183885   5.200   3.920   3.123
27881WAT     H283886   5.069   3.964   3.209
27882WAT      O83887   7.627   1.910   9.187
27882WAT     H183888   7.624   1.911   9.087
27882WAT     H283889   7.570   1.984   9.223
27883WAT      O83890   0.113   3.149   8.357
27883WAT     H183891   0.019   3.181   8.371
27883WAT     H283892   0.164   3.160   8.442
27884WAT      O83893   2.141   6.134   9.496
27884WAT     H183894   2.213   6.203   9.506
27884WAT     H283895   2.077   6.141   9.572
27885WAT      O83896   8.919   4.154   5.547
27885WAT     H183897   8.948   4.100   5.626
27885WAT     H283898   8.954   4.113   5.463
27886WAT      O83899   2.241   0.654   2.179
27886WAT     H183900   2.334   0.679   2.204
27886WAT     H283901   2.189   0.633   2.261
27887WAT      O83902   5.820   0.053   0.751
27887WAT     H183903   5.912   0.016   0.746
27887WAT     H283904   5.820   0.133   0.811
27888WAT      O83905   9.020   1.733   1.075
27888WAT     H183906   8.950   1.732   1.147
27888WAT     H283907   9.091   1.800   1.098
27889WAT      O83908   3.072   9.431   9.506
27889WAT     H183909   3.059   9.452   9.603
27889WAT     H283910   3.150   9.482   9.470
27890WAT      O83911   3.319   8.926   1.803
27890WAT     H183912   3.318   8.948   1.900
27890WAT     H283913   3.370   8.996   1.753
27891WAT      O83914   8.276   7.792   1.740
27891WAT     H183915   8.189   7.758   1.775
27891WAT     H283916   8.289   7.886   1.770
27892WAT      O83917   1.254   9.601   7.459
27892WAT     H183918   1.192   9.533   7.497
27892WAT     H283919   1.205   9.687   7.445
27893WAT      O83920   8.930   6.695   1.267
27893WAT     H183921   8.896   6.717   1.176
27893WAT     H283922   8.941   6.779   1.320
27894WAT      O83923   9.698   3.089   9.646
27894WAT     H183924   9.685   3.099   9.548
27894WAT     H283925   9.673   3.175   9.692
27895WAT      O83926   8.834   2.627   5.671
27895WAT     H183927   8.919   2.580   5.693
27895WAT     H283928   8.852   2.699   5.604
27896WAT      O83929   0.025   2.189   0.416
27896WAT     H183930   0.019   2.175   0.317
27896WAT     H283931  -0.065   2.213   0.452
27897WAT      O83932   7.246   9.739   0.880
27897WAT     H183933   7.269   9.642   0.870
27897WAT     H283934   7.146   9.749   0.883
27898WAT      O83935   2.466   7.609   0.693
27898WAT     H183936   2.460   7.706   0.670
27898WAT     H283937   2.418   7.592   0.780
27899WAT      O83938   0.640   9.044   6.353
27899WAT     H183939   0.656   9.035   6.451
27899WAT     H283940   0.631   9.141   6.330
27900WAT      O83941   0.554   9.212   7.170
27900WAT     H183942   0.616   9.284   7.138
27900WAT     H283943   0.471   9.253   7.206
27901WAT      O83944   7.113   7.910   3.285
27901WAT     H183945   7.093   7.984   3.221
27901WAT     H283946   7.157   7.947   3.367
27902WAT      O83947   5.576   0.148   8.133
27902WAT     H183948   5.576   0.087   8.054
27902WAT     H283949   5.532   0.235   8.109
27903WAT      O83950   8.314   6.529   2.124
27903WAT     H183951   8.351   6.494   2.037
27903WAT     H283952   8.235   6.588   2.105
27904WAT      O83953   0.728   8.970   5.641
27904WAT     H183954   0.735   9.066   5.614
27904WAT     H283955   0.650   8.958   5.703
27905WAT      O83956   3.512   9.472   9.527
27905WAT     H183957   3.503   9.440   9.433
27905WAT     H283958   3.495   9.395   9.590
27906WAT      O83959   8.754   6.984   0.040
27906WAT     H183960   8.820   6.966   0.114
27906WAT     H283961   8.669   7.020   0.079
27907WAT      O83962   5.810   8.730   0.668
27907WAT     H183963   5.734   8.794   0.674
27907WAT     H283964   5.868   8.755   0.590
27908WAT      O83965   5.518   8.316   9.635
27908WAT     H183966   5.444   8.383   9.644
27908WAT     H283967   5.572   8.338   9.554
27909WAT      O83968   8.475   8.613   7.338
27909WAT     H183969   8.435   8.705   7.334
27909WAT     H283970   8.419   8.555   7.396
27910WAT      O83971   7.442   3.704   0.738
27910WAT     H183972   7.485   3.760   0.667
27910WAT     H283973   7.349   3.680   0.709
27911WAT      O83974   9.074   5.420   0.607
27911WAT     H183975   9.040   5.347   0.547
27911WAT     H283976   9.000   5.451   0.666
27912WAT      O83977   3.189   8.811   6.981
27912WAT     H183978   3.122   8.737   6.985
27912WAT     H283979   3.175   8.872   7.060
27913WAT      O83980   0.272   0.108   8.929
27913WAT     H183981   0.336   0.184   8.924
27913WAT     H283982   0.285   0.059   9.015
27914WAT      O83983   4.770   2.644   0.525
27914WAT     H183984   4.826   2.689   0.594
27914WAT     H283985   4.829   2.608   0.452
27915WAT      O83986   5.838   7.530   1.735
27915WAT     H183987   5.880   7.536   1.645
27915WAT     H283988   5.821   7.434   1.758
27916WAT      O83989   2.937   1.227   7.959
27916WAT     H183990   2.906   1.152   8.018
27916WAT     H283991   2.913   1.314   8.001
27917WAT      O83992   6.906   7.288   0.887
27917WAT     H183993   6.933   7.193   0.901
27917WAT     H283994   6.902   7.334   0.975
27918WAT      O83995   9.175   4.078   1.295
27918WAT     H183996   9.239   4.020   1.347
27918WAT     H283997   9.225   4.126   1.223
27919WAT      O83998   7.579   4.848   0.957
27919WAT     H183999   7.505   4.797   1.002
27919WAT     H284000   7.552   4.872   0.864
27920WAT      O84001   4.971   4.403   2.655
27920WAT     H184002   4.924   4.491   2.644
27920WAT     H284003   5.045   4.397   2.589
27921WAT      O84004   6.040   5.556   1.776
27921WAT     H184005   6.058   5.545   1.678
27921WAT     H284006   6.007   5.648   1.793
27922WAT      O84007   3.674   8.904   0.164
27922WAT     H184008   3.763   8.948   0.152
27922WAT     H284009   3.634   8.933   0.251
27923WAT      O84010   3.526   2.175   6.693
27923WAT     H184011   3.603   2.160   6.756
27923WAT     H284012   3.521   2.098   6.629
27924WAT      O84013   5.720   4.865   7.010
27924WAT     H184014   5.747   4.940   6.950
27924WAT     H284015   5.741   4.778   6.966
27925WAT      O84016   5.072   9.042   2.891
27925WAT     H184017   5.167   9.073   2.893
27925WAT     H284018   5.011   9.120   2.894
27926WAT      O84019  -0.002   7.052   5.777
27926WAT     H184020   0.057   7.095   5.708
27926WAT     H284021   0.054   6.999   5.841
27927WAT      O84022   9.150   3.295   3.309
27927WAT     H184023   9.239   3.251   3.296
27927WAT     H284024   9.078   3.225   3.311
27928WAT      O84025   1.285   0.105   3.512
27928WAT     H184026   1.228   0.124   3.592
27928WAT     H284027   1.354   0.177   3.503
27929WAT      O84028   3.393   1.329   2.752
27929WAT     H184029   3.467   1.261   2.761
27929WAT     H284030   3.383   1.378   2.838
27930WAT      O84031   2.005   1.515   5.251
27930WAT     H184032   1.957   1.428   5.238
27930WAT     H284033   2.103   1.500   5.240
27931WAT      O84034   3.261   4.393   8.064
27931WAT     H184035   3.279   4.438   8.151
27931WAT     H284036   3.239   4.297   8.081
27932WAT      O84037   3.237   0.170   8.359
27932WAT     H184038   3.274   0.130   8.443
27932WAT     H284039   3.191   0.098   8.306
27933WAT      O84040   3.182   6.660   9.822
27933WAT     H184041   3.236   6.701   9.895
27933WAT     H284042   3.164   6.564   9.845
27934WAT      O84043   7.240   1.884   7.552
27934WAT     H184044   7.287   1.887   7.464
27934WAT     H284045   7.149   1.924   7.542
27935WAT      O84046   4.209   0.362   2.917
27935WAT     H184047   4.111   0.359   2.898
27935WAT     H284048   4.258   0.383   2.833
27936WAT      O84049   3.939   0.341   8.844
27936WAT     H184050   3.981   0.269   8.789
27936WAT     H284051   3.854   0.371   8.801
27937WAT      O84052   0.971   5.340   8.443
27937WAT     H184053   0.915   5.398   8.502
27937WAT     H284054   0.912   5.272   8.398
27938WAT      O84055   7.433   1.747   2.624
27938WAT     H184056   7.381   1.690   2.688
27938WAT     H284057   7.372   1.815   2.583
27939WAT      O84058   5.342   7.796   7.491
27939WAT     H184059   5.428   7.781   7.539
27939WAT     H284060   5.291   7.870   7.535
27940WAT      O84061   1.873   2.714   6.551
27940WAT     H184062   1.949   2.773   6.579
27940WAT     H284063   1.854   2.730   6.454
27941WAT      O84064   9.721   6.542   2.046
27941WAT     H184065   9.708   6.641   2.049
27941WAT     H284066   9.707   6.509   1.952
27942WAT      O84067   6.408   6.734   2.758
27942WAT     H184068   6.477   6.741   2.686
27942WAT     H284069   6.428   6.655   2.816
27943WAT      O84070   9.117   1.177   7.894
27943WAT     H184071   9.186   1.188   7.965
27943WAT     H284072   9.146   1.106   7.830
27944WAT      O84073   8.362   8.821   3.627
27944WAT     H184074   8.407   8.809   3.538
27944WAT     H284075   8.362   8.735   3.677
27945WAT      O84076   8.849   6.384   9.733
27945WAT     H184077   8.793   6.353   9.810
27945WAT     H284078   8.807   6.465   9.692
27946WAT      O84079   9.506   4.178   2.260
27946WAT     H184080   9.452   4.263   2.264
27946WAT     H284081   9.573   4.186   2.186
27947WAT      O84082   6.950   4.275   7.234
27947WAT     H184083   6.979   4.360   7.278
27947WAT     H284084   6.879   4.232   7.290
27948WAT      O84085   5.660   8.927   4.411
27948WAT     H184086   5.716   9.009   4.409
27948WAT     H284087   5.720   8.846   4.407
27949WAT      O84088   7.994   3.601   7.232
27949WAT     H184089   8.006   3.625   7.328
27949WAT     H284090   8.084   3.589   7.189
27950WAT      O84091   2.002   0.973   2.554
27950WAT     H184092   1.987   0.941   2.461
27950WAT     H284093   2.087   0.934   2.589
27951WAT      O84094   7.153   0.126   8.854
27951WAT     H184095   7.167   0.122   8.755
27951WAT     H284096   7.153   0.034   8.892
27952WAT      O84097   0.041   0.213   4.056
27952WAT     H184098   0.061   0.274   4.133
27952WAT     H284099   0.113   0.222   3.988
27953WAT      O84100   1.751   0.308   8.564
27953WAT     H184101   1.716   0.398   8.590
27953WAT     H284102   1.729   0.290   8.469
27954WAT      O84103   7.744   3.050   8.413
27954WAT     H184104   7.789   3.113   8.351
27954WAT     H284105   7.760   3.079   8.508
27955WAT      O84106   6.081   4.652   3.153
27955WAT     H184107   6.091   4.694   3.063
27955WAT     H284108   6.019   4.707   3.209
27956WAT      O84109   5.981   5.089   8.442
27956WAT     H184110   5.955   5.066   8.348
27956WAT     H284111   6.081   5.096   8.447
27957WAT      O84112   8.196   0.280   9.370
27957WAT     H184113   8.126   0.229   9.420
27957WAT     H284114   8.226   0.358   9.426
27958WAT      O84115   9.471   0.863   1.113
27958WAT     H184116   9.410   0.920   1.168
27958WAT     H284117   9.425   0.777   1.090
27959WAT      O84118   7.613   0.233   3.932
27959WAT     H184119   7.621   0.300   3.858
27959WAT     H284120   7.682   0.162   3.921
27960WAT      O84121   5.929   6.451   2.182
27960WAT     H184122   5.832   6.438   2.204
27960WAT     H284123   5.973   6.362   2.174
27961WAT      O84124   8.017   7.329   3.258
27961WAT     H184125   7.949   7.360   3.324
27961WAT     H284126   8.012   7.386   3.175
27962WAT      O84127   7.849   6.569   2.571
27962WAT     H184128   7.943   6.575   2.603
27962WAT     H284129   7.789   6.619   2.633
27963WAT      O84130   6.806   3.332   2.024
27963WAT     H184131   6.897   3.331   2.065
27963WAT     H284132   6.777   3.426   2.008
27964WAT      O84133   4.528   2.590   4.915
27964WAT     H184134   4.529   2.581   4.815
27964WAT     H284135   4.492   2.506   4.956
27965WAT      O84136   0.017   8.660   8.742
27965WAT     H184137   0.052   8.752   8.761
27965WAT     H284138   0.079   8.613   8.679
27966WAT      O84139   8.096   1.306   5.952
27966WAT     H184140   8.025   1.241   5.979
27966WAT     H284141   8.153   1.266   5.880
27967WAT      O84142   1.740   4.839   7.012
27967WAT     H184143   1.730   4.830   6.913
27967WAT     H284144   1.669   4.899   7.048
27968WAT      O84145   4.595   1.229   6.385
27968WAT     H184146   4.692   1.209   6.373
27968WAT     H284147   4.580   1.328   6.375
27969WAT      O84148   4.820   9.648   6.741
27969WAT     H184149   4.852   9.579   6.677
27969WAT     H284150   4.763   9.605   6.811
27970WAT      O84151   4.863   4.973   6.228
27970WAT     H184152   4.804   4.907   6.181
27970WAT     H284153   4.958   4.959   6.200
27971WAT      O84154   3.993   8.607   0.412
27971WAT     H184155   3.930   8.531   0.427
27971WAT     H284156   3.979   8.644   0.320
27972WAT      O84157   8.614   2.869   1.329
27972WAT     H184158   8.546   2.805   1.294
27972WAT     H284159   8.568   2.940   1.382
27973WAT      O84160   2.471   0.597   9.097
27973WAT     H184161   2.377   0.612   9.127
27973WAT     H284162   2.531   0.587   9.176
27974WAT      O84163   4.412   0.219   6.240
27974WAT     H184164   4.437   0.202   6.335
27974WAT     H284165   4.319   0.188   6.224
27975WAT      O84166   5.267   4.261   7.940
27975WAT     H184167   5.288   4.305   8.028
27975WAT     H284168   5.233   4.168   7.957
27976WAT      O84169   7.847   6.281   9.622
27976WAT     H184170   7.779   6.214   9.590
27976WAT     H284171   7.863   6.349   9.551
27977WAT      O84172   5.128   0.992   5.980
27977WAT     H184173   5.108   1.082   6.020
27977WAT     H284174   5.059   0.972   5.910
27978WAT      O84175   4.342   1.766   4.679
27978WAT     H184176   4.285   1.841   4.645
27978WAT     H284177   4.284   1.694   4.717
27979WAT      O84178   6.792   2.598   4.081
27979WAT     H184179   6.774   2.615   3.984
27979WAT     H284180   6.788   2.685   4.131
27980WAT      O84181   5.100   5.630   7.350
27980WAT     H184182   5.049   5.631   7.436
27980WAT     H284183   5.039   5.656   7.275
27981WAT      O84184   9.247   0.649   8.428
27981WAT     H184185   9.311   0.601   8.488
27981WAT     H284186   9.155   0.612   8.441
27982WAT      O84187   1.066   7.280   4.447
27982WAT     H184188   1.121   7.303   4.367
27982WAT     H284189   1.034   7.365   4.490
27983WAT      O84190   1.912   6.693   2.419
27983WAT     H184191   1.872   6.769   2.366
27983WAT     H284192   2.010   6.687   2.399
27984WAT      O84193   1.375   8.823   5.726
27984WAT     H184194   1.340   8.819   5.633
27984WAT     H284195   1.467   8.784   5.730
27985WAT      O84196   8.074   4.357   4.778
27985WAT     H184197   8.010   4.304   4.723
27985WAT     H284198   8.063   4.332   4.875
27986WAT      O84199   2.857   2.813   3.466
27986WAT     H184200   2.821   2.847   3.553
27986WAT     H284201   2.944   2.766   3.482
27987WAT      O84202   3.599   7.744   8.913
27987WAT     H184203   3.630   7.782   8.826
27987WAT     H284204   3.513   7.788   8.939
27988WAT      O84205   7.190   5.089   9.072
27988WAT     H184206   7.202   5.041   9.159
27988WAT     H284207   7.262   5.157   9.061
27989WAT      O84208   5.012   0.394   8.772
27989WAT     H184209   4.944   0.466   8.760
27989WAT     H284210   5.070   0.416   8.851
27990WAT      O84211   2.915   2.470   8.356
27990WAT     H184212   2.834   2.523   8.384
27990WAT     H284213   2.942   2.499   8.264
27991WAT      O84214   0.392   6.677   7.605
27991WAT     H184215   0.344   6.758   7.570
27991WAT     H284216   0.488   6.680   7.576
27992WAT      O84217   5.360   6.703   1.188
27992WAT     H184218   5.400   6.635   1.126
27992WAT     H284219   5.260   6.704   1.176
27993WAT      O84220   4.654   0.451   7.559
27993WAT     H184221   4.732   0.496   7.603
27993WAT     H284222   4.571   0.503   7.575
27994WAT      O84223   9.467   4.082   4.360
27994WAT     H184224   9.478   4.181   4.372
27994WAT     H284225   9.557   4.038   4.364
27995WAT      O84226   4.421   1.482   6.391
27995WAT     H184227   4.386   1.441   6.475
27995WAT     H284228   4.470   1.566   6.413
27996WAT      O84229   6.954   7.045   1.190
27996WAT     H184230   6.856   7.031   1.204
27996WAT     H284231   6.992   7.095   1.268
27997WAT      O84232   9.633   7.320   9.517
27997WAT     H184233   9.656   7.247   9.452
27997WAT     H284234   9.712   7.381   9.527
27998WAT      O84235   9.684   9.268   1.753
27998WAT     H184236   9.675   9.217   1.667
27998WAT     H284237   9.612   9.337   1.758
27999WAT      O84238   9.321   3.674   2.833
27999WAT     H184239   9.282   3.762   2.860
27999WAT     H284240   9.256   3.625   2.775
28000WAT      O84241   3.182   8.391   9.792
28000WAT     H184242   3.137   8.322   9.735
28000WAT     H284243   3.185   8.478   9.743
28001WAT      O84244   8.846   3.167   6.717
28001WAT     H184245   8.903   3.195   6.794
28001WAT     H284246   8.889   3.196   6.632
28002WAT      O84247   9.010   6.771   4.653
28002WAT     H184248   9.018   6.869   4.635
28002WAT     H284249   9.025   6.752   4.750
28003WAT      O84250   3.750   6.556   2.740
28003WAT     H184251   3.797   6.496   2.676
28003WAT     H284252   3.817   6.605   2.796
28004WAT      O84253   9.476   9.642   5.970
28004WAT     H184254   9.546   9.661   5.901
28004WAT     H284255   9.390   9.683   5.943
28005WAT      O84256   8.837   1.912   6.040
28005WAT     H184257   8.851   1.967   6.122
28005WAT     H284258   8.852   1.815   6.062
28006WAT      O84259   0.933   9.063   0.461
28006WAT     H184260   1.012   9.036   0.406
28006WAT     H284261   0.858   9.090   0.400
28007WAT      O84262   3.099   3.402   3.067
28007WAT     H184263   3.094   3.346   2.984
28007WAT     H284264   3.026   3.376   3.129
28008WAT      O84265   2.314   9.126   4.598
28008WAT     H184266   2.322   9.214   4.646
28008WAT     H284267   2.218   9.100   4.592
28009WAT      O84268   8.502   2.094   5.618
28009WAT     H184269   8.487   1.996   5.633
28009WAT     H284270   8.418   2.144   5.637
28010WAT      O84271   1.732   9.470   2.593
28010WAT     H184272   1.808   9.509   2.645
28010WAT     H284273   1.661   9.539   2.580
28011WAT      O84274   6.382   8.562   3.688
28011WAT     H184275   6.457   8.612   3.645
28011WAT     H284276   6.381   8.582   3.786
28012WAT      O84277   6.331   3.527   5.003
28012WAT     H184278   6.403   3.592   4.978
28012WAT     H284279   6.243   3.560   4.967
28013WAT      O84280   2.903   8.015   5.138
28013WAT     H184281   2.942   7.987   5.225
28013WAT     H284282   2.868   8.109   5.146
28014WAT      O84283   8.166   3.760   0.431
28014WAT     H184284   8.169   3.757   0.331
28014WAT     H284285   8.098   3.695   0.464
28015WAT      O84286   7.067   8.665   2.141
28015WAT     H184287   6.999   8.701   2.204
28015WAT     H284288   7.141   8.622   2.193
28016WAT      O84289   0.408   7.637   8.478
28016WAT     H184290   0.354   7.670   8.556
28016WAT     H284291   0.358   7.655   8.393
28017WAT      O84292   9.482   7.924   3.596
28017WAT     H184293   9.499   7.994   3.526
28017WAT     H284294   9.550   7.852   3.588
28018WAT      O84295   0.909   7.148   1.663
28018WAT     H184296   0.832   7.090   1.635
28018WAT     H284297   0.874   7.239   1.688
28019WAT      O84298   8.821   8.683   3.154
28019WAT     H184299   8.791   8.604   3.207
28019WAT     H284300   8.914   8.708   3.179
28020WAT      O84301   3.936   3.073   6.407
28020WAT     H184302   4.003   2.999   6.401
28020WAT     H284303   3.957   3.131   6.486
28021WAT      O84304   9.355   2.443   2.140
28021WAT     H184305   9.440   2.492   2.121
28021WAT     H284306   9.371   2.375   2.211
28022WAT      O84307   9.464   6.730   6.418
28022WAT     H184308   9.519   6.775   6.347
28022WAT     H284309   9.452   6.634   6.394
28023WAT      O84310   8.825   1.899   4.040
28023WAT     H184311   8.860   1.911   3.947
28023WAT     H284312   8.777   1.812   4.047
28024WAT      O84313   5.770   0.065   3.006
28024WAT     H184314   5.763  -0.034   3.022
28024WAT     H284315   5.680   0.107   3.017
28025WAT      O84316   3.475   1.694   6.260
28025WAT     H184317   3.478   1.611   6.204
28025WAT     H284318   3.531   1.765   6.217
28026WAT      O84319   8.765   5.902   2.602
28026WAT     H184320   8.738   5.986   2.555
28026WAT     H284321   8.840   5.922   2.665
28027WAT      O84322   8.131   5.851   2.852
28027WAT     H184323   8.101   5.867   2.757
28027WAT     H284324   8.142   5.753   2.867
28028WAT      O84325   1.162   7.864   0.881
28028WAT     H184326   1.113   7.820   0.805
28028WAT     H284327   1.202   7.950   0.849
28029WAT      O84328   1.695   2.940   0.587
28029WAT     H184329   1.772   2.955   0.650
28029WAT     H284330   1.609   2.944   0.639
28030WAT      O84331   5.412   8.853   0.561
28030WAT     H184332   5.486   8.877   0.624
28030WAT     H284333   5.380   8.760   0.580
28031WAT      O84334   7.707   7.727   8.628
28031WAT     H184335   7.715   7.719   8.727
28031WAT     H284336   7.736   7.819   8.599
28032WAT      O84337   3.415   4.054   6.757
28032WAT     H184338   3.489   3.997   6.723
28032WAT     H284339   3.372   4.102   6.680
28033WAT      O84340   6.288   0.453   0.515
28033WAT     H184341   6.379   0.428   0.549
28033WAT     H284342   6.298   0.500   0.427
28034WAT      O84343   5.493   9.412   7.546
28034WAT     H184344   5.451   9.398   7.456
28034WAT     H284345   5.421   9.424   7.614
28035WAT      O84346   8.407   1.983   5.100
28035WAT     H184347   8.331   2.047   5.095
28035WAT     H284348   8.491   2.028   5.069
28036WAT      O84349   0.928   0.384   0.471
28036WAT     H184350   0.838   0.405   0.434
28036WAT     H284351   0.989   0.354   0.398
28037WAT      O84352   7.680   1.746   0.467
28037WAT     H184353   7.652   1.651   0.474
28037WAT     H284354   7.748   1.766   0.537
28038WAT      O84355   3.104   4.076   5.217
28038WAT     H184356   3.106   4.175   5.229
28038WAT     H284357   3.084   4.055   5.121
28039WAT      O84358   0.081   7.790   8.481
28039WAT     H184359   0.004   7.726   8.476
28039WAT     H284360   0.095   7.818   8.576
28040WAT      O84361   6.865   0.555   6.553
28040WAT     H184362   6.914   0.479   6.596
28040WAT     H284363   6.792   0.519   6.496
28041WAT      O84364   7.403   2.040   9.532
28041WAT     H184365   7.310   2.006   9.526
28041WAT     H284366   7.438   2.057   9.439
28042WAT      O84367   3.982   7.731   7.720
28042WAT     H184368   3.946   7.638   7.726
28042WAT     H284369   4.006   7.763   7.812
28043WAT      O84370   4.806   1.805   1.017
28043WAT     H184371   4.714   1.800   0.980
28043WAT     H284372   4.840   1.899   1.011
28044WAT      O84373   0.240   2.500   7.330
28044WAT     H184374   0.226   2.402   7.314
28044WAT     H284375   0.314   2.512   7.397
28045WAT      O84376   2.456   6.700   1.652
28045WAT     H184377   2.444   6.696   1.553
28045WAT     H284378   2.541   6.747   1.673
28046WAT      O84379   5.351   4.824   6.307
28046WAT     H184380   5.365   4.740   6.360
28046WAT     H284381   5.394   4.900   6.355
28047WAT      O84382   0.869   2.582   1.046
28047WAT     H184383   0.890   2.680   1.050
28047WAT     H284384   0.772   2.570   1.027
28048WAT      O84385   9.236   8.223   0.447
28048WAT     H184386   9.320   8.183   0.483
28048WAT     H284387   9.194   8.160   0.382
28049WAT      O84388   6.684   7.629   1.037
28049WAT     H184389   6.743   7.705   1.010
28049WAT     H284390   6.729   7.575   1.108
28050WAT      O84391   7.793   7.004   3.146
28050WAT     H184392   7.872   7.045   3.190
28050WAT     H284393   7.821   6.962   3.060
28051WAT      O84394   6.468   9.446   4.862
28051WAT     H184395   6.560   9.480   4.841
28051WAT     H284396   6.427   9.408   4.779
28052WAT      O84397   2.005   7.118   0.915
28052WAT     H184398   1.935   7.187   0.935
28052WAT     H284399   1.988   7.080   0.824
28053WAT      O84400   1.602   6.058   6.967
28053WAT     H184401   1.545   5.984   6.932
28053WAT     H284402   1.647   6.028   7.052
28054WAT      O84403   3.554   4.674   8.774
28054WAT     H184404   3.564   4.734   8.854
28054WAT     H284405   3.541   4.730   8.692
28055WAT      O84406   7.558   5.640   4.612
28055WAT     H184407   7.644   5.601   4.578
28055WAT     H284408   7.537   5.599   4.701
28056WAT      O84409   0.665   3.157   1.237
28056WAT     H184410   0.574   3.136   1.272
28056WAT     H284411   0.708   3.073   1.203
28057WAT      O84412   3.048   6.946   4.895
28057WAT     H184413   3.061   6.875   4.825
28057WAT     H284414   3.052   7.036   4.851
28058WAT      O84415   1.688   6.058   7.257
28058WAT     H184416   1.770   6.067   7.314
28058WAT     H284417   1.668   5.961   7.242
28059WAT      O84418   8.102   5.573   8.008
28059WAT     H184419   8.120   5.624   8.091
28059WAT     H284420   8.142   5.481   8.016
28060WAT      O84421   3.113   7.381   9.750
28060WAT     H184422   3.104   7.281   9.746
28060WAT     H284423   3.045   7.418   9.814
28061WAT      O84424   3.856   5.423   1.466
28061WAT     H184425   3.777   5.410   1.406
28061WAT     H284426   3.829   5.413   1.561
28062WAT      O84427   8.003   6.742   8.366
28062WAT     H184428   7.975   6.836   8.345
28062WAT     H284429   8.095   6.743   8.405
28063WAT      O84430   1.351   1.279   1.654
28063WAT     H184431   1.378   1.204   1.594
28063WAT     H284432   1.430   1.313   1.704
28064WAT      O84433   1.466   7.244   9.409
28064WAT     H184434   1.535   7.261   9.479
28064WAT     H284435   1.502   7.269   9.319
28065WAT      O84436   7.229   8.780   8.361
28065WAT     H184437   7.281   8.790   8.446
28065WAT     H284438   7.226   8.868   8.314
28066WAT      O84439   9.556   0.158   6.125
28066WAT     H184440   9.497   0.149   6.045
28066WAT     H284441   9.591   0.067   6.151
28067WAT      O84442   4.282   5.688   0.165
28067WAT     H184443   4.326   5.675   0.076
28067WAT     H284444   4.328   5.632   0.233
28068WAT      O84445   9.653   4.759   6.942
28068WAT     H184446   9.688   4.671   6.909
28068WAT     H284447   9.623   4.815   6.864
28069WAT      O84448   4.512   8.110   5.627
28069WAT     H184449   4.503   8.191   5.684
28069WAT     H284450   4.547   8.034   5.682
28070WAT      O84451   1.249   1.242   0.303
28070WAT     H184452   1.317   1.172   0.325
28070WAT     H284453   1.170   1.232   0.364
28071WAT      O84454   2.700   4.057   6.576
28071WAT     H184455   2.768   4.107   6.521
28071WAT     H284456   2.712   4.080   6.672
28072WAT      O84457   4.309   4.885   3.983
28072WAT     H184458   4.366   4.967   3.997
28072WAT     H284459   4.318   4.824   4.061
28073WAT      O84460   6.535   4.670   2.376
28073WAT     H184461   6.598   4.635   2.446
28073WAT     H284462   6.551   4.768   2.363
28074WAT      O84463   1.040   4.864   4.450
28074WAT     H184464   0.947   4.839   4.479
28074WAT     H284465   1.040   4.958   4.415
28075WAT      O84466   1.857   2.318   1.435
28075WAT     H184467   1.784   2.381   1.461
28075WAT     H284468   1.847   2.233   1.487
28076WAT      O84469   7.706   2.506   2.902
28076WAT     H184470   7.764   2.586   2.914
28076WAT     H284471   7.626   2.530   2.848
28077WAT      O84472   8.118   2.397   4.007
28077WAT     H184473   8.149   2.490   3.987
28077WAT     H284474   8.162   2.333   3.945
28078WAT      O84475   2.336   5.099   3.275
28078WAT     H184476   2.408   5.167   3.265
28078WAT     H284477   2.315   5.087   3.372
28079WAT      O84478   8.389   6.556   8.958
28079WAT     H184479   8.405   6.586   8.864
28079WAT     H284480   8.471   6.512   8.994
28080WAT      O84481   7.240   2.341   2.338
28080WAT     H184482   7.280   2.400   2.268
28080WAT     H284483   7.216   2.253   2.298
28081WAT      O84484   6.265   9.257   6.325
28081WAT     H184485   6.206   9.323   6.371
28081WAT     H284486   6.211   9.179   6.295
28082WAT      O84487   2.002   2.077   3.044
28082WAT     H184488   2.026   2.050   3.137
28082WAT     H284489   2.078   2.056   2.982
28083WAT      O84490   9.070   1.763   6.348
28083WAT     H184491   9.039   1.850   6.386
28083WAT     H284492   9.169   1.756   6.357
28084WAT      O84493   9.735   8.990   6.524
28084WAT     H184494   9.734   8.929   6.604
28084WAT     H284495   9.675   9.068   6.540
28085WAT      O84496   7.159   7.008   8.726
28085WAT     H184497   7.254   6.983   8.748
28085WAT     H284498   7.155   7.106   8.707
28086WAT      O84499   5.227   0.804   6.939
28086WAT     H184500   5.282   0.784   7.021
28086WAT     H284501   5.286   0.844   6.869
28087WAT      O84502   9.130   1.140   4.042
28087WAT     H184503   9.188   1.124   4.122
28087WAT     H284504   9.186   1.140   3.959
28088WAT      O84505   1.492   2.943   1.710
28088WAT     H184506   1.511   2.924   1.614
28088WAT     H284507   1.578   2.958   1.759
28089WAT      O84508   2.653   8.878   2.754
28089WAT     H184509   2.702   8.792   2.737
28089WAT     H284510   2.593   8.867   2.834
28090WAT      O84511   3.891   4.547   6.199
28090WAT     H184512   3.969   4.588   6.152
28090WAT     H284513   3.806   4.576   6.153
28091WAT      O84514   8.100   6.925   4.354
28091WAT     H184515   8.045   6.949   4.274
28091WAT     H284516   8.106   7.003   4.415
28092WAT      O84517   2.752   3.725   1.746
28092WAT     H184518   2.841   3.680   1.740
28092WAT     H284519   2.737   3.780   1.664
28093WAT      O84520   6.847   6.406   3.317
28093WAT     H184521   6.824   6.489   3.267
28093WAT     H284522   6.945   6.406   3.339
28094WAT      O84523   2.951   1.798   1.770
28094WAT     H184524   2.874   1.843   1.815
28094WAT     H284525   3.028   1.862   1.765
28095WAT      O84526   4.591   1.469   3.264
28095WAT     H184527   4.562   1.482   3.358
28095WAT     H284528   4.670   1.407   3.261
28096WAT      O84529   1.519   3.397   5.885
28096WAT     H184530   1.502   3.320   5.824
28096WAT     H284531   1.455   3.471   5.864
28097WAT      O84532   6.617   9.554   6.009
28097WAT     H184533   6.697   9.577   5.954
28097WAT     H284534   6.597   9.628   6.073
28098WAT      O84535   3.953   8.262   8.469
28098WAT     H184536   3.976   8.356   8.442
28098WAT     H284537   3.937   8.259   8.567
28099WAT      O84538   6.679   8.700   3.915
28099WAT     H184539   6.585   8.684   3.947
28099WAT     H284540   6.676   8.737   3.822
28100WAT      O84541   1.088   7.762   5.243
28100WAT     H184542   1.157   7.831   5.264
28100WAT     H284543   1.011   7.772   5.305
28101WAT      O84544   4.791   8.215   1.200
28101WAT     H184545   4.849   8.208   1.119
28101WAT     H284546   4.844   8.256   1.275
28102WAT      O84547   0.005   3.359   0.140
28102WAT     H184548  -0.093   3.364   0.159
28102WAT     H284549   0.020   3.366   0.042
28103WAT      O84550   4.705   9.829   8.538
28103WAT     H184551   4.685   9.733   8.556
28103WAT     H284552   4.780   9.860   8.596
28104WAT      O84553   8.843   2.036   7.998
28104WAT     H184554   8.915   2.067   8.060
28104WAT     H284555   8.839   2.097   7.919
28105WAT      O84556   1.090   3.510   2.439
28105WAT     H184557   1.001   3.532   2.479
28105WAT     H284558   1.089   3.416   2.405
28106WAT      O84559   2.953   2.172   4.646
28106WAT     H184560   3.044   2.163   4.686
28106WAT     H284561   2.914   2.082   4.627
28107WAT      O84562   5.696   4.788   1.725
28107WAT     H184563   5.769   4.824   1.666
28107WAT     H284564   5.609   4.795   1.677
28108WAT      O84565   0.348   3.575   2.331
28108WAT     H184566   0.436   3.598   2.373
28108WAT     H284567   0.319   3.650   2.272
28109WAT      O84568   6.632   0.025   0.967
28109WAT     H184569   6.714   0.027   1.025
28109WAT     H284570   6.594  -0.068   0.967
28110WAT      O84571   8.998   3.664   0.311
28110WAT     H184572   8.992   3.577   0.261
28110WAT     H284573   8.983   3.740   0.248
28111WAT      O84574   9.138   1.247   0.497
28111WAT     H184575   9.196   1.227   0.418
28111WAT     H284576   9.097   1.338   0.485
28112WAT      O84577   9.445   1.458   0.384
28112WAT     H184578   9.385   1.524   0.431
28112WAT     H284579   9.539   1.471   0.416
28113WAT      O84580   0.655   1.294   3.487
28113WAT     H184581   0.635   1.238   3.406
28113WAT     H284582   0.586   1.366   3.495
28114WAT      O84583   4.488   0.635   1.756
28114WAT     H184584   4.421   0.563   1.738
28114WAT     H284585   4.441   0.723   1.766
28115WAT      O84586   2.248   8.206   2.669
28115WAT     H184587   2.225   8.286   2.725
28115WAT     H284588   2.169   8.145   2.664
28116WAT      O84589   6.434   8.566   5.636
28116WAT     H184590   6.533   8.578   5.645
28116WAT     H284591   6.414   8.471   5.615
28117WAT      O84592   6.941   4.971   1.291
28117WAT     H184593   6.877   4.910   1.339
28117WAT     H284594   6.953   4.940   1.197
28118WAT      O84595   5.761   2.534   9.504
28118WAT     H184596   5.722   2.621   9.533
28118WAT     H284597   5.750   2.466   9.577
28119WAT      O84598   4.083   4.700   9.509
28119WAT     H184599   4.023   4.721   9.432
28119WAT     H284600   4.148   4.775   9.522
28120WAT      O84601   9.856   2.044   4.245
28120WAT     H184602   9.955   2.040   4.259
28120WAT     H284603   9.834   2.011   4.153
28121WAT      O84604   8.151   5.598   2.921
28121WAT     H184605   8.184   5.514   2.876
28121WAT     H284606   8.139   5.581   3.019
28122WAT      O84607   2.279   5.088   7.314
28122WAT     H184608   2.354   5.047   7.263
28122WAT     H284609   2.215   5.131   7.249
28123WAT      O84610   3.568   4.820   1.086
28123WAT     H184611   3.625   4.794   1.164
28123WAT     H284612   3.497   4.751   1.071
28124WAT      O84613   5.769   0.211   6.050
28124WAT     H184614   5.706   0.144   6.013
28124WAT     H284615   5.816   0.173   6.130
28125WAT      O84616   0.635   2.938   8.420
28125WAT     H184617   0.728   2.915   8.391
28125WAT     H284618   0.608   3.025   8.378
28126WAT      O84619   6.839   6.285   8.602
28126WAT     H184620   6.931   6.300   8.638
28126WAT     H284621   6.844   6.248   8.510
28127WAT      O84622   7.012   4.365   8.170
28127WAT     H184623   6.950   4.299   8.212
28127WAT     H284624   7.026   4.341   8.074
28128WAT      O84625   1.077   8.810   9.679
28128WAT     H184626   1.150   8.849   9.736
28128WAT     H284627   1.031   8.882   9.629
28129WAT      O84628   8.073   0.693   8.008
28129WAT     H184629   8.127   0.653   7.934
28129WAT     H284630   7.993   0.635   8.025
28130WAT      O84631   0.240   8.005   2.661
28130WAT     H184632   0.287   8.064   2.727
28130WAT     H284633   0.179   7.942   2.709
28131WAT      O84634   5.027   5.649   2.749
28131WAT     H184635   5.065   5.622   2.661
28131WAT     H284636   4.928   5.636   2.748
28132WAT      O84637   7.483   4.016   7.549
28132WAT     H184638   7.555   4.078   7.517
28132WAT     H284639   7.397   4.038   7.503
28133WAT      O84640   1.061   6.609   7.817
28133WAT     H184641   1.053   6.537   7.749
28133WAT     H284642   1.150   6.653   7.808
28134WAT      O84643   1.859   8.822   3.256
28134WAT     H184644   1.867   8.871   3.343
28134WAT     H284645   1.950   8.799   3.222
28135WAT      O84646   5.034   9.493   5.841
28135WAT     H184647   5.131   9.500   5.817
28135WAT     H284648   5.024   9.508   5.940
28136WAT      O84649   7.069   0.467   6.258
28136WAT     H184650   7.108   0.487   6.168
28136WAT     H284651   7.142   0.442   6.321
28137WAT      O84652   5.697   6.670   4.240
28137WAT     H184653   5.716   6.757   4.286
28137WAT     H284654   5.664   6.688   4.148
28138WAT      O84655   6.100   2.959   5.246
28138WAT     H184656   6.107   2.954   5.345
28138WAT     H284657   6.064   2.873   5.210
28139WAT      O84658   1.217   1.557   1.232
28139WAT     H184659   1.234   1.543   1.329
28139WAT     H284660   1.125   1.526   1.210
28140WAT      O84661   4.615   7.570   4.326
28140WAT     H184662   4.635   7.663   4.294
28140WAT     H284663   4.538   7.573   4.390
28141WAT      O84664   5.124   9.468   8.691
28141WAT     H184665   5.042   9.521   8.669
28141WAT     H284666   5.114   9.375   8.656
28142WAT      O84667   1.265   7.321   1.670
28142WAT     H184668   1.319   7.380   1.610
28142WAT     H284669   1.242   7.370   1.754
28143WAT      O84670   9.844   7.657   4.606
28143WAT     H184671   9.744   7.668   4.598
28143WAT     H284672   9.876   7.596   4.534
28144WAT      O84673   0.461   1.485   3.531
28144WAT     H184674   0.367   1.477   3.497
28144WAT     H284675   0.458   1.507   3.629
28145WAT      O84676   4.992   0.263   8.264
28145WAT     H184677   4.899   0.231   8.277
28145WAT     H284678   5.034   0.282   8.354
28146WAT      O84679   2.453   5.396   4.796
28146WAT     H184680   2.413   5.305   4.810
28146WAT     H284681   2.507   5.421   4.877
28147WAT      O84682   4.277   6.465   7.620
28147WAT     H184683   4.258   6.462   7.522
28147WAT     H284684   4.344   6.393   7.642
28148WAT      O84685   9.303   3.387   1.540
28148WAT     H184686   9.395   3.384   1.580
28148WAT     H284687   9.244   3.443   1.597
28149WAT      O84688   1.892   2.301   8.617
28149WAT     H184689   1.883   2.271   8.522
28149WAT     H284690   1.828   2.376   8.634
28150WAT      O84691   7.590   6.991   5.888
28150WAT     H184692   7.648   6.929   5.834
28150WAT     H284693   7.649   7.054   5.939
28151WAT      O84694   2.131   4.468   9.577
28151WAT     H184695   2.198   4.466   9.651
28151WAT     H284696   2.167   4.417   9.499
28152WAT      O84697   3.355   2.189   5.240
28152WAT     H184698   3.450   2.155   5.240
28152WAT     H284699   3.328   2.211   5.147
28153WAT      O84700   6.178   3.078   1.275
28153WAT     H184701   6.230   3.074   1.361
28153WAT     H284702   6.240   3.057   1.199
28154WAT      O84703   8.501   9.115   4.058
28154WAT     H184704   8.474   9.211   4.047
28154WAT     H284705   8.448   9.074   4.132
28155WAT      O84706   2.772   2.767   0.190
28155WAT     H184707   2.732   2.679   0.217
28155WAT     H284708   2.852   2.786   0.246
28156WAT      O84709   8.701   4.954   1.959
28156WAT     H184710   8.722   4.938   1.862
28156WAT     H284711   8.655   5.042   1.969
28157WAT      O84712   1.899   8.768   1.766
28157WAT     H184713   1.865   8.687   1.813
28157WAT     H284714   1.936   8.832   1.832
28158WAT      O84715   5.105   6.210   3.118
28158WAT     H184716   5.109   6.166   3.028
28158WAT     H284717   5.184   6.182   3.173
28159WAT      O84718   8.802   2.058   9.507
28159WAT     H184719   8.833   2.118   9.432
28159WAT     H284720   8.748   1.983   9.469
28160WAT      O84721   9.481   2.914   7.142
28160WAT     H184722   9.430   2.996   7.169
28160WAT     H284723   9.420   2.835   7.140
28161WAT      O84724   9.599   4.792   3.477
28161WAT     H184725   9.516   4.833   3.516
28161WAT     H284726   9.657   4.864   3.439
28162WAT      O84727   3.885   1.475   5.655
28162WAT     H184728   3.920   1.535   5.582
28162WAT     H284729   3.960   1.450   5.715
28163WAT      O84730   0.091   8.427   5.048
28163WAT     H184731  -0.006   8.446   5.032
28163WAT     H284732   0.141   8.514   5.053
28164WAT      O84733   8.317   8.869   7.248
28164WAT     H184734   8.218   8.866   7.261
28164WAT     H284735   8.338   8.868   7.150
28165WAT      O84736   6.895   6.551   4.948
28165WAT     H184737   6.877   6.560   5.046
28165WAT     H284738   6.990   6.576   4.929
28166WAT      O84739   9.429   2.253   9.302
28166WAT     H184740   9.331   2.270   9.309
28166WAT     H284741   9.477   2.340   9.289
28167WAT      O84742   3.547   0.049   0.600
28167WAT     H184743   3.643   0.071   0.618
28167WAT     H284744   3.537   0.020   0.505
28168WAT      O84745   8.651   8.962   5.978
28168WAT     H184746   8.671   9.014   5.895
28168WAT     H284747   8.735   8.948   6.030
28169WAT      O84748   5.359   3.911   4.178
28169WAT     H184749   5.371   3.988   4.115
28169WAT     H284750   5.265   3.879   4.174
28170WAT      O84751   7.051   1.656   2.248
28170WAT     H184752   7.088   1.572   2.209
28170WAT     H284753   6.958   1.669   2.216
28171WAT      O84754   4.515   3.436   9.449
28171WAT     H184755   4.565   3.376   9.512
28171WAT     H284756   4.548   3.530   9.459
28172WAT      O84757   4.726   5.646   2.065
28172WAT     H184758   4.705   5.593   2.147
28172WAT     H284759   4.651   5.709   2.046
28173WAT      O84760   9.653   9.812   5.345
28173WAT     H184761   9.692   9.893   5.390
28173WAT     H284762   9.625   9.746   5.415
28174WAT      O84763   4.883   8.850   3.415
28174WAT     H184764   4.881   8.920   3.344
28174WAT     H284765   4.933   8.769   3.382
28175WAT      O84766   6.071   3.219   4.757
28175WAT     H184767   6.152   3.193   4.705
28175WAT     H284768   6.098   3.269   4.839
28176WAT      O84769   8.736   3.270   1.553
28176WAT     H184770   8.685   3.248   1.637
28176WAT     H284771   8.820   3.318   1.577
28177WAT      O84772   1.822   7.152   5.229
28177WAT     H184773   1.728   7.134   5.257
28177WAT     H284774   1.852   7.083   5.163
28178WAT      O84775   7.049   9.393   6.452
28178WAT     H184776   7.144   9.424   6.454
28178WAT     H284777   7.041   9.304   6.497
28179WAT      O84778   4.161   6.258   3.537
28179WAT     H184779   4.144   6.317   3.457
28179WAT     H284780   4.236   6.296   3.590
28180WAT      O84781   9.159   2.646   3.801
28180WAT     H184782   9.251   2.654   3.838
28180WAT     H284783   9.151   2.702   3.718
28181WAT      O84784   4.215   4.256   5.708
28181WAT     H184785   4.235   4.294   5.618
28181WAT     H284786   4.291   4.274   5.769
28182WAT      O84787   9.055   7.627   1.455
28182WAT     H184788   9.024   7.720   1.470
28182WAT     H284789   9.042   7.603   1.359
28183WAT      O84790   5.305   4.051   2.531
28183WAT     H184791   5.376   3.983   2.514
28183WAT     H284792   5.345   4.129   2.579
28184WAT      O84793   6.539   6.643   9.428
28184WAT     H184794   6.500   6.579   9.362
28184WAT     H284795   6.638   6.633   9.430
28185WAT      O84796   4.360   5.957   6.771
28185WAT     H184797   4.317   6.043   6.743
28185WAT     H284798   4.444   5.944   6.719
28186WAT      O84799   2.844   9.567   0.926
28186WAT     H184800   2.815   9.558   1.021
28186WAT     H284801   2.895   9.653   0.914
28187WAT      O84802   4.072   2.303   2.635
28187WAT     H184803   4.032   2.386   2.596
28187WAT     H284804   4.150   2.327   2.692
28188WAT      O84805   4.676   7.771   4.598
28188WAT     H184806   4.595   7.797   4.650
28188WAT     H284807   4.668   7.806   4.505
28189WAT      O84808   6.964   4.507   2.480
28189WAT     H184809   6.931   4.505   2.385
28189WAT     H284810   6.893   4.470   2.541
28190WAT      O84811   0.123   4.127   6.134
28190WAT     H184812   0.137   4.031   6.109
28190WAT     H284813   0.202   4.161   6.185
28191WAT      O84814   6.874   9.569   4.150
28191WAT     H184815   6.855   9.542   4.244
28191WAT     H284816   6.870   9.489   4.091
28192WAT      O84817   3.410   3.153   7.965
28192WAT     H184818   3.342   3.086   7.996
28192WAT     H284819   3.441   3.128   7.873
28193WAT      O84820   6.280   3.173   1.907
28193WAT     H184821   6.182   3.188   1.898
28193WAT     H284822   6.315   3.223   1.986
28194WAT      O84823   0.490   8.024   1.986
28194WAT     H184824   0.404   8.075   1.978
28194WAT     H284825   0.536   8.048   2.071
28195WAT      O84826   7.452   6.438   8.068
28195WAT     H184827   7.466   6.536   8.053
28195WAT     H284828   7.506   6.386   8.003
28196WAT      O84829   5.649   1.885   5.039
28196WAT     H184830   5.559   1.842   5.053
28196WAT     H284831   5.691   1.901   5.128
28197WAT      O84832   9.776   6.234   6.904
28197WAT     H184833   9.739   6.164   6.966
28197WAT     H284834   9.710   6.308   6.894
28198WAT      O84835   2.539   3.624   3.112
28198WAT     H184836   2.606   3.579   3.052
28198WAT     H284837   2.489   3.555   3.165
28199WAT      O84838   4.987   7.763   2.423
28199WAT     H184839   5.012   7.859   2.407
28199WAT     H284840   5.068   7.711   2.450
28200WAT      O84841   0.320   8.898   1.927
28200WAT     H184842   0.263   8.955   1.869
28200WAT     H284843   0.360   8.824   1.873
28201WAT      O84844   7.128   2.466   3.899
28201WAT     H184845   7.123   2.392   3.966
28201WAT     H284846   7.050   2.460   3.837
28202WAT      O84847   0.296   4.945   3.962
28202WAT     H184848   0.353   5.017   3.920
28202WAT     H284849   0.235   4.986   4.029
28203WAT      O84850   2.743   8.459   6.742
28203WAT     H184851   2.659   8.471   6.688
28203WAT     H284852   2.778   8.366   6.729
28204WAT      O84853   2.283   1.443   5.200
28204WAT     H184854   2.303   1.346   5.214
28204WAT     H284855   2.336   1.498   5.266
28205WAT      O84856   1.221   6.447   1.501
28205WAT     H184857   1.253   6.387   1.428
28205WAT     H284858   1.206   6.394   1.584
28206WAT      O84859   5.977   6.078   1.732
28206WAT     H184860   5.911   6.131   1.785
28206WAT     H284861   6.053   6.051   1.792
28207WAT      O84862   0.164   2.067   8.526
28207WAT     H184863   0.103   1.989   8.521
28207WAT     H284864   0.258   2.037   8.508
28208WAT      O84865   9.288   0.987   9.722
28208WAT     H184866   9.365   1.040   9.687
28208WAT     H284867   9.247   1.036   9.799
28209WAT      O84868   2.706   6.128   3.879
28209WAT     H184869   2.643   6.166   3.947
28209WAT     H284870   2.707   6.028   3.886
28210WAT      O84871   6.780   7.540   4.735
28210WAT     H184872   6.759   7.462   4.676
28210WAT     H284873   6.733   7.530   4.822
28211WAT      O84874   5.465   0.654   1.277
28211WAT     H184875   5.416   0.648   1.190
28211WAT     H284876   5.432   0.582   1.338
28212WAT      O84877   3.217   3.536   5.165
28212WAT     H184878   3.283   3.565   5.095
28212WAT     H284879   3.229   3.438   5.182
28213WAT      O84880   9.839   5.043   5.382
28213WAT     H184881   9.909   5.030   5.452
28213WAT     H284882   9.791   5.129   5.398
28214WAT      O84883   0.510   3.059   7.753
28214WAT     H184884   0.561   3.038   7.837
28214WAT     H284885   0.566   3.037   7.674
28215WAT      O84886   9.000   3.324   7.980
28215WAT     H184887   9.029   3.244   8.033
28215WAT     H284888   9.080   3.382   7.960
28216WAT      O84889   5.578   9.709   2.583
28216WAT     H184890   5.639   9.778   2.545
28216WAT     H284891   5.631   9.643   2.636
28217WAT      O84892   1.063   9.392   4.628
28217WAT     H184893   1.093   9.314   4.575
28217WAT     H284894   1.129   9.467   4.619
28218WAT      O84895   2.953   9.033   5.476
28218WAT     H184896   3.027   8.967   5.464
28218WAT     H284897   2.868   8.995   5.437
28219WAT      O84898   4.365   3.174   7.462
28219WAT     H184899   4.417   3.259   7.458
28219WAT     H284900   4.426   3.096   7.450
28220WAT      O84901   7.466   3.146   4.993
28220WAT     H184902   7.485   3.174   5.087
28220WAT     H284903   7.370   3.163   4.972
28221WAT      O84904   9.267   8.164   8.711
28221WAT     H184905   9.338   8.133   8.773
28221WAT     H284906   9.185   8.190   8.763
28222WAT      O84907   2.691   5.771   4.923
28222WAT     H184908   2.680   5.870   4.915
28222WAT     H284909   2.695   5.730   4.832
28223WAT      O84910   3.141   2.027   5.363
28223WAT     H184911   3.222   2.074   5.327
28223WAT     H284912   3.161   1.994   5.456
28224WAT      O84913   4.208   4.081   3.553
28224WAT     H184914   4.198   4.180   3.540
28224WAT     H284915   4.186   4.034   3.467
28225WAT      O84916   5.014   6.143   0.104
28225WAT     H184917   5.077   6.220   0.098
28225WAT     H284918   4.932   6.162   0.050
28226WAT      O84919   5.479   2.037   8.454
28226WAT     H184920   5.552   1.969   8.464
28226WAT     H284921   5.519   2.128   8.445
28227WAT      O84922   1.100   3.791   1.486
28227WAT     H184923   1.177   3.847   1.455
28227WAT     H284924   1.093   3.796   1.585
28228WAT      O84925   1.507   9.535   7.610
28228WAT     H184926   1.429   9.584   7.572
28228WAT     H284927   1.580   9.531   7.541
28229WAT      O84928   1.982   8.816   8.708
28229WAT     H184929   1.963   8.889   8.642
28229WAT     H284930   2.077   8.787   8.700
28230WAT      O84931   8.336   5.272   4.581
28230WAT     H184932   8.252   5.290   4.632
28230WAT     H284933   8.313   5.245   4.487
28231WAT      O84934   2.434   1.876   9.565
28231WAT     H184935   2.457   1.881   9.662
28231WAT     H284936   2.504   1.923   9.511
28232WAT      O84937   0.201   6.878   4.310
28232WAT     H184938   0.144   6.884   4.228
28232WAT     H284939   0.272   6.948   4.307
28233WAT      O84940   4.099   0.797   3.684
28233WAT     H184941   4.008   0.820   3.649
28233WAT     H284942   4.105   0.823   3.781
28234WAT      O84943   8.318   1.667   8.233
28234WAT     H184944   8.317   1.760   8.270
28234WAT     H284945   8.289   1.669   8.138
28235WAT      O84946   5.341   5.310   2.294
28235WAT     H184947   5.405   5.300   2.370
28235WAT     H284948   5.276   5.235   2.296
28236WAT      O84949   3.915   7.018   0.412
28236WAT     H184950   3.884   7.082   0.482
28236WAT     H284951   3.880   7.046   0.323
28237WAT      O84952   3.390   0.641   4.947
28237WAT     H184953   3.484   0.662   4.973
28237WAT     H284954   3.381   0.646   4.847
28238WAT      O84955   0.987   0.575   5.471
28238WAT     H184956   1.031   0.528   5.395
28238WAT     H284957   0.934   0.652   5.436
28239WAT      O84958   5.038   2.448   4.791
28239WAT     H184959   5.105   2.474   4.861
28239WAT     H284960   5.068   2.363   4.747
28240WAT      O84961   6.555   9.206   1.425
28240WAT     H184962   6.486   9.269   1.462
28240WAT     H284963   6.593   9.244   1.341
28241WAT      O84964   9.562   1.061   0.430
28241WAT     H184965   9.511   1.008   0.498
28241WAT     H284966   9.555   1.016   0.341
28242WAT      O84967   9.697   7.804   0.038
28242WAT     H184968   9.603   7.773   0.021
28242WAT     H284969   9.731   7.853  -0.042
28243WAT      O84970   7.831   3.247   8.230
28243WAT     H184971   7.812   3.345   8.224
28243WAT     H284972   7.885   3.218   8.151
28244WAT      O84973   3.812   2.142   7.893
28244WAT     H184974   3.723   2.111   7.926
28244WAT     H284975   3.815   2.242   7.898
28245WAT      O84976   0.211   5.337   2.076
28245WAT     H184977   0.141   5.356   2.007
28245WAT     H284978   0.228   5.420   2.129
28246WAT      O84979   6.226   0.729   7.136
28246WAT     H184980   6.140   0.760   7.177
28246WAT     H284981   6.210   0.705   7.040
28247WAT      O84982   5.803   5.802   4.470
28247WAT     H184983   5.772   5.890   4.433
28247WAT     H284984   5.749   5.780   4.551
28248WAT      O84985   0.626   8.142   3.971
28248WAT     H184986   0.720   8.113   3.991
28248WAT     H284987   0.571   8.135   4.053
28249WAT      O84988   5.686   0.251   0.046
28249WAT     H184989   5.752   0.257  -0.029
28249WAT     H284990   5.729   0.280   0.131
28250WAT      O84991   8.022   4.183   3.400
28250WAT     H184992   8.113   4.219   3.422
28250WAT     H284993   8.030   4.118   3.324
28251WAT      O84994   3.068   9.356   1.586
28251WAT     H184995   3.150   9.329   1.536
28251WAT     H284996   3.009   9.276   1.598
28252WAT      O84997   5.446   8.238   8.565
28252WAT     H184998   5.395   8.290   8.634
28252WAT     H284999   5.439   8.285   8.476
28253WAT      O85000   5.583   4.076   2.383
28253WAT     H185001   5.579   4.014   2.461
28253WAT     H285002   5.644   4.037   2.313
28254WAT      O85003   3.500   1.475   9.350
28254WAT     H185004   3.524   1.495   9.255
28254WAT     H285005   3.515   1.557   9.406
28255WAT      O85006   9.340   1.719   9.462
28255WAT     H185007   9.344   1.625   9.427
28255WAT     H285008   9.314   1.781   9.388
28256WAT      O85009   2.817   4.224   9.598
28256WAT     H185010   2.814   4.131   9.562
28256WAT     H285011   2.729   4.248   9.637
28257WAT      O85012   2.623   8.684   2.217
28257WAT     H185013   2.651   8.601   2.168
28257WAT     H285014   2.663   8.764   2.173
28258WAT      O85015   1.124   7.764   4.041
28258WAT     H185016   1.185   7.723   4.108
28258WAT     H285017   1.065   7.693   4.001
28259WAT      O85018   1.371   6.096   8.238
28259WAT     H185019   1.411   6.049   8.160
28259WAT     H285020   1.293   6.151   8.207
28260WAT      O85021   4.323   3.202   5.059
28260WAT     H185022   4.287   3.292   5.083
28260WAT     H285023   4.248   3.139   5.039
28261WAT      O85024   9.146   6.600   9.631
28261WAT     H185025   9.093   6.590   9.547
28261WAT     H285026   9.150   6.697   9.657
28262WAT      O85027   1.130   3.985   0.176
28262WAT     H185028   1.151   3.977   0.273
28262WAT     H285029   1.073   3.909   0.147
28263WAT      O85030   3.571   8.448   9.449
28263WAT     H185031   3.542   8.494   9.533
28263WAT     H285032   3.577   8.350   9.464
28264WAT      O85033   8.874   3.870   4.033
28264WAT     H185034   8.789   3.821   4.012
28264WAT     H285035   8.882   3.950   3.974
28265WAT      O85036   5.106   5.777   8.553
28265WAT     H185037   5.009   5.781   8.530
28265WAT     H285038   5.117   5.770   8.652
28266WAT      O85039   7.006   8.098   7.493
28266WAT     H185040   6.968   8.188   7.473
28266WAT     H285041   7.006   8.084   7.592
28267WAT      O85042   4.060   8.250   6.823
28267WAT     H185043   4.118   8.331   6.811
28267WAT     H285044   4.114   8.167   6.810
28268WAT      O85045   4.349   7.340   6.054
28268WAT     H185046   4.273   7.398   6.087
28268WAT     H285047   4.318   7.287   5.975
28269WAT      O85048   8.679   7.154   6.347
28269WAT     H185049   8.700   7.085   6.278
28269WAT     H285050   8.626   7.228   6.305
28270WAT      O85051   5.559   5.230   8.102
28270WAT     H185052   5.647   5.278   8.107
28270WAT     H285053   5.575   5.131   8.105
28271WAT      O85054   8.870   0.925   1.016
28271WAT     H185055   8.838   0.998   1.076
28271WAT     H285056   8.963   0.945   0.986
28272WAT      O85057   4.236   9.282   0.483
28272WAT     H185058   4.335   9.286   0.471
28272WAT     H285059   4.195   9.364   0.445
28273WAT      O85060   8.634   1.761   1.730
28273WAT     H185061   8.653   1.665   1.750
28273WAT     H285062   8.564   1.795   1.792
28274WAT      O85063   8.854   5.463   8.235
28274WAT     H185064   8.891   5.409   8.160
28274WAT     H285065   8.774   5.416   8.274
28275WAT      O85066   0.736   9.386   8.510
28275WAT     H185067   0.735   9.414   8.606
28275WAT     H285068   0.794   9.448   8.457
28276WAT      O85069   3.148   3.452   9.282
28276WAT     H185070   3.103   3.365   9.300
28276WAT     H285071   3.238   3.436   9.242
28277WAT      O85072   8.367   8.970   0.776
28277WAT     H185073   8.416   9.004   0.856
28277WAT     H285074   8.320   9.046   0.731
28278WAT      O85075   8.475   4.246   0.331
28278WAT     H185076   8.411   4.323   0.325
28278WAT     H285077   8.548   4.267   0.395
28279WAT      O85078   6.680   3.738   1.370
28279WAT     H185079   6.728   3.792   1.300
28279WAT     H285080   6.744   3.675   1.414
28280WAT      O85081   0.822   3.451   7.840
28280WAT     H185082   0.857   3.378   7.781
28280WAT     H285083   0.723   3.462   7.824
28281WAT      O85084   9.068   7.363   7.786
28281WAT     H185085   9.167   7.374   7.791
28281WAT     H285086   9.027   7.447   7.752
28282WAT      O85087   1.770   8.225   0.747
28282WAT     H185088   1.780   8.230   0.647
28282WAT     H285089   1.851   8.181   0.786
28283WAT      O85090   3.664   3.158   3.310
28283WAT     H185091   3.763   3.147   3.302
28283WAT     H285092   3.642   3.254   3.328
28284WAT      O85093   2.818   8.689   5.770
28284WAT     H185094   2.824   8.763   5.837
28284WAT     H285095   2.797   8.603   5.817
28285WAT      O85096   9.804   2.015   2.894
28285WAT     H185097   9.889   2.042   2.850
28285WAT     H285098   9.727   2.042   2.837
28286WAT      O85099   0.854   0.783   7.190
28286WAT     H185100   0.764   0.811   7.156
28286WAT     H285101   0.920   0.784   7.115
28287WAT      O85102   6.495   5.381   0.469
28287WAT     H185103   6.542   5.303   0.510
28287WAT     H285104   6.511   5.463   0.523
28288WAT      O85105   5.919   8.516   1.755
28288WAT     H185106   5.952   8.470   1.837
28288WAT     H285107   5.973   8.487   1.676
28289WAT      O85108   0.652   1.427   0.166
28289WAT     H185109   0.749   1.446   0.155
28289WAT     H285110   0.635   1.386   0.255
28290WAT      O85111   5.578   1.609   9.600
28290WAT     H185112   5.492   1.580   9.643
28290WAT     H285113   5.655   1.576   9.655
28291WAT      O85114   3.503   3.353   0.307
28291WAT     H185115   3.444   3.360   0.388
28291WAT     H285116   3.549   3.440   0.291
28292WAT      O85117   2.506   7.359   3.245
28292WAT     H185118   2.531   7.295   3.173
28292WAT     H285119   2.451   7.433   3.206
28293WAT      O85120   5.189   8.777   3.698
28293WAT     H185121   5.181   8.679   3.680
28293WAT     H285122   5.274   8.795   3.747
28294WAT      O85123   5.933   3.757   1.061
28294WAT     H185124   5.901   3.663   1.045
28294WAT     H285125   5.990   3.759   1.144
28295WAT      O85126   1.892   3.337   1.139
28295WAT     H185127   1.927   3.430   1.127
28295WAT     H285128   1.794   3.334   1.120
28296WAT      O85129   9.053   1.229   6.112
28296WAT     H185130   8.977   1.290   6.134
28296WAT     H285131   9.022   1.159   6.048
28297WAT      O85132   2.210   7.044   7.089
28297WAT     H185133   2.193   6.957   7.135
28297WAT     H285134   2.274   7.099   7.143
28298WAT      O85135   1.437   5.058   7.336
28298WAT     H185136   1.466   4.978   7.285
28298WAT     H285137   1.478   5.140   7.296
28299WAT      O85138   9.873   2.515   8.223
28299WAT     H185139   9.780   2.496   8.191
28299WAT     H285140   9.869   2.555   8.314
28300WAT      O85141   1.590   2.297   5.768
28300WAT     H185142   1.564   2.366   5.701
28300WAT     H285143   1.529   2.303   5.848
28301WAT      O85144   9.162   5.287   3.857
28301WAT     H185145   9.080   5.325   3.899
28301WAT     H285146   9.146   5.192   3.831
28302WAT      O85147   2.133   7.591   4.790
28302WAT     H185148   2.073   7.530   4.739
28302WAT     H285149   2.156   7.550   4.878
28303WAT      O85150   7.753   8.988   8.261
28303WAT     H185151   7.745   8.912   8.195
28303WAT     H285152   7.707   8.963   8.346
28304WAT      O85153   6.095   0.111   7.822
28304WAT     H185154   6.074   0.061   7.738
28304WAT     H285155   6.193   0.131   7.827
28305WAT      O85156   2.440   8.484   0.415
28305WAT     H185157   2.478   8.550   0.480
28305WAT     H285158   2.360   8.440   0.456
28306WAT      O85159   3.700   1.863   7.525
28306WAT     H185160   3.785   1.915   7.513
28306WAT     H285161   3.654   1.892   7.609
28307WAT      O85162   6.291   4.672   2.503
28307WAT     H185163   6.290   4.726   2.588
28307WAT     H285164   6.377   4.690   2.455
28308WAT      O85165   3.414   2.940   6.511
28308WAT     H185166   3.376   2.963   6.421
28308WAT     H285167   3.356   2.872   6.555
28309WAT      O85168   4.011   6.596   5.357
28309WAT     H185169   4.064   6.566   5.277
28309WAT     H285170   4.072   6.605   5.436
28310WAT      O85171   4.268   2.413   5.269
28310WAT     H185172   4.233   2.320   5.281
28310WAT     H285173   4.195   2.479   5.287
28311WAT      O85174   5.312   7.111   2.013
28311WAT     H185175   5.377   7.124   1.938
28311WAT     H285176   5.233   7.172   2.000
28312WAT      O85177   7.868   1.341   9.373
28312WAT     H185178   7.775   1.331   9.338
28312WAT     H285179   7.907   1.250   9.390
28313WAT      O85180   9.200   2.568   2.538
28313WAT     H185181   9.232   2.647   2.591
28313WAT     H285182   9.273   2.538   2.476
28314WAT      O85183   9.418   1.609   0.801
28314WAT     H185184   9.392   1.517   0.830
28314WAT     H285185   9.461   1.658   0.876
28315WAT      O85186   7.807   4.513   6.328
28315WAT     H185187   7.716   4.540   6.297
28315WAT     H285188   7.855   4.592   6.366
28316WAT      O85189   7.966   8.076   7.400
28316WAT     H185190   7.996   8.017   7.474
28316WAT     H285191   7.987   8.032   7.312
28317WAT      O85192   9.777   8.114   6.293
28317WAT     H185193   9.823   8.074   6.371
28317WAT     H285194   9.818   8.203   6.271
28318WAT      O85195   1.815   6.056   5.264
28318WAT     H185196   1.734   6.086   5.314
28318WAT     H285197   1.825   5.957   5.273
28319WAT      O85198   6.136   3.665   3.089
28319WAT     H185199   6.217   3.668   3.030
28319WAT     H285200   6.092   3.755   3.091
28320WAT      O85201   2.614   6.674   4.481
28320WAT     H185202   2.547   6.641   4.414
28320WAT     H285203   2.706   6.665   4.444
28321WAT      O85204   1.770   3.758   9.453
28321WAT     H185205   1.828   3.715   9.522
28321WAT     H285206   1.783   3.712   9.365
28322WAT      O85207   2.710   2.047   8.738
28322WAT     H185208   2.613   2.025   8.743
28322WAT     H285209   2.760   1.991   8.804
28323WAT      O85210   7.466   2.299   8.522
28323WAT     H185211   7.473   2.296   8.622
28323WAT     H285212   7.381   2.256   8.493
28324WAT      O85213   1.553   8.018   4.254
28324WAT     H185214   1.591   8.004   4.162
28324WAT     H285215   1.454   8.005   4.251
28325WAT      O85216   3.324   7.223   1.169
28325WAT     H185217   3.285   7.310   1.198
28325WAT     H285218   3.366   7.234   1.079
28326WAT      O85219   6.833   4.516   5.164
28326WAT     H185220   6.774   4.595   5.182
28326WAT     H285221   6.809   4.475   5.076
28327WAT      O85222   8.255   6.040   3.289
28327WAT     H185223   8.175   6.100   3.290
28327WAT     H285224   8.242   5.966   3.356
28328WAT      O85225   1.784   0.812   1.637
28328WAT     H185226   1.715   0.883   1.648
28328WAT     H285227   1.779   0.774   1.545
28329WAT      O85228   3.734   9.506   4.964
28329WAT     H185229   3.831   9.527   4.974
28329WAT     H285230   3.681   9.590   4.965
28330WAT      O85231   8.011   6.770   4.570
28330WAT     H185232   8.057   6.812   4.492
28330WAT     H285233   8.076   6.712   4.620
28331WAT      O85234   0.962   0.234   7.440
28331WAT     H185235   1.009   0.309   7.394
28331WAT     H285236   0.908   0.184   7.373
28332WAT      O85237   2.597   5.334   9.216
28332WAT     H185238   2.644   5.272   9.279
28332WAT     H285239   2.531   5.390   9.266
28333WAT      O85240   9.397   1.752   7.703
28333WAT     H185241   9.390   1.723   7.798
28333WAT     H285242   9.306   1.773   7.668
28334WAT      O85243   3.703   1.286   0.455
28334WAT     H185244   3.766   1.360   0.479
28334WAT     H285245   3.756   1.209   0.418
28335WAT      O85246   1.233   7.122   0.346
28335WAT     H185247   1.225   7.028   0.378
28335WAT     H285248   1.252   7.122   0.247
28336WAT      O85249   0.078   4.265   5.620
28336WAT     H185250   0.055   4.345   5.676
28336WAT     H285251   0.143   4.208   5.670
28337WAT      O85252   4.708   4.239   8.123
28337WAT     H185253   4.619   4.281   8.105
28337WAT     H285254   4.767   4.305   8.168
28338WAT      O85255   5.427   5.912   8.673
28338WAT     H185256   5.379   5.844   8.729
28338WAT     H285257   5.482   5.971   8.732
28339WAT      O85258   1.714   2.956   0.901
28339WAT     H185259   1.788   2.999   0.953
28339WAT     H285260   1.639   3.021   0.891
28340WAT      O85261   7.196   3.910   3.885
28340WAT     H185262   7.201   4.000   3.841
28340WAT     H285263   7.171   3.921   3.981
28341WAT      O85264   6.609   7.495   2.448
28341WAT     H185265   6.533   7.525   2.505
28341WAT     H285266   6.573   7.447   2.368
28342WAT      O85267   1.281   4.332   1.906
28342WAT     H185268   1.348   4.353   1.977
28342WAT     H285269   1.217   4.263   1.940
28343WAT      O85270   7.085   3.690   5.927
28343WAT     H185271   6.986   3.682   5.929
28343WAT     H285272   7.125   3.641   6.005
28344WAT      O85273   8.373   4.903   4.813
28344WAT     H185274   8.443   4.835   4.790
28344WAT     H285275   8.413   4.972   4.874
28345WAT      O85276   9.661   7.187   3.735
28345WAT     H185277   9.606   7.172   3.817
28345WAT     H285278   9.739   7.246   3.757
28346WAT      O85279   7.963   5.273   0.418
28346WAT     H185280   7.911   5.260   0.502
28346WAT     H285281   8.055   5.305   0.440
28347WAT      O85282   4.464   7.844   6.245
28347WAT     H185283   4.380   7.864   6.195
28347WAT     H285284   4.517   7.928   6.257
28348WAT      O85285   4.405   1.511   3.074
28348WAT     H185286   4.444   1.571   3.004
28348WAT     H285287   4.471   1.501   3.148
28349WAT      O85288   4.225   0.137   3.328
28349WAT     H185289   4.186   0.135   3.236
28349WAT     H285290   4.264   0.048   3.350
28350WAT      O85291   5.754   4.771   6.355
28350WAT     H185292   5.807   4.773   6.270
28350WAT     H285293   5.702   4.856   6.364
28351WAT      O85294   0.768   5.183   3.478
28351WAT     H185295   0.726   5.244   3.411
28351WAT     H285296   0.700   5.115   3.509
28352WAT      O85297   3.001   9.059   7.426
28352WAT     H185298   3.031   9.144   7.469
28352WAT     H285299   2.995   8.986   7.495
28353WAT      O85300   0.881   2.502   4.467
28353WAT     H185301   0.791   2.465   4.443
28353WAT     H285302   0.952   2.451   4.418
28354WAT      O85303   6.072   3.273   6.399
28354WAT     H185304   6.028   3.363   6.396
28354WAT     H285305   6.160   3.278   6.352
28355WAT      O85306   4.540   5.779   9.463
28355WAT     H185307   4.468   5.785   9.531
28355WAT     H285308   4.598   5.860   9.467
28356WAT      O85309   2.863   4.604   4.856
28356WAT     H185310   2.793   4.532   4.856
28356WAT     H285311   2.855   4.657   4.940
28357WAT      O85312   4.551   0.713   6.279
28357WAT     H185313   4.550   0.623   6.323
28357WAT     H285314   4.602   0.777   6.337
28358WAT      O85315   1.813   0.748   7.399
28358WAT     H185316   1.820   0.763   7.497
28358WAT     H285317   1.890   0.793   7.352
28359WAT      O85318   6.565   4.991   9.535
28359WAT     H185319   6.578   4.932   9.455
28359WAT     H285320   6.654   5.010   9.576
28360WAT      O85321   0.581   7.732   5.210
28360WAT     H185322   0.606   7.644   5.170
28360WAT     H285323   0.484   7.733   5.231
28361WAT      O85324   4.227   8.302   9.040
28361WAT     H185325   4.195   8.217   9.082
28361WAT     H285326   4.189   8.380   9.090
28362WAT      O85327   9.151   1.118   9.164
28362WAT     H185328   9.100   1.096   9.081
28362WAT     H285329   9.092   1.169   9.227
28363WAT      O85330   7.633   0.023   9.704
28363WAT     H185331   7.689   0.090   9.754
28363WAT     H285332   7.612  -0.054   9.764
28364WAT      O85333   4.528   4.501   8.460
28364WAT     H185334   4.478   4.585   8.439
28364WAT     H285335   4.566   4.506   8.552
28365WAT      O85336   2.286   1.093   8.249
28365WAT     H185337   2.212   1.027   8.269
28365WAT     H285338   2.268   1.178   8.298
28366WAT      O85339   5.827   8.872   3.803
28366WAT     H185340   5.732   8.842   3.808
28366WAT     H285341   5.854   8.910   3.892
28367WAT      O85342   8.925   4.733   9.382
28367WAT     H185343   8.967   4.653   9.340
28367WAT     H285344   8.959   4.816   9.337
28368WAT      O85345   9.733   5.487   9.304
28368WAT     H185346   9.829   5.493   9.279
28368WAT     H285347   9.696   5.399   9.272
28369WAT      O85348   5.801   4.801   0.744
28369WAT     H185349   5.872   4.733   0.763
28369WAT     H285350   5.713   4.766   0.774
28370WAT      O85351   1.395   9.422   0.698
28370WAT     H185352   1.404   9.377   0.787
28370WAT     H285353   1.394   9.521   0.711
28371WAT      O85354   3.902   9.460   8.155
28371WAT     H185355   3.865   9.499   8.240
28371WAT     H285356   3.839   9.478   8.080
28372WAT      O85357   0.751   8.308   0.680
28372WAT     H185358   0.760   8.233   0.615
28372WAT     H285359   0.690   8.377   0.641
28373WAT      O85360   0.683   8.470   1.097
28373WAT     H185361   0.697   8.400   1.168
28373WAT     H285362   0.744   8.451   1.020
28374WAT      O85363   6.458   4.574   4.959
28374WAT     H185364   6.477   4.633   5.038
28374WAT     H285365   6.403   4.496   4.990
28375WAT      O85366   5.369   9.824   5.347
28375WAT     H185367   5.360   9.744   5.287
28375WAT     H285368   5.430   9.891   5.304
28376WAT      O85369   7.142   3.673   2.828
28376WAT     H185370   7.074   3.742   2.802
28376WAT     H285371   7.118   3.585   2.786
28377WAT      O85372   0.973   6.089   8.573
28377WAT     H185373   0.913   6.133   8.640
28377WAT     H285374   0.933   6.099   8.482
28378WAT      O85375   7.449   8.885   5.573
28378WAT     H185376   7.454   8.790   5.606
28378WAT     H285377   7.482   8.946   5.644
28379WAT      O85378   5.469   4.302   0.845
28379WAT     H185379   5.405   4.367   0.885
28379WAT     H285380   5.501   4.337   0.757
28380WAT      O85381   1.135   4.892   7.214
28380WAT     H185382   1.141   4.852   7.305
28380WAT     H285383   1.054   4.951   7.209
28381WAT      O85384   7.469   1.638   6.229
28381WAT     H185385   7.413   1.690   6.294
28381WAT     H285386   7.475   1.543   6.259
28382WAT      O85387   0.668   2.307   0.694
28382WAT     H185388   0.738   2.312   0.623
28382WAT     H285389   0.691   2.370   0.768
28383WAT      O85390   4.911   9.137   8.185
28383WAT     H185391   4.862   9.053   8.159
28383WAT     H285392   5.009   9.120   8.184
28384WAT      O85393   6.961   0.139   1.434
28384WAT     H185394   6.938   0.066   1.498
28384WAT     H285395   6.991   0.098   1.347
28385WAT      O85396   5.226   8.218   6.164
28385WAT     H185397   5.202   8.269   6.082
28385WAT     H285398   5.287   8.273   6.222
28386WAT      O85399   0.226   7.982   6.785
28386WAT     H185400   0.237   8.019   6.693
28386WAT     H285401   0.157   7.910   6.784
28387WAT      O85402   1.015   0.902   3.129
28387WAT     H185403   0.951   0.825   3.126
28387WAT     H285404   1.104   0.871   3.162
28388WAT      O85405   1.967   3.909   3.543
28388WAT     H185406   2.002   3.989   3.493
28388WAT     H285407   2.036   3.877   3.608
28389WAT      O85408   3.574   2.917   8.790
28389WAT     H185409   3.535   2.831   8.757
28389WAT     H285410   3.502   2.972   8.832
28390WAT      O85411   7.488   3.648   4.331
28390WAT     H185412   7.453   3.630   4.239
28390WAT     H285413   7.521   3.562   4.371
28391WAT      O85414   4.101   8.431   0.681
28391WAT     H185415   4.185   8.377   0.675
28391WAT     H285416   4.117   8.523   0.646
28392WAT      O85417   7.959   0.752   3.506
28392WAT     H185418   7.990   0.822   3.571
28392WAT     H285419   7.884   0.700   3.547
28393WAT      O85420   1.523   4.350   4.258
28393WAT     H185421   1.462   4.422   4.225
28393WAT     H285422   1.611   4.357   4.212
28394WAT      O85423   3.631   1.943   8.248
28394WAT     H185424   3.549   1.982   8.288
28394WAT     H285425   3.632   1.844   8.263
28395WAT      O85426   6.902   7.647   0.319
28395WAT     H185427   6.814   7.608   0.344
28395WAT     H285428   6.889   7.720   0.252
28396WAT      O85429   1.233   6.707   6.564
28396WAT     H185430   1.259   6.803   6.564
28396WAT     H285431   1.240   6.670   6.657
28397WAT      O85432   6.282   3.747   0.213
28397WAT     H185433   6.292   3.829   0.269
28397WAT     H285434   6.186   3.718   0.214
28398WAT      O85435   9.455   4.134   0.111
28398WAT     H185436   9.548   4.159   0.137
28398WAT     H285437   9.450   4.035   0.094
28399WAT      O85438   7.895   1.843   3.187
28399WAT     H185439   7.874   1.905   3.111
28399WAT     H285440   7.810   1.812   3.228
28400WAT      O85441   0.213   5.643   4.832
28400WAT     H185442   0.214   5.659   4.734
28400WAT     H285443   0.164   5.558   4.851
28401WAT      O85444   2.195   1.791   2.658
28401WAT     H185445   2.127   1.756   2.723
28401WAT     H285446   2.176   1.887   2.638
28402WAT      O85447   4.040   6.341   0.581
28402WAT     H185448   4.048   6.433   0.543
28402WAT     H285449   4.056   6.344   0.680
28403WAT      O85450   4.438   5.904   3.300
28403WAT     H185451   4.480   5.995   3.303
28403WAT     H285452   4.362   5.901   3.365
28404WAT      O85453   0.116   7.076   8.390
28404WAT     H185454   0.069   7.039   8.470
28404WAT     H285455   0.215   7.067   8.403
28405WAT      O85456   4.058   9.547   5.700
28405WAT     H185457   4.082   9.637   5.736
28405WAT     H285458   4.081   9.476   5.767
28406WAT      O85459   4.511   8.472   4.617
28406WAT     H185460   4.557   8.531   4.550
28406WAT     H285461   4.571   8.395   4.641
28407WAT      O85462   6.741   6.705   0.508
28407WAT     H185463   6.694   6.635   0.454
28407WAT     H285464   6.733   6.793   0.461
28408WAT      O85465   7.691   2.057   4.049
28408WAT     H185466   7.665   1.963   4.072
28408WAT     H285467   7.639   2.121   4.106
28409WAT      O85468   2.097   2.850   4.579
28409WAT     H185469   2.048   2.797   4.649
28409WAT     H285470   2.091   2.947   4.601
28410WAT      O85471   5.161   6.037   7.164
28410WAT     H185472   5.112   6.114   7.204
28410WAT     H285473   5.258   6.060   7.155
28411WAT      O85474   1.231   6.715   2.787
28411WAT     H185475   1.172   6.647   2.828
28411WAT     H285476   1.307   6.736   2.848
28412WAT      O85477   7.278   6.055   9.852
28412WAT     H185478   7.290   6.122   9.925
28412WAT     H285479   7.295   6.099   9.764
28413WAT      O85480   6.194   6.256   6.565
28413WAT     H185481   6.156   6.272   6.656
28413WAT     H285482   6.206   6.158   6.550
28414WAT      O85483   4.559   4.020   7.837
28414WAT     H185484   4.480   3.966   7.864
28414WAT     H285485   4.625   4.022   7.911
28415WAT      O85486   4.325   5.380   5.332
28415WAT     H185487   4.310   5.311   5.260
28415WAT     H285488   4.281   5.465   5.306
28416WAT      O85489   7.223   7.892   0.958
28416WAT     H185490   7.141   7.871   1.012
28416WAT     H285491   7.287   7.943   1.015
28417WAT      O85492   4.789   6.001   8.489
28417WAT     H185493   4.808   5.903   8.490
28417WAT     H285494   4.696   6.016   8.455
28418WAT      O85495   8.195   8.822   0.050
28418WAT     H185496   8.165   8.893   0.114
28418WAT     H285497   8.114   8.775   0.013
28419WAT      O85498   5.870   0.690   9.269
28419WAT     H185499   5.814   0.609   9.250
28419WAT     H285500   5.814   0.773   9.256
28420WAT      O85501   0.034   7.724   0.157
28420WAT     H185502   0.107   7.762   0.100
28420WAT     H285503  -0.054   7.747   0.117
28421WAT      O85504   0.409   4.799   7.822
28421WAT     H185505   0.363   4.886   7.842
28421WAT     H285506   0.360   4.752   7.748
28422WAT      O85507   3.013   1.961   5.721
28422WAT     H185508   2.923   2.000   5.741
28422WAT     H285509   3.027   1.880   5.778
28423WAT      O85510   9.077   0.674   7.762
28423WAT     H185511   9.014   0.752   7.761
28423WAT     H285512   9.171   0.706   7.773
28424WAT      O85513   6.433   6.491   7.120
28424WAT     H185514   6.400   6.514   7.029
28424WAT     H285515   6.480   6.403   7.118
28425WAT      O85516   8.947   7.665   5.706
28425WAT     H185517   8.958   7.739   5.640
28425WAT     H285518   9.035   7.621   5.723
28426WAT      O85519   7.285   3.070   8.946
28426WAT     H185520   7.331   3.145   8.993
28426WAT     H285521   7.190   3.096   8.926
28427WAT      O85522   5.016   9.786   9.061
28427WAT     H185523   5.113   9.766   9.076
28427WAT     H285524   4.964   9.758   9.142
28428WAT      O85525   0.982   5.512   2.219
28428WAT     H185526   1.051   5.442   2.236
28428WAT     H285527   0.980   5.535   2.122
28429WAT      O85528   6.126   1.414   0.882
28429WAT     H185529   6.157   1.422   0.977
28429WAT     H285530   6.037   1.460   0.872
28430WAT      O85531   3.392   0.473   4.045
28430WAT     H185532   3.441   0.426   3.971
28430WAT     H285533   3.439   0.457   4.131
28431WAT      O85534   6.663   3.805   8.329
28431WAT     H185535   6.602   3.869   8.283
28431WAT     H285536   6.758   3.829   8.309
28432WAT      O85537   2.069   2.327   3.487
28432WAT     H185538   2.079   2.422   3.458
28432WAT     H285539   2.148   2.274   3.456
28433WAT      O85540   5.770   7.076   6.302
28433WAT     H185541   5.851   7.134   6.295
28433WAT     H285542   5.795   6.981   6.282
28434WAT      O85543   4.126   3.357   7.137
28434WAT     H185544   4.117   3.295   7.215
28434WAT     H285545   4.223   3.377   7.122
28435WAT      O85546   0.208   1.674   6.701
28435WAT     H185547   0.233   1.723   6.618
28435WAT     H285548   0.158   1.735   6.762
28436WAT      O85549   5.070   9.018   1.850
28436WAT     H185550   5.164   8.997   1.876
28436WAT     H285551   5.022   8.933   1.827
28437WAT      O85552   9.448   5.111   4.370
28437WAT     H185553   9.416   5.138   4.279
28437WAT     H285554   9.410   5.022   4.395
28438WAT      O85555   8.146   3.656   0.160
28438WAT     H185556   8.121   3.658   0.063
28438WAT     H285557   8.159   3.561   0.188
28439WAT      O85558   3.950   4.809   5.176
28439WAT     H185559   3.881   4.882   5.176
28439WAT     H285560   3.995   4.806   5.265
28440WAT      O85561   5.889   1.474   3.152
28440WAT     H185562   5.952   1.425   3.092
28440WAT     H285563   5.802   1.487   3.105
28441WAT      O85564   4.078   6.157   5.914
28441WAT     H185565   4.107   6.061   5.917
28441WAT     H285566   4.011   6.169   5.841
28442WAT      O85567   0.024   2.911   7.054
28442WAT     H185568   0.077   2.969   6.993
28442WAT     H285569  -0.057   2.877   7.006
28443WAT      O85570   4.836   5.355   7.093
28443WAT     H185571   4.744   5.380   7.061
28443WAT     H285572   4.836   5.346   7.192
28444WAT      O85573   3.250   2.183   7.356
28444WAT     H185574   3.226   2.265   7.304
28444WAT     H285575   3.182   2.166   7.426
28445WAT      O85576   2.868   4.649   2.705
28445WAT     H185577   2.939   4.590   2.743
28445WAT     H285578   2.908   4.711   2.637
28446WAT      O85579   6.036   9.660   2.738
28446WAT     H185580   6.047   9.741   2.796
28446WAT     H285581   6.096   9.587   2.772
28447WAT      O85582   5.246   0.020   9.378
28447WAT     H185583   5.189   0.100   9.361
28447WAT     H285584   5.262  -0.029   9.292
28448WAT      O85585   5.835   6.052   2.566
28448WAT     H185586   5.930   6.065   2.538
28448WAT     H285587   5.785   6.137   2.554
28449WAT      O85588   1.592   1.249   8.093
28449WAT     H185589   1.602   1.344   8.061
28449WAT     H285590   1.502   1.237   8.135
28450WAT      O85591   8.905   8.737   9.419
28450WAT     H185592   8.865   8.786   9.341
28450WAT     H285593   8.965   8.664   9.386
28451WAT      O85594   9.823   0.174   4.998
28451WAT     H185595   9.887   0.245   5.027
28451WAT     H285596   9.839   0.153   4.902
28452WAT      O85597   3.482   4.885   9.675
28452WAT     H185598   3.531   4.799   9.659
28452WAT     H285599   3.400   4.887   9.616
28453WAT      O85600   4.249   0.946   6.811
28453WAT     H185601   4.286   0.947   6.904
28453WAT     H285602   4.298   1.013   6.755
28454WAT      O85603   3.154   4.582   7.350
28454WAT     H185604   3.228   4.613   7.410
28454WAT     H285605   3.185   4.502   7.297
28455WAT      O85606   8.118   5.476   8.579
28455WAT     H185607   8.118   5.380   8.605
28455WAT     H285608   8.167   5.487   8.492
28456WAT      O85609   4.331   9.721   3.316
28456WAT     H185610   4.247   9.667   3.313
28456WAT     H285611   4.402   9.674   3.264
28457WAT      O85612   0.532   8.026   6.814
28457WAT     H185613   0.559   7.964   6.741
28457WAT     H285614   0.434   8.015   6.833
28458WAT      O85615   2.947   5.931   6.341
28458WAT     H185616   2.956   5.849   6.285
28458WAT     H285617   3.010   5.927   6.418
28459WAT      O85618   8.169   3.751   6.883
28459WAT     H185619   8.092   3.788   6.831
28459WAT     H285620   8.244   3.728   6.820
28460WAT      O85621   8.674   6.218   7.833
28460WAT     H185622   8.658   6.135   7.780
28460WAT     H285623   8.604   6.285   7.810
28461WAT      O85624   0.048   2.281   3.622
28461WAT     H185625  -0.048   2.308   3.612
28461WAT     H285626   0.104   2.328   3.554
28462WAT      O85627   7.412   6.840   2.601
28462WAT     H185628   7.373   6.832   2.509
28462WAT     H285629   7.385   6.760   2.655
28463WAT      O85630   5.405   1.890   2.089
28463WAT     H185631   5.332   1.824   2.071
28463WAT     H285632   5.448   1.869   2.177
28464WAT      O85633   8.345   5.953   6.009
28464WAT     H185634   8.282   6.028   5.987
28464WAT     H285635   8.318   5.911   6.096
28465WAT      O85636   0.693   8.066   1.556
28465WAT     H185637   0.611   8.113   1.525
28465WAT     H285638   0.709   8.088   1.653
28466WAT      O85639   1.193   5.917   8.519
28466WAT     H185640   1.104   5.954   8.546
28466WAT     H285641   1.265   5.982   8.541
28467WAT      O85642   7.730   6.859   6.194
28467WAT     H185643   7.672   6.778   6.186
28467WAT     H285644   7.674   6.939   6.212
28468WAT      O85645   0.191   9.219   9.678
28468WAT     H185646   0.220   9.124   9.689
28468WAT     H285647   0.092   9.221   9.662
28469WAT      O85648   3.849   9.724   2.031
28469WAT     H185649   3.943   9.758   2.021
28469WAT     H285650   3.852   9.633   2.073
28470WAT      O85651   6.993   5.829   3.587
28470WAT     H185652   7.052   5.750   3.603
28470WAT     H285653   6.906   5.799   3.548
28471WAT      O85654   5.468   0.489   8.975
28471WAT     H185655   5.552   0.543   8.977
28471WAT     H285656   5.446   0.464   8.881
28472WAT      O85657   4.185   7.749   8.448
28472WAT     H185658   4.208   7.846   8.453
28472WAT     H285659   4.256   7.697   8.496
28473WAT      O85660   3.848   1.975   3.856
28473WAT     H185661   3.859   1.897   3.917
28473WAT     H285662   3.837   1.943   3.762
28474WAT      O85663   3.792   1.900   1.825
28474WAT     H185664   3.845   1.964   1.881
28474WAT     H285665   3.779   1.938   1.734
28475WAT      O85666   8.237   1.447   2.237
28475WAT     H185667   8.181   1.506   2.295
28475WAT     H285668   8.327   1.435   2.278
28476WAT      O85669   0.909   8.721   3.540
28476WAT     H185670   0.910   8.695   3.443
28476WAT     H285671   0.831   8.782   3.557
28477WAT      O85672   3.265   7.646   0.222
28477WAT     H185673   3.172   7.610   0.230
28477WAT     H285674   3.262   7.746   0.229
28478WAT      O85675   3.919   3.188   5.203
28478WAT     H185676   3.981   3.151   5.133
28478WAT     H285677   3.970   3.247   5.265
28479WAT      O85678   2.097   9.684   5.570
28479WAT     H185679   2.062   9.674   5.663
28479WAT     H285680   2.192   9.717   5.575
28480WAT      O85681   0.762   2.369   5.008
28480WAT     H185682   0.800   2.378   4.916
28480WAT     H285683   0.670   2.331   5.003
28481WAT      O85684   3.600   4.094   2.286
28481WAT     H185685   3.654   4.061   2.208
28481WAT     H285686   3.633   4.184   2.313
28482WAT      O85687   6.175   2.185   9.284
28482WAT     H185688   6.147   2.261   9.343
28482WAT     H285689   6.099   2.121   9.273
28483WAT      O85690   0.447   1.529   4.850
28483WAT     H185691   0.390   1.581   4.786
28483WAT     H285692   0.391   1.462   4.898
28484WAT      O85693   9.661   6.942   9.571
28484WAT     H185694   9.656   6.851   9.612
28484WAT     H285695   9.719   7.001   9.627
28485WAT      O85696   7.328   6.378   1.225
28485WAT     H185697   7.315   6.458   1.166
28485WAT     H285698   7.322   6.406   1.321
28486WAT      O85699   2.943   1.486   1.099
28486WAT     H185700   2.986   1.447   1.018
28486WAT     H285701   2.848   1.457   1.104
28487WAT      O85702   9.367   7.920   8.568
28487WAT     H185703   9.315   7.998   8.605
28487WAT     H285704   9.391   7.857   8.642
28488WAT      O85705   3.739   8.439   2.541
28488WAT     H185706   3.663   8.501   2.523
28488WAT     H285707   3.819   8.492   2.568
28489WAT      O85708   1.874   0.178   3.714
28489WAT     H185709   1.963   0.132   3.705
28489WAT     H285710   1.804   0.110   3.739
28490WAT      O85711   1.747   0.511   8.802
28490WAT     H185712   1.835   0.557   8.790
28490WAT     H285713   1.743   0.470   8.893
28491WAT      O85714   1.481   6.407   5.220
28491WAT     H185715   1.511   6.478   5.157
28491WAT     H285716   1.382   6.392   5.208
28492WAT      O85717   8.048   9.345   2.900
28492WAT     H185718   8.053   9.282   2.822
28492WAT     H285719   7.960   9.391   2.901
28493WAT      O85720   3.937   0.067   4.259
28493WAT     H185721   3.971   0.036   4.348
28493WAT     H285722   3.892   0.156   4.270
28494WAT      O85723   0.008   7.368   8.091
28494WAT     H185724   0.080   7.349   8.024
28494WAT     H285725  -0.066   7.419   8.048
28495WAT      O85726   8.037   5.914   9.656
28495WAT     H185727   7.951   5.862   9.661
28495WAT     H285728   8.024   6.004   9.697
28496WAT      O85729   6.224   7.189   4.387
28496WAT     H185730   6.182   7.233   4.308
28496WAT     H285731   6.225   7.253   4.464
28497WAT      O85732   6.794   8.880   4.595
28497WAT     H185733   6.816   8.975   4.575
28497WAT     H285734   6.700   8.861   4.566
28498WAT      O85735   5.209   0.984   1.488
28498WAT     H185736   5.170   1.044   1.559
28498WAT     H285737   5.139   0.919   1.458
28499WAT      O85738   2.975   7.572   4.045
28499WAT     H185739   3.058   7.610   4.005
28499WAT     H285740   2.955   7.620   4.131
28500WAT      O85741   4.431   0.886   0.257
28500WAT     H185742   4.344   0.836   0.248
28500WAT     H285743   4.487   0.868   0.177
28501WAT      O85744   8.857   5.141   8.219
28501WAT     H185745   8.856   5.232   8.262
28501WAT     H285746   8.948   5.122   8.183
28502WAT      O85747   9.599   4.456   2.942
28502WAT     H185748   9.502   4.459   2.967
28502WAT     H285749   9.620   4.368   2.901
28503WAT      O85750   6.473   5.845   7.934
28503WAT     H185751   6.436   5.792   8.010
28503WAT     H285752   6.433   5.812   7.848
28504WAT      O85753   4.501   5.766   1.217
28504WAT     H185754   4.538   5.829   1.286
28504WAT     H285755   4.564   5.690   1.204
28505WAT      O85756   0.986   2.122   4.889
28505WAT     H185757   1.007   2.026   4.873
28505WAT     H285758   1.028   2.152   4.975
28506WAT      O85759   4.224   3.530   0.712
28506WAT     H185760   4.264   3.585   0.786
28506WAT     H285761   4.253   3.567   0.624
28507WAT      O85762   0.371   0.901   5.227
28507WAT     H185763   0.442   0.950   5.278
28507WAT     H285764   0.411   0.819   5.185
28508WAT      O85765   4.721   6.933   9.475
28508WAT     H185766   4.817   6.930   9.504
28508WAT     H285767   4.669   6.865   9.526
28509WAT      O85768   4.807   1.155   5.043
28509WAT     H185769   4.843   1.143   5.135
28509WAT     H285770   4.810   1.068   4.994
28510WAT      O85771   7.063   3.635   8.402
28510WAT     H185772   7.063   3.544   8.444
28510WAT     H285773   7.008   3.633   8.319
28511WAT      O85774   1.012   0.672   7.386
28511WAT     H185775   1.041   0.744   7.448
28511WAT     H285776   0.960   0.711   7.310
28512WAT      O85777   6.461   0.411   1.021
28512WAT     H185778   6.556   0.427   1.048
28512WAT     H285779   6.456   0.332   0.961
28513WAT      O85780   0.219   8.449   3.880
28513WAT     H185781   0.173   8.426   3.794
28513WAT     H285782   0.222   8.368   3.938
28514WAT      O85783   3.841   3.680   4.540
28514WAT     H185784   3.917   3.717   4.593
28514WAT     H285785   3.863   3.587   4.512
28515WAT      O85786   8.176   4.577   6.203
28515WAT     H185787   8.117   4.585   6.123
28515WAT     H285788   8.135   4.513   6.268
28516WAT      O85789   7.374   7.189   1.485
28516WAT     H185790   7.393   7.255   1.558
28516WAT     H285791   7.422   7.216   1.401
28517WAT      O85792   3.125   1.945   9.503
28517WAT     H185793   3.079   1.974   9.419
28517WAT     H285794   3.110   2.013   9.575
28518WAT      O85795   7.873   3.321   0.694
28518WAT     H185796   7.859   3.305   0.792
28518WAT     H285797   7.851   3.238   0.643
28519WAT      O85798   0.325   5.543   5.254
28519WAT     H185799   0.344   5.481   5.330
28519WAT     H285800   0.326   5.637   5.286
28520WAT      O85801   1.968   6.419   7.239
28520WAT     H185802   1.990   6.488   7.171
28520WAT     H285803   1.895   6.359   7.205
28521WAT      O85804   6.353   7.637   1.925
28521WAT     H185805   6.413   7.583   1.864
28521WAT     H285806   6.344   7.590   2.012
28522WAT      O85807   0.463   4.391   1.753
28522WAT     H185808   0.458   4.433   1.844
28522WAT     H285809   0.370   4.374   1.720
28523WAT      O85810   6.311   8.947   4.592
28523WAT     H185811   6.289   8.997   4.509
28523WAT     H285812   6.302   9.007   4.671
28524WAT      O85813   3.217   8.815   1.377
28524WAT     H185814   3.267   8.871   1.311
28524WAT     H285815   3.189   8.729   1.334
28525WAT      O85816   8.404   6.893   4.682
28525WAT     H185817   8.401   6.808   4.735
28525WAT     H285818   8.483   6.948   4.710
28526WAT      O85819   7.422   9.102   6.874
28526WAT     H185820   7.344   9.153   6.912
28526WAT     H285821   7.407   9.086   6.777
28527WAT      O85822   1.944   9.215   4.802
28527WAT     H185823   1.846   9.232   4.814
28527WAT     H285824   1.958   9.155   4.723
28528WAT      O85825   9.606   3.583   8.082
28528WAT     H185826   9.635   3.557   8.174
28528WAT     H285827   9.543   3.514   8.047
28529WAT      O85828   4.451   5.812   2.717
28529WAT     H185829   4.497   5.760   2.645
28529WAT     H285830   4.439   5.755   2.797
28530WAT      O85831   4.621   8.338   7.366
28530WAT     H185832   4.521   8.331   7.370
28530WAT     H285833   4.654   8.298   7.281
28531WAT      O85834   2.347   5.804   5.033
28531WAT     H185835   2.417   5.782   4.965
28531WAT     H285836   2.258   5.770   5.001
28532WAT      O85837   2.637   3.307   9.117
28532WAT     H185838   2.714   3.244   9.129
28532WAT     H285839   2.552   3.258   9.133
28533WAT      O85840   1.981   5.878   4.409
28533WAT     H185841   2.044   5.805   4.433
28533WAT     H285842   2.032   5.955   4.370
28534WAT      O85843   0.863   1.581   4.856
28534WAT     H185844   0.937   1.536   4.906
28534WAT     H285845   0.889   1.674   4.832
28535WAT      O85846   6.996   8.126   3.140
28535WAT     H185847   7.004   8.187   3.219
28535WAT     H285848   6.906   8.137   3.098
28536WAT      O85849   8.421   8.444   7.737
28536WAT     H185850   8.511   8.401   7.742
28536WAT     H285851   8.365   8.413   7.814
28537WAT      O85852   3.234   8.773   7.889
28537WAT     H185853   3.228   8.679   7.857
28537WAT     H285854   3.154   8.793   7.946
28538WAT      O85855   8.586   1.880   3.819
28538WAT     H185856   8.543   1.867   3.909
28538WAT     H285857   8.671   1.932   3.830
28539WAT      O85858   0.795   7.545   7.549
28539WAT     H185859   0.851   7.466   7.574
28539WAT     H285860   0.699   7.518   7.549
28540WAT      O85861   2.278   8.564   4.153
28540WAT     H185862   2.355   8.611   4.195
28540WAT     H285863   2.306   8.524   4.066
28541WAT      O85864   9.120   0.325   3.595
28541WAT     H185865   9.168   0.245   3.558
28541WAT     H285866   9.112   0.395   3.523
28542WAT      O85867   7.958   5.152   0.149
28542WAT     H185868   7.927   5.207   0.226
28542WAT     H285869   8.001   5.210   0.080
28543WAT      O85870   6.394   7.479   6.766
28543WAT     H185871   6.400   7.521   6.856
28543WAT     H285872   6.297   7.466   6.742
28544WAT      O85873   0.413   5.321   4.866
28544WAT     H185874   0.321   5.356   4.853
28544WAT     H285875   0.477   5.375   4.810
28545WAT      O85876   0.982   3.520   6.204
28545WAT     H185877   0.890   3.490   6.233
28545WAT     H285878   1.044   3.441   6.205
28546WAT      O85879   8.741   5.883   7.222
28546WAT     H185880   8.706   5.866   7.314
28546WAT     H285881   8.717   5.806   7.163
28547WAT      O85882   9.125   8.710   7.705
28547WAT     H185883   9.134   8.617   7.742
28547WAT     H285884   9.069   8.765   7.767
28548WAT      O85885   1.899   3.427   5.810
28548WAT     H185886   1.998   3.433   5.792
28548WAT     H285887   1.858   3.363   5.744
28549WAT      O85888   2.214   2.254   6.290
28549WAT     H185889   2.260   2.168   6.312
28549WAT     H285890   2.149   2.277   6.362
28550WAT      O85891   5.599   8.227   4.767
28550WAT     H185892   5.688   8.267   4.790
28550WAT     H285893   5.613   8.137   4.726
28551WAT      O85894   8.184   3.985   4.738
28551WAT     H185895   8.115   4.022   4.676
28551WAT     H285896   8.275   3.993   4.696
28552WAT      O85897   4.772   0.255   1.189
28552WAT     H185898   4.673   0.243   1.181
28552WAT     H285899   4.804   0.321   1.121
28553WAT      O85900   0.986   3.119   3.864
28553WAT     H185901   1.033   3.083   3.783
28553WAT     H285902   1.051   3.131   3.938
28554WAT      O85903   6.056   0.222   8.704
28554WAT     H185904   6.143   0.174   8.715
28554WAT     H285905   6.045   0.249   8.608
28555WAT      O85906   8.003   1.867   0.530
28555WAT     H185907   8.075   1.799   0.525
28555WAT     H285908   7.939   1.844   0.603
28556WAT      O85909   5.060   5.124   8.696
28556WAT     H185910   4.975   5.176   8.683
28556WAT     H285911   5.041   5.026   8.692
28557WAT      O85912   0.737   6.288   8.653
28557WAT     H185913   0.666   6.263   8.719
28557WAT     H285914   0.719   6.242   8.566
28558WAT      O85915   9.873   6.768   0.377
28558WAT     H185916   9.905   6.837   0.312
28558WAT     H285917   9.821   6.812   0.450
28559WAT      O85918   4.266   5.891   4.281
28559WAT     H185919   4.302   5.956   4.347
28559WAT     H285920   4.214   5.820   4.328
28560WAT      O85921   4.169   4.366   0.051
28560WAT     H185922   4.180   4.341   0.147
28560WAT     H285923   4.257   4.395   0.013
28561WAT      O85924   3.729   3.254   7.871
28561WAT     H185925   3.688   3.233   7.783
28561WAT     H285926   3.785   3.336   7.864
28562WAT      O85927   7.494   3.393   2.609
28562WAT     H185928   7.527   3.306   2.573
28562WAT     H285929   7.448   3.377   2.697
28563WAT      O85930   4.359   1.955   6.206
28563WAT     H185931   4.383   1.990   6.296
28563WAT     H285932   4.271   1.907   6.212
28564WAT      O85933   3.570   7.691   0.145
28564WAT     H185934   3.491   7.643   0.182
28564WAT     H285935   3.636   7.709   0.218
28565WAT      O85936   1.644   1.493   0.186
28565WAT     H185937   1.545   1.487   0.200
28565WAT     H285938   1.692   1.450   0.263
28566WAT      O85939   0.843   0.957   6.859
28566WAT     H185940   0.922   0.911   6.901
28566WAT     H285941   0.771   0.968   6.927
28567WAT      O85942   7.706   2.801   5.545
28567WAT     H185943   7.699   2.766   5.452
28567WAT     H285944   7.674   2.896   5.547
28568WAT      O85945   3.558   0.409   5.100
28568WAT     H185946   3.608   0.489   5.066
28568WAT     H285947   3.477   0.439   5.150
28569WAT      O85948   2.519   4.771   6.151
28569WAT     H185949   2.464   4.713   6.092
28569WAT     H285950   2.465   4.849   6.182
28570WAT      O85951   4.516   4.010   1.464
28570WAT     H185952   4.524   4.002   1.563
28570WAT     H285953   4.593   3.962   1.421
28571WAT      O85954   7.800   9.385   4.705
28571WAT     H185955   7.780   9.334   4.789
28571WAT     H285956   7.782   9.327   4.626
28572WAT      O85957   8.030   5.907   5.818
28572WAT     H185958   8.052   5.838   5.749
28572WAT     H285959   7.930   5.919   5.822
28573WAT      O85960   7.558   4.527   3.998
28573WAT     H185961   7.475   4.473   4.010
28573WAT     H285962   7.570   4.588   4.075
28574WAT      O85963   0.176   5.232   1.504
28574WAT     H185964   0.123   5.161   1.457
28574WAT     H285965   0.113   5.293   1.554
28575WAT      O85966   3.356   8.670   6.802
28575WAT     H185967   3.318   8.731   6.871
28575WAT     H285968   3.284   8.610   6.766
28576WAT      O85969   6.694   4.144   8.523
28576WAT     H185970   6.635   4.225   8.519
28576WAT     H285971   6.637   4.062   8.536
28577WAT      O85972   0.533   1.158   4.929
28577WAT     H185973   0.617   1.208   4.951
28577WAT     H285974   0.454   1.219   4.936
28578WAT      O85975   9.033   8.474   9.877
28578WAT     H185976   9.057   8.424   9.960
28578WAT     H285977   9.111   8.476   9.815
28579WAT      O85978   7.499   8.073   0.085
28579WAT     H185979   7.464   7.979   0.077
28579WAT     H285980   7.548   8.083   0.172
28580WAT      O85981   9.037   6.772   4.321
28580WAT     H185982   9.068   6.682   4.291
28580WAT     H285983   9.051   6.781   4.420
28581WAT      O85984   3.296   3.807   2.085
28581WAT     H185985   3.330   3.856   2.005
28581WAT     H285986   3.301   3.867   2.165
28582WAT      O85987   9.251   7.568   6.081
28582WAT     H185988   9.185   7.640   6.061
28582WAT     H285989   9.233   7.530   6.171
28583WAT      O85990   1.035   6.489   9.214
28583WAT     H185991   1.118   6.436   9.196
28583WAT     H285992   0.961   6.456   9.155
28584WAT      O85993   3.492   5.247   1.411
28584WAT     H185994   3.535   5.185   1.345
28584WAT     H285995   3.533   5.338   1.404
28585WAT      O85996   3.706   2.946   3.874
28585WAT     H185997   3.643   2.909   3.806
28585WAT     H285998   3.659   3.014   3.930
28586WAT      O85999   5.168   3.247   2.043
28586WAT     H186000   5.100   3.318   2.028
28586WAT     H286001   5.183   3.197   1.958
28587WAT      O86002   3.977   8.383   1.092
28587WAT     H186003   3.897   8.373   1.150
28587WAT     H286004   4.058   8.349   1.139
28588WAT      O86005   2.432   2.761   2.304
28588WAT     H186006   2.403   2.672   2.270
28588WAT     H286007   2.470   2.815   2.229
28589WAT      O86008   5.524   3.592   2.173
28589WAT     H186009   5.508   3.543   2.258
28589WAT     H286010   5.509   3.531   2.095
28590WAT      O86011   5.843   8.310   6.213
28590WAT     H186012   5.906   8.384   6.236
28590WAT     H286013   5.869   8.271   6.125
28591WAT      O86014   7.198   1.130   6.333
28591WAT     H186015   7.165   1.044   6.294
28591WAT     H286016   7.170   1.206   6.274
28592WAT      O86017   2.199   7.316   4.168
28592WAT     H186018   2.244   7.303   4.080
28592WAT     H286019   2.190   7.413   4.188
28593WAT      O86020   4.870   0.217   7.182
28593WAT     H186021   4.865   0.136   7.240
28593WAT     H286022   4.810   0.205   7.103
28594WAT      O86023   0.262   4.215   4.935
28594WAT     H186024   0.239   4.312   4.940
28594WAT     H286025   0.179   4.160   4.937
28595WAT      O86026   7.115   2.715   2.604
28595WAT     H186027   7.201   2.739   2.559
28595WAT     H286028   7.081   2.794   2.655
28596WAT      O86029   6.431   2.605   6.190
28596WAT     H186030   6.443   2.703   6.205
28596WAT     H286031   6.503   2.572   6.128
28597WAT      O86032   5.597   6.938   4.327
28597WAT     H186033   5.657   6.965   4.252
28597WAT     H286034   5.524   7.005   4.337
28598WAT      O86035   0.061   3.326   3.052
28598WAT     H186036  -0.017   3.269   3.025
28598WAT     H286037   0.118   3.344   2.972
28599WAT      O86038   3.656   4.911   0.846
28599WAT     H186039   3.706   4.997   0.838
28599WAT     H286040   3.629   4.896   0.941
28600WAT      O86041   3.716   1.707   5.721
28600WAT     H186042   3.764   1.621   5.704
28600WAT     H286043   3.630   1.688   5.769
28601WAT      O86044   9.539   5.456   8.859
28601WAT     H186045   9.601   5.489   8.929
28601WAT     H286046   9.455   5.511   8.860
28602WAT      O86047   8.025   5.570   3.427
28602WAT     H186048   7.960   5.496   3.409
28602WAT     H286049   8.004   5.612   3.515
28603WAT      O86050   4.479   0.745   1.454
28603WAT     H186051   4.513   0.651   1.451
28603WAT     H286052   4.390   0.746   1.500
28604WAT      O86053   9.348   8.752   0.454
28604WAT     H186054   9.441   8.760   0.488
28604WAT     H286055   9.322   8.655   0.450
28605WAT      O86056   9.307   3.348   7.600
28605WAT     H186057   9.265   3.262   7.630
28605WAT     H286058   9.400   3.354   7.635
28606WAT      O86059   4.866   2.916   0.715
28606WAT     H186060   4.792   2.982   0.703
28606WAT     H286061   4.851   2.864   0.799
28607WAT      O86062   1.592   8.667   5.772
28607WAT     H186063   1.602   8.570   5.751
28607WAT     H286064   1.678   8.714   5.750
28608WAT      O86065   6.784   6.125   9.497
28608WAT     H186066   6.826   6.129   9.588
28608WAT     H286067   6.717   6.050   9.494
28609WAT      O86068   8.383   2.465   6.878
28609WAT     H186069   8.335   2.411   6.948
28609WAT     H286070   8.318   2.526   6.833
28610WAT      O86071   6.806   3.953   1.227
28610WAT     H186072   6.841   4.045   1.213
28610WAT     H286073   6.829   3.895   1.149
28611WAT      O86074   7.261   5.078   0.968
28611WAT     H186075   7.329   5.128   0.914
28611WAT     H286076   7.188   5.044   0.907
28612WAT      O86077   4.103   8.265   2.055
28612WAT     H186078   4.102   8.182   1.998
28612WAT     H286079   4.167   8.251   2.131
28613WAT      O86080   8.560   5.424   2.305
28613WAT     H186081   8.522   5.332   2.290
28613WAT     H286082   8.654   5.427   2.272
28614WAT      O86083   6.485   7.251   4.294
28614WAT     H186084   6.473   7.350   4.300
28614WAT     H286085   6.404   7.205   4.330
28615WAT      O86086   6.772   3.477   5.470
28615WAT     H186087   6.734   3.569   5.483
28615WAT     H286088   6.723   3.413   5.530
28616WAT      O86089   6.595   0.369   2.906
28616WAT     H186090   6.567   0.391   2.813
28616WAT     H286091   6.580   0.271   2.923
28617WAT      O86092   4.262   4.624   3.317
28617WAT     H186093   4.199   4.700   3.332
28617WAT     H286094   4.339   4.655   3.262
28618WAT      O86095   8.498   1.829   5.631
28618WAT     H186096   8.435   1.767   5.678
28618WAT     H286097   8.523   1.790   5.542
28619WAT      O86098   9.724   4.110   7.099
28619WAT     H186099   9.717   4.194   7.153
28619WAT     H286100   9.640   4.056   7.109
28620WAT      O86101   7.313   7.510   0.165
28620WAT     H186102   7.306   7.430   0.224
28620WAT     H286103   7.300   7.593   0.220
28621WAT      O86104   3.158   3.683   4.078
28621WAT     H186105   3.155   3.771   4.031
28621WAT     H286106   3.247   3.640   4.063
28622WAT      O86107   6.530   1.317   3.423
28622WAT     H186108   6.488   1.243   3.370
28622WAT     H286109   6.464   1.391   3.436
28623WAT      O86110   3.821   9.120   9.761
28623WAT     H186111   3.754   9.058   9.720
28623WAT     H286112   3.911   9.101   9.722
28624WAT      O86113   1.087   4.651   9.048
28624WAT     H186114   1.075   4.738   9.002
28624WAT     H286115   1.184   4.626   9.048
28625WAT      O86116   6.509   1.132   7.508
28625WAT     H186117   6.573   1.200   7.541
28625WAT     H286118   6.559   1.055   7.468
28626WAT      O86119   5.857   9.224   9.505
28626WAT     H186120   5.871   9.130   9.537
28626WAT     H286121   5.899   9.287   9.570
28627WAT      O86122   7.026   2.208   5.324
28627WAT     H186123   6.960   2.183   5.253
28627WAT     H286124   7.077   2.289   5.295
28628WAT      O86125   8.346   7.048   7.395
28628WAT     H186126   8.407   6.981   7.438
28628WAT     H286127   8.375   7.064   7.301
28629WAT      O86128   8.374   3.410   5.079
28629WAT     H186129   8.384   3.509   5.077
28629WAT     H286130   8.375   3.375   4.985
28630WAT      O86131   8.175   7.851   6.983
28630WAT     H186132   8.226   7.870   6.899
28630WAT     H286133   8.116   7.772   6.970
28631WAT      O86134   6.977   3.702   9.169
28631WAT     H186135   7.039   3.645   9.115
28631WAT     H286136   7.027   3.745   9.244
28632WAT      O86137   7.803   4.112   2.256
28632WAT     H186138   7.886   4.153   2.220
28632WAT     H286139   7.725   4.137   2.198
28633WAT      O86140   3.742   8.839   1.809
28633WAT     H186141   3.738   8.753   1.760
28633WAT     H286142   3.764   8.823   1.905
28634WAT      O86143   3.102   7.922   1.914
28634WAT     H186144   3.196   7.955   1.907
28634WAT     H286145   3.096   7.857   1.990
28635WAT      O86146   3.480   4.492   3.406
28635WAT     H186147   3.428   4.550   3.469
28635WAT     H286148   3.453   4.512   3.312
28636WAT      O86149   6.797   0.719   6.989
28636WAT     H186150   6.745   0.635   7.005
28636WAT     H286151   6.743   0.781   6.931
28637WAT      O86152   9.380   4.275   9.240
28637WAT     H186153   9.455   4.235   9.293
28637WAT     H286154   9.416   4.310   9.153
28638WAT      O86155   4.240   8.470   6.006
28638WAT     H186156   4.208   8.556   6.046
28638WAT     H286157   4.333   8.482   5.971
28639WAT      O86158   5.179   3.091   4.615
28639WAT     H186159   5.231   3.142   4.546
28639WAT     H286160   5.095   3.055   4.573
28640WAT      O86161   1.293   4.566   1.315
28640WAT     H186162   1.252   4.636   1.373
28640WAT     H286163   1.387   4.592   1.292
28641WAT      O86164   2.473   5.503   1.008
28641WAT     H186165   2.420   5.420   0.993
28641WAT     H286166   2.564   5.492   0.967
28642WAT      O86167   0.546   4.761   7.032
28642WAT     H186168   0.498   4.684   6.989
28642WAT     H286169   0.591   4.730   7.115
28643WAT      O86170   9.835   4.352   1.039
28643WAT     H186171   9.821   4.425   1.105
28643WAT     H286172   9.869   4.270   1.086
28644WAT      O86173   1.283   7.048   8.776
28644WAT     H186174   1.363   7.074   8.723
28644WAT     H286175   1.275   7.105   8.857
28645WAT      O86176   9.338   2.013   4.134
28645WAT     H186177   9.364   1.977   4.224
28645WAT     H286178   9.417   2.009   4.073
28646WAT      O86179   0.970   2.568   6.524
28646WAT     H186180   0.922   2.651   6.551
28646WAT     H286181   1.063   2.591   6.495
28647WAT      O86182   8.785   6.096   3.987
28647WAT     H186183   8.761   5.999   3.987
28647WAT     H286184   8.716   6.147   4.038
28648WAT      O86185   8.523   4.433   6.016
28648WAT     H186186   8.622   4.423   6.005
28648WAT     H286187   8.504   4.490   6.096
28649WAT      O86188   4.948   7.948   6.530
28649WAT     H186189   4.952   8.000   6.444
28649WAT     H286190   4.916   8.008   6.603
28650WAT      O86191   2.430   7.072   5.819
28650WAT     H186192   2.449   7.150   5.760
28650WAT     H286193   2.333   7.069   5.841
28651WAT      O86194   3.218   2.560   2.621
28651WAT     H186195   3.165   2.521   2.547
28651WAT     H286196   3.284   2.626   2.584
28652WAT      O86197   7.552   2.468   5.430
28652WAT     H186198   7.456   2.496   5.436
28652WAT     H286199   7.604   2.536   5.378
28653WAT      O86200   4.449   9.739   5.628
28653WAT     H186201   4.532   9.699   5.668
28653WAT     H286202   4.446   9.721   5.530
28654WAT      O86203   3.213   7.694   4.333
28654WAT     H186204   3.152   7.629   4.380
28654WAT     H286205   3.223   7.667   4.238
28655WAT      O86206   8.476   7.148   2.490
28655WAT     H186207   8.412   7.083   2.449
28655WAT     H286208   8.426   7.225   2.529
28656WAT      O86209   4.008   8.226   4.524
28656WAT     H186210   4.048   8.295   4.584
28656WAT     H286211   3.925   8.263   4.482
28657WAT      O86212   3.867   9.130   2.227
28657WAT     H186213   3.794   9.172   2.281
28657WAT     H286214   3.943   9.106   2.288
28658WAT      O86215   8.719   0.924   0.772
28658WAT     H186216   8.642   0.862   0.783
28658WAT     H286217   8.782   0.915   0.849
28659WAT      O86218   7.358   3.666   2.092
28659WAT     H186219   7.419   3.589   2.112
28659WAT     H286220   7.291   3.676   2.166
28660WAT      O86221   4.821   1.925   6.122
28660WAT     H186222   4.805   1.958   6.215
28660WAT     H286223   4.862   1.998   6.068
28661WAT      O86224   7.982   6.089   8.742
28661WAT     H186225   7.955   6.010   8.686
28661WAT     H286226   8.078   6.080   8.767
28662WAT      O86227   0.032   6.659   8.961
28662WAT     H186228  -0.030   6.592   9.002
28662WAT     H286229   0.107   6.679   9.024
28663WAT      O86230   6.871   2.111   3.072
28663WAT     H186231   6.903   2.032   3.124
28663WAT     H286232   6.897   2.100   2.976
28664WAT      O86233   2.941   5.022   9.567
28664WAT     H186234   2.884   5.104   9.569
28664WAT     H286235   2.997   5.018   9.650
28665WAT      O86236   6.770   1.110   3.409
28665WAT     H186237   6.849   1.133   3.351
28665WAT     H286238   6.699   1.068   3.353
28666WAT      O86239   2.234   6.311   3.422
28666WAT     H186240   2.332   6.294   3.412
28666WAT     H286241   2.183   6.234   3.384
28667WAT      O86242   6.546   5.367   4.178
28667WAT     H186243   6.513   5.324   4.094
28667WAT     H286244   6.470   5.412   4.225
28668WAT      O86245   2.937   5.685   6.570
28668WAT     H186246   2.979   5.734   6.647
28668WAT     H286247   2.995   5.696   6.488
28669WAT      O86248   9.376   9.409   2.403
28669WAT     H186249   9.281   9.405   2.436
28669WAT     H286250   9.396   9.502   2.373
28670WAT      O86251   8.401   3.987   6.607
28670WAT     H186252   8.361   4.022   6.692
28670WAT     H286253   8.484   3.935   6.628
28671WAT      O86254   2.975   2.744   7.757
28671WAT     H186255   3.043   2.816   7.742
28671WAT     H286256   2.898   2.781   7.807
28672WAT      O86257   1.715   5.789   4.233
28672WAT     H186258   1.799   5.764   4.281
28672WAT     H286259   1.711   5.888   4.220
28673WAT      O86260   6.349   6.966   1.339
28673WAT     H186261   6.280   6.964   1.412
28673WAT     H286262   6.374   6.873   1.314
28674WAT      O86263   2.601   6.251   1.022
28674WAT     H186264   2.532   6.243   0.950
28674WAT     H286265   2.622   6.160   1.058
28675WAT      O86266   2.990   8.827   7.596
28675WAT     H186267   2.955   8.841   7.688
28675WAT     H286268   3.001   8.729   7.579
28676WAT      O86269   3.432   7.195   5.770
28676WAT     H186270   3.462   7.290   5.777
28676WAT     H286271   3.361   7.187   5.700
28677WAT      O86272   2.654   1.316   3.242
28677WAT     H186273   2.753   1.315   3.250
28677WAT     H286274   2.616   1.237   3.290
28678WAT      O86275   6.434   8.143   5.979
28678WAT     H186276   6.467   8.201   6.053
28678WAT     H286277   6.494   8.153   5.900
28679WAT      O86278   1.567   7.414   5.575
28679WAT     H186279   1.523   7.349   5.512
28679WAT     H286280   1.522   7.502   5.569
28680WAT      O86281   8.586   5.035   8.534
28680WAT     H186282   8.625   5.074   8.618
28680WAT     H286283   8.659   4.990   8.482
28681WAT      O86284   1.659   5.540   8.706
28681WAT     H186285   1.589   5.596   8.663
28681WAT     H286286   1.634   5.523   8.802
28682WAT      O86287   0.783   4.909   0.212
28682WAT     H186288   0.846   4.987   0.210
28682WAT     H286289   0.814   4.840   0.145
28683WAT      O86290   8.583   3.939   2.054
28683WAT     H186291   8.550   3.851   2.089
28683WAT     H286292   8.527   3.967   1.976
28684WAT      O86293   1.217   3.427   1.738
28684WAT     H186294   1.149   3.452   1.807
28684WAT     H286295   1.274   3.353   1.773
28685WAT      O86296   0.981   5.315   3.772
28685WAT     H186297   1.015   5.409   3.777
28685WAT     H286298   1.019   5.270   3.691
28686WAT      O86299   6.254   1.657   1.983
28686WAT     H186300   6.351   1.664   1.963
28686WAT     H286301   6.227   1.561   1.983
28687WAT      O86302   3.000   4.351   0.737
28687WAT     H186303   3.020   4.360   0.640
28687WAT     H286304   3.031   4.262   0.769
28688WAT      O86305   7.208   7.639   1.342
28688WAT     H186306   7.201   7.598   1.433
28688WAT     H286307   7.248   7.730   1.350
28689WAT      O86308   5.482   1.959   3.500
28689WAT     H186309   5.399   1.940   3.551
28689WAT     H286310   5.462   2.024   3.426
28690WAT      O86311   9.501   2.799   7.616
28690WAT     H186312   9.492   2.821   7.713
28690WAT     H286313   9.583   2.843   7.580
28691WAT      O86314   0.600   1.988   0.166
28691WAT     H186315   0.659   1.910   0.186
28691WAT     H286316   0.504   1.961   0.177
28692WAT      O86317   9.515   5.928   0.841
28692WAT     H186318   9.556   5.994   0.778
28692WAT     H286319   9.488   5.846   0.791
28693WAT      O86320   7.600   4.445   7.788
28693WAT     H186321   7.508   4.443   7.827
28693WAT     H286322   7.602   4.506   7.710
28694WAT      O86323   8.914   4.263   6.317
28694WAT     H186324   8.995   4.215   6.352
28694WAT     H286325   8.890   4.337   6.379
28695WAT      O86326   9.230   2.660   7.650
28695WAT     H186327   9.298   2.705   7.592
28695WAT     H286328   9.185   2.728   7.708
28696WAT      O86329   5.273   0.016   1.077
28696WAT     H186330   5.335  -0.016   1.005
28696WAT     H286331   5.295   0.111   1.099
28697WAT      O86332   7.691   2.982   4.553
28697WAT     H186333   7.623   2.934   4.608
28697WAT     H286334   7.710   2.930   4.470
28698WAT      O86335   2.195   9.673   8.457
28698WAT     H186336   2.263   9.681   8.384
28698WAT     H286337   2.171   9.577   8.470
28699WAT      O86338   7.011   2.234   9.354
28699WAT     H186339   6.921   2.208   9.387
28699WAT     H286340   7.010   2.242   9.254
28700WAT      O86341   6.403   7.362   7.514
28700WAT     H186342   6.349   7.338   7.433
28700WAT     H286343   6.412   7.461   7.521
28701WAT      O86344   8.540   6.910   0.882
28701WAT     H186345   8.625   6.891   0.832
28701WAT     H286346   8.543   6.865   0.972
28702WAT      O86347   8.405   7.521   9.738
28702WAT     H186348   8.473   7.575   9.690
28702WAT     H286349   8.450   7.443   9.782
28703WAT      O86350   2.729   4.042   8.730
28703WAT     H186351   2.826   4.021   8.744
28703WAT     H286352   2.686   4.061   8.819
28704WAT      O86353   0.480   8.734   9.037
28704WAT     H186354   0.468   8.720   9.136
28704WAT     H286355   0.392   8.721   8.991
28705WAT      O86356   9.546   9.396   1.309
28705WAT     H186357   9.607   9.365   1.382
28705WAT     H286358   9.485   9.321   1.281
28706WAT      O86359   2.404   0.436   6.292
28706WAT     H186360   2.501   0.410   6.300
28706WAT     H286361   2.389   0.525   6.334
28707WAT      O86362   8.164   4.038   2.276
28707WAT     H186363   8.102   4.110   2.243
28707WAT     H286364   8.143   4.017   2.371
28708WAT      O86365   5.713   0.923   6.640
28708WAT     H186366   5.761   0.990   6.583
28708WAT     H286367   5.668   0.971   6.716
28709WAT      O86368   5.681   7.009   3.913
28709WAT     H186369   5.612   7.082   3.904
28709WAT     H286370   5.732   7.023   3.998
28710WAT      O86371   1.402   4.391   6.747
28710WAT     H186372   1.440   4.445   6.672
28710WAT     H286373   1.319   4.434   6.781
28711WAT      O86374   6.731   7.305   4.563
28711WAT     H186375   6.636   7.326   4.583
28711WAT     H286376   6.769   7.250   4.638
28712WAT      O86377   8.315   5.404   0.962
28712WAT     H186378   8.384   5.334   0.977
28712WAT     H286379   8.311   5.426   0.864
28713WAT      O86380   9.495   1.877   2.949
28713WAT     H186381   9.396   1.884   2.938
28713WAT     H286382   9.537   1.856   2.861
28714WAT      O86383   2.904   5.400   8.517
28714WAT     H186384   2.865   5.399   8.609
28714WAT     H286385   2.882   5.314   8.471
28715WAT      O86386   0.430   4.925   2.583
28715WAT     H186387   0.404   4.979   2.664
28715WAT     H286388   0.528   4.932   2.569
28716WAT      O86389   4.033   4.051   0.994
28716WAT     H186390   4.122   4.078   0.958
28716WAT     H286391   4.000   3.970   0.944
28717WAT      O86392   3.378   3.345   2.284
28717WAT     H186393   3.290   3.315   2.248
28717WAT     H286394   3.414   3.419   2.228
28718WAT      O86395   4.306   5.557   9.595
28718WAT     H186396   4.303   5.624   9.521
28718WAT     H286397   4.213   5.537   9.626
28719WAT      O86398   9.858   0.375   3.124
28719WAT     H186399   9.763   0.345   3.118
28719WAT     H286400   9.919   0.297   3.110
28720WAT      O86401   1.648   6.549   5.041
28720WAT     H186402   1.700   6.501   4.970
28720WAT     H286403   1.651   6.648   5.024
28721WAT      O86404   4.026   4.190   5.941
28721WAT     H186405   3.934   4.159   5.918
28721WAT     H286406   4.076   4.210   5.857
28722WAT      O86407   8.173   2.060   5.187
28722WAT     H186408   8.091   2.040   5.133
28722WAT     H286409   8.194   1.982   5.246
28723WAT      O86410   3.432   4.694   4.384
28723WAT     H186411   3.429   4.594   4.377
28723WAT     H286412   3.417   4.722   4.479
28724WAT      O86413   3.523   6.304   0.046
28724WAT     H186414   3.620   6.291   0.026
28724WAT     H286415   3.508   6.297   0.145
28725WAT      O86416   1.959   0.221   4.696
28725WAT     H186417   1.955   0.126   4.728
28725WAT     H286418   1.915   0.281   4.762
28726WAT      O86419   0.814   1.321   1.966
28726WAT     H186420   0.731   1.278   1.930
28726WAT     H286421   0.878   1.249   1.997
28727WAT      O86422   5.371   9.553   6.623
28727WAT     H186423   5.355   9.584   6.529
28727WAT     H286424   5.322   9.467   6.639
28728WAT      O86425   2.135   5.814   2.537
28728WAT     H186426   2.143   5.911   2.559
28728WAT     H286427   2.084   5.803   2.451
28729WAT      O86428   5.518   7.105   6.650
28729WAT     H186429   5.497   7.012   6.621
28729WAT     H286430   5.437   7.148   6.689
28730WAT      O86431   4.644   6.695   6.178
28730WAT     H186432   4.675   6.764   6.113
28730WAT     H286433   4.546   6.679   6.165
28731WAT      O86434   1.772   8.581   0.339
28731WAT     H186435   1.720   8.519   0.281
28731WAT     H286436   1.849   8.532   0.380
28732WAT      O86437   5.509   0.293   4.363
28732WAT     H186438   5.541   0.317   4.271
28732WAT     H286439   5.425   0.343   4.383
28733WAT      O86440   9.051   0.034   8.733
28733WAT     H186441   9.020  -0.057   8.707
28733WAT     H286442   8.975   0.099   8.727
28734WAT      O86443   6.404   7.185   1.939
28734WAT     H186444   6.496   7.214   1.966
28734WAT     H286445   6.406   7.155   1.843
28735WAT      O86446   0.126   9.220   6.358
28735WAT     H186447   0.197   9.188   6.296
28735WAT     H286448   0.053   9.264   6.306
28736WAT      O86449   5.632   7.055   9.467
28736WAT     H186450   5.550   7.060   9.525
28736WAT     H286451   5.609   7.086   9.374
28737WAT      O86452   1.279   6.592   6.805
28737WAT     H186453   1.319   6.507   6.839
28737WAT     H286454   1.325   6.670   6.847
28738WAT      O86455   5.871   7.206   7.452
28738WAT     H186456   5.917   7.229   7.366
28738WAT     H286457   5.897   7.272   7.523
28739WAT      O86458   8.115   4.445   7.185
28739WAT     H186459   8.130   4.439   7.284
28739WAT     H286460   8.016   4.440   7.167
28740WAT      O86461   7.021   3.531   4.253
28740WAT     H186462   6.976   3.494   4.172
28740WAT     H286463   7.025   3.461   4.324
28741WAT      O86464   1.237   6.329   5.154
28741WAT     H186465   1.189   6.285   5.230
28741WAT     H286466   1.175   6.393   5.108
28742WAT      O86467   5.871   2.406   2.609
28742WAT     H186468   5.873   2.470   2.532
28742WAT     H286469   5.855   2.313   2.575
28743WAT      O86470   4.894   8.862   5.981
28743WAT     H186471   4.855   8.890   5.894
28743WAT     H286472   4.944   8.939   6.021
28744WAT      O86473   1.059   3.829   5.830
28744WAT     H186474   0.982   3.875   5.787
28744WAT     H286475   1.041   3.819   5.928
28745WAT      O86476   8.177   3.234   3.084
28745WAT     H186477   8.136   3.162   3.140
28745WAT     H286478   8.192   3.200   2.991
28746WAT      O86479   9.097   7.466   4.872
28746WAT     H186480   9.190   7.446   4.902
28746WAT     H286481   9.100   7.508   4.781
28747WAT      O86482   2.687   0.293   0.738
28747WAT     H186483   2.620   0.252   0.676
28747WAT     H286484   2.652   0.380   0.773
28748WAT      O86485   5.496   6.036   7.952
28748WAT     H186486   5.414   6.061   7.900
28748WAT     H286487   5.495   6.082   8.041
28749WAT      O86488   7.986   1.156   6.964
28749WAT     H186489   8.007   1.143   6.867
28749WAT     H286490   7.892   1.127   6.983
28750WAT      O86491   6.572   6.374   8.331
28750WAT     H186492   6.530   6.404   8.244
28750WAT     H286493   6.623   6.450   8.371
28751WAT      O86494   0.625   9.219   0.736
28751WAT     H186495   0.709   9.243   0.784
28751WAT     H286496   0.566   9.165   0.796
28752WAT      O86497   3.526   7.432   8.149
28752WAT     H186498   3.598   7.437   8.080
28752WAT     H286499   3.557   7.477   8.233
28753WAT      O86500   0.044   5.630   8.743
28753WAT     H186501  -0.023   5.576   8.794
28753WAT     H286502   0.053   5.594   8.651
28754WAT      O86503   0.515   7.601   3.008
28754WAT     H186504   0.454   7.547   2.950
28754WAT     H286505   0.610   7.587   2.978
28755WAT      O86506   9.069   5.834   4.890
28755WAT     H186507   9.023   5.768   4.831
28755WAT     H286508   9.166   5.839   4.865
28756WAT      O86509   9.737   9.598   7.521
28756WAT     H186510   9.686   9.631   7.601
28756WAT     H286511   9.704   9.645   7.439
28757WAT      O86512   0.883   2.298   2.432
28757WAT     H186513   0.830   2.225   2.390
28757WAT     H286514   0.821   2.371   2.461
28758WAT      O86515   3.199   7.977   9.675
28758WAT     H186516   3.271   8.020   9.729
28758WAT     H286517   3.149   8.046   9.623
28759WAT      O86518   2.222   4.624   6.685
28759WAT     H186519   2.220   4.541   6.741
28759WAT     H286520   2.177   4.698   6.735
28760WAT      O86521   2.567   6.421   4.076
28760WAT     H186522   2.624   6.386   4.151
28760WAT     H286523   2.625   6.464   4.007
28761WAT      O86524   8.933   8.008   7.335
28761WAT     H186525   8.993   8.053   7.269
28761WAT     H286526   8.958   8.037   7.427
28762WAT      O86527   4.330   6.717   3.140
28762WAT     H186528   4.341   6.620   3.163
28762WAT     H286529   4.380   6.738   3.056
28763WAT      O86530   1.387   4.635   2.700
28763WAT     H186531   1.442   4.596   2.774
28763WAT     H286532   1.422   4.603   2.612
28764WAT      O86533   7.138   1.997   5.700
28764WAT     H186534   7.146   2.008   5.799
28764WAT     H286535   7.171   2.079   5.655
28765WAT      O86536   6.140   2.730   3.450
28765WAT     H186537   6.153   2.787   3.369
28765WAT     H286538   6.068   2.768   3.507
28766WAT      O86539   1.667   6.432   8.424
28766WAT     H186540   1.690   6.401   8.332
28766WAT     H286541   1.651   6.352   8.483
28767WAT      O86542   9.774   1.692   4.610
28767WAT     H186543   9.733   1.774   4.571
28767WAT     H286544   9.809   1.634   4.537
28768WAT      O86545   1.756   0.949   8.434
28768WAT     H186546   1.736   0.976   8.339
28768WAT     H286547   1.743   1.027   8.494
28769WAT      O86548   4.003   9.735   3.754
28769WAT     H186549   3.917   9.769   3.792
28769WAT     H286550   3.986   9.647   3.708
28770WAT      O86551   1.488   5.606   5.891
28770WAT     H186552   1.585   5.627   5.899
28770WAT     H286553   1.439   5.642   5.971
28771WAT      O86554   9.619   6.200   6.642
28771WAT     H186555   9.645   6.280   6.696
28771WAT     H286556   9.700   6.146   6.620
28772WAT      O86557   6.178   8.134   7.981
28772WAT     H186558   6.129   8.221   7.978
28772WAT     H286559   6.243   8.136   8.057
28773WAT      O86560   5.353   6.282   0.962
28773WAT     H186561   5.416   6.359   0.966
28773WAT     H286562   5.274   6.306   0.904
28774WAT      O86563   6.658   2.911   2.008
28774WAT     H186564   6.719   2.967   1.952
28774WAT     H286565   6.570   2.901   1.963
28775WAT      O86566   5.719   1.964   7.310
28775WAT     H186567   5.728   1.937   7.214
28775WAT     H286568   5.760   1.895   7.369
28776WAT      O86569   2.265   0.247   2.199
28776WAT     H186570   2.327   0.177   2.165
28776WAT     H286571   2.233   0.303   2.123
28777WAT      O86572   4.531   7.178   4.775
28777WAT     H186573   4.533   7.251   4.707
28777WAT     H286574   4.542   7.218   4.866
28778WAT      O86575   0.992   6.875   6.440
28778WAT     H186576   0.918   6.927   6.396
28778WAT     H286577   1.078   6.892   6.392
28779WAT      O86578   6.222   1.575   1.510
28779WAT     H186579   6.293   1.508   1.487
28779WAT     H286580   6.263   1.651   1.561
28780WAT      O86581   7.637   3.189   9.327
28780WAT     H186582   7.707   3.120   9.307
28780WAT     H286583   7.548   3.144   9.335
28781WAT      O86584   9.425   5.159   3.968
28781WAT     H186585   9.362   5.194   4.036
28781WAT     H286586   9.402   5.197   3.878
28782WAT      O86587   5.213   7.531   6.086
28782WAT     H186588   5.184   7.612   6.036
28782WAT     H286589   5.220   7.453   6.024
28783WAT      O86590   8.899   9.760   5.626
28783WAT     H186591   8.961   9.782   5.701
28783WAT     H286592   8.927   9.674   5.584
28784WAT      O86593   1.341   2.019   2.113
28784WAT     H186594   1.266   2.018   2.179
28784WAT     H286595   1.334   2.100   2.055
28785WAT      O86596   8.470   8.001   5.267
28785WAT     H186597   8.392   7.947   5.298
28785WAT     H286598   8.504   8.057   5.343
28786WAT      O86599   7.697   4.538   1.474
28786WAT     H186600   7.641   4.618   1.500
28786WAT     H286601   7.754   4.562   1.396
28787WAT      O86602   5.984   7.711   1.858
28787WAT     H186603   5.951   7.627   1.814
28787WAT     H286604   5.972   7.788   1.796
28788WAT      O86605   7.395   5.143   9.473
28788WAT     H186606   7.347   5.140   9.560
28788WAT     H286607   7.330   5.130   9.398
28789WAT      O86608   0.563   4.290   0.632
28789WAT     H186609   0.651   4.302   0.676
28789WAT     H286610   0.551   4.194   0.606
28790WAT      O86611   9.817   1.475   7.836
28790WAT     H186612   9.825   1.570   7.865
28790WAT     H286613   9.907   1.440   7.812
28791WAT      O86614   7.824   9.485   7.520
28791WAT     H186615   7.875   9.404   7.490
28791WAT     H286616   7.886   9.562   7.530
28792WAT      O86617   6.579   5.306   8.572
28792WAT     H186618   6.654   5.240   8.562
28792WAT     H286619   6.583   5.348   8.663
28793WAT      O86620   4.521   3.924   4.554
28793WAT     H186621   4.568   4.010   4.534
28793WAT     H286622   4.584   3.863   4.602
28794WAT      O86623   4.230   9.818   8.249
28794WAT     H186624   4.151   9.843   8.192
28794WAT     H286625   4.273   9.902   8.285
28795WAT      O86626   7.010   5.800   9.318
28795WAT     H186627   6.918   5.775   9.350
28795WAT     H286628   7.046   5.873   9.376
28796WAT      O86629   7.531   5.266   2.207
28796WAT     H186630   7.486   5.334   2.264
28796WAT     H286631   7.466   5.193   2.184
28797WAT      O86632   6.558   4.914   0.165
28797WAT     H186633   6.584   4.949   0.255
28797WAT     H286634   6.460   4.898   0.162
28798WAT      O86635   6.534   6.943   9.141
28798WAT     H186636   6.624   6.987   9.137
28798WAT     H286637   6.515   6.916   9.235
28799WAT      O86638   3.475   6.724   8.315
28799WAT     H186639   3.457   6.680   8.403
28799WAT     H286640   3.559   6.778   8.322
28800WAT      O86641   2.978   1.754   1.042
28800WAT     H186642   2.983   1.750   0.942
28800WAT     H286643   2.965   1.662   1.079
28801WAT      O86644   3.048   1.748   5.922
28801WAT     H186645   3.106   1.814   5.969
28801WAT     H286646   3.101   1.666   5.900
28802WAT      O86647   9.117   6.652   7.538
28802WAT     H186648   9.072   6.589   7.474
28802WAT     H286649   9.048   6.712   7.579
28803WAT      O86650   6.563   4.227   3.025
28803WAT     H186651   6.512   4.141   3.036
28803WAT     H286652   6.559   4.279   3.110
28804WAT      O86653   9.826   4.544   5.237
28804WAT     H186654   9.878   4.621   5.273
28804WAT     H286655   9.865   4.458   5.269
28805WAT      O86656   7.283   5.615   0.421
28805WAT     H186657   7.292   5.524   0.380
28805WAT     H286658   7.372   5.644   0.456
28806WAT      O86659   8.961   8.235   1.453
28806WAT     H186660   9.030   8.293   1.410
28806WAT     H286661   8.959   8.146   1.408
28807WAT      O86662   3.176   0.943   4.885
28807WAT     H186663   3.083   0.926   4.854
28807WAT     H286664   3.241   0.907   4.818
28808WAT      O86665   2.144   6.679   3.041
28808WAT     H186666   2.124   6.680   2.943
28808WAT     H286667   2.117   6.591   3.079
28809WAT      O86668   8.769   4.446   8.417
28809WAT     H186669   8.670   4.448   8.404
28809WAT     H286670   8.806   4.362   8.376
28810WAT      O86671   9.413   6.784   1.820
28810WAT     H186672   9.361   6.812   1.900
28810WAT     H286673   9.357   6.725   1.762
28811WAT      O86674   6.873   5.966   4.886
28811WAT     H186675   6.889   5.868   4.873
28811WAT     H286676   6.801   5.996   4.825
28812WAT      O86677   8.486   5.422   5.691
28812WAT     H186678   8.507   5.517   5.716
28812WAT     H286679   8.504   5.363   5.770
28813WAT      O86680   1.995   0.384   6.707
28813WAT     H186681   1.919   0.371   6.643
28813WAT     H286682   1.966   0.360   6.799
28814WAT      O86683   3.013   6.076   3.681
28814WAT     H186684   2.913   6.074   3.690
28814WAT     H286685   3.045   6.170   3.692
28815WAT      O86686   7.960   5.701   3.659
28815WAT     H186687   7.965   5.652   3.747
28815WAT     H286688   7.895   5.777   3.667
28816WAT      O86689   7.724   8.567   4.733
28816WAT     H186690   7.696   8.487   4.679
28816WAT     H286691   7.725   8.542   4.830
28817WAT      O86692   1.066   2.105   3.913
28817WAT     H186693   1.161   2.085   3.938
28817WAT     H286694   1.056   2.098   3.814
28818WAT      O86695   9.844   0.226   6.344
28818WAT     H186696   9.897   0.273   6.273
28818WAT     H286697   9.808   0.141   6.308
28819WAT      O86698   6.097   2.206   7.832
28819WAT     H186699   6.037   2.205   7.753
28819WAT     H286700   6.050   2.248   7.910
28820WAT      O86701   1.247   4.010   6.531
28820WAT     H186702   1.177   4.080   6.518
28820WAT     H286703   1.211   3.921   6.504
28821WAT      O86704   7.791   1.479   2.482
28821WAT     H186705   7.748   1.396   2.447
28821WAT     H286706   7.732   1.558   2.465
28822WAT      O86707   2.252   5.515   1.188
28822WAT     H186708   2.175   5.578   1.173
28822WAT     H286709   2.325   5.537   1.122
28823WAT      O86710   3.239   1.034   0.347
28823WAT     H186711   3.182   0.958   0.314
28823WAT     H286712   3.212   1.057   0.441
28824WAT      O86713   3.692   0.681   6.355
28824WAT     H186714   3.675   0.778   6.372
28824WAT     H286715   3.787   0.660   6.373
28825WAT      O86716   4.807   5.845   7.833
28825WAT     H186717   4.754   5.761   7.846
28825WAT     H286718   4.747   5.919   7.803
28826WAT      O86719   4.087   8.751   7.869
28826WAT     H186720   4.084   8.654   7.844
28826WAT     H286721   4.089   8.807   7.786
28827WAT      O86722   5.436   2.741   4.615
28827WAT     H186723   5.520   2.711   4.572
28827WAT     H286724   5.429   2.841   4.609
28828WAT      O86725   3.338   8.969   5.896
28828WAT     H186726   3.270   8.988   5.967
28828WAT     H286727   3.380   9.055   5.867
28829WAT      O86728   9.433   2.524   5.857
28829WAT     H186729   9.389   2.581   5.787
28829WAT     H286730   9.472   2.583   5.928
28830WAT      O86731   1.157   4.873   3.116
28830WAT     H186732   1.166   4.833   3.025
28830WAT     H286733   1.070   4.922   3.122
28831WAT      O86734   9.614   7.339   4.559
28831WAT     H186735   9.637   7.286   4.640
28831WAT     H286736   9.664   7.303   4.480
28832WAT      O86737   6.228   4.356   9.828
28832WAT     H186738   6.293   4.284   9.851
28832WAT     H286739   6.146   4.346   9.885
28833WAT      O86740   8.365   1.809   0.836
28833WAT     H186741   8.313   1.894   0.823
28833WAT     H286742   8.302   1.733   0.849
28834WAT      O86743   3.664   5.279   9.173
28834WAT     H186744   3.748   5.292   9.226
28834WAT     H286745   3.686   5.277   9.076
28835WAT      O86746   1.898   9.538   6.050
28835WAT     H186747   1.852   9.502   5.968
28835WAT     H286748   1.898   9.468   6.121
28836WAT      O86749   7.622   1.710   2.381
28836WAT     H186750   7.523   1.709   2.365
28836WAT     H286751   7.647   1.795   2.426
28837WAT      O86752   3.611   3.662   2.479
28837WAT     H186753   3.517   3.662   2.512
28837WAT     H286754   3.668   3.605   2.539
28838WAT      O86755   9.166   8.042   5.298
28838WAT     H186756   9.189   8.120   5.241
28838WAT     H286757   9.176   7.957   5.245
28839WAT      O86758   6.190   4.748   6.351
28839WAT     H186759   6.187   4.650   6.335
28839WAT     H286760   6.159   4.796   6.268
28840WAT      O86761   8.250   9.060   8.740
28840WAT     H186762   8.203   9.148   8.755
28840WAT     H286763   8.199   9.006   8.674
28841WAT      O86764   7.126   1.171   8.467
28841WAT     H186765   7.212   1.222   8.458
28841WAT     H286766   7.127   1.118   8.552
28842WAT      O86767   5.539   0.352   2.791
28842WAT     H186768   5.581   0.412   2.860
28842WAT     H286769   5.609   0.289   2.756
28843WAT      O86770   7.255   2.778   6.561
28843WAT     H186771   7.214   2.869   6.556
28843WAT     H286772   7.195   2.718   6.613
28844WAT      O86773   5.618   7.581   0.191
28844WAT     H186774   5.716   7.599   0.178
28844WAT     H286775   5.584   7.525   0.115
28845WAT      O86776   2.440   4.422   6.488
28845WAT     H186777   2.447   4.323   6.482
28845WAT     H286778   2.443   4.450   6.585
28846WAT      O86779   2.595   4.740   1.927
28846WAT     H186780   2.677   4.717   1.981
28846WAT     H286781   2.517   4.751   1.989
28847WAT      O86782   7.612   0.915   5.211
28847WAT     H186783   7.617   1.015   5.205
28847WAT     H286784   7.542   0.889   5.277
28848WAT      O86785   1.770   8.758   0.714
28848WAT     H186786   1.859   8.751   0.670
28848WAT     H286787   1.760   8.849   0.754
28849WAT      O86788   0.918   4.979   1.359
28849WAT     H186789   0.853   4.916   1.318
28849WAT     H286790   0.898   4.988   1.457
28850WAT      O86791   5.130   1.658   1.460
28850WAT     H186792   5.031   1.644   1.463
28850WAT     H286793   5.157   1.682   1.366
28851WAT      O86794   7.513   7.204   7.651
28851WAT     H186795   7.483   7.112   7.626
28851WAT     H286796   7.464   7.272   7.596
28852WAT      O86797   4.907   4.025   2.932
28852WAT     H186798   4.961   4.108   2.922
28852WAT     H286799   4.948   3.965   3.001
28853WAT      O86800   1.839   2.703   7.330
28853WAT     H186801   1.919   2.723   7.386
28853WAT     H286802   1.774   2.648   7.383
28854WAT      O86803   7.008   4.314   4.557
28854WAT     H186804   7.028   4.284   4.463
28854WAT     H286805   7.068   4.390   4.581
28855WAT      O86806   7.477   8.168   8.952
28855WAT     H186807   7.541   8.234   8.992
28855WAT     H286808   7.486   8.080   9.000
28856WAT      O86809   1.916   9.605   2.748
28856WAT     H186810   1.977   9.537   2.788
28856WAT     H286811   1.967   9.665   2.686
28857WAT      O86812   2.474   2.184   1.139
28857WAT     H186813   2.519   2.161   1.226
28857WAT     H286814   2.504   2.120   1.069
28858WAT      O86815   9.881   1.757   9.040
28858WAT     H186816   9.905   1.770   8.944
28858WAT     H286817   9.786   1.785   9.055
28859WAT      O86818   0.327   7.895   4.050
28859WAT     H186819   0.364   7.942   3.970
28859WAT     H286820   0.266   7.822   4.021
28860WAT      O86821   1.117   9.507   7.077
28860WAT     H186822   1.121   9.409   7.098
28860WAT     H286823   1.193   9.554   7.121
28861WAT      O86824   6.873   1.187   0.291
28861WAT     H186825   6.895   1.096   0.326
28861WAT     H286826   6.954   1.245   0.295
28862WAT      O86827   1.726   0.362   9.055
28862WAT     H186828   1.640   0.378   9.104
28862WAT     H286829   1.802   0.391   9.113
28863WAT      O86830   9.443   2.284   2.644
28863WAT     H186831   9.496   2.210   2.687
28863WAT     H286832   9.464   2.287   2.546
28864WAT      O86833   7.552   4.782   1.428
28864WAT     H186834   7.599   4.870   1.429
28864WAT     H286835   7.465   4.791   1.380
28865WAT      O86836   6.358   8.963   8.879
28865WAT     H186837   6.441   9.015   8.859
28865WAT     H286838   6.381   8.867   8.891
28866WAT      O86839   4.901   4.907   0.357
28866WAT     H186840   4.965   4.831   0.351
28866WAT     H286841   4.892   4.951   0.267
28867WAT      O86842   0.207   1.679   5.472
28867WAT     H186843   0.127   1.708   5.418
28867WAT     H286844   0.186   1.687   5.569
28868WAT      O86845   7.077   3.299   8.222
28868WAT     H186846   7.082   3.199   8.213
28868WAT     H286847   7.123   3.341   8.143
28869WAT      O86848   0.918   7.377   1.957
28869WAT     H186849   1.002   7.343   2.000
28869WAT     H286850   0.938   7.409   1.865
28870WAT      O86851   8.061   8.911   2.340
28870WAT     H186852   8.064   8.811   2.342
28870WAT     H286853   8.122   8.948   2.411
28871WAT      O86854   9.680   4.983   3.076
28871WAT     H186855   9.695   4.889   3.104
28871WAT     H286856   9.767   5.033   3.078
28872WAT      O86857   2.493   3.761   9.022
28872WAT     H186858   2.528   3.737   8.932
28872WAT     H286859   2.539   3.705   9.091
28873WAT      O86860   3.884   3.070   7.358
28873WAT     H186861   3.979   3.097   7.374
28873WAT     H286862   3.845   3.128   7.286
28874WAT      O86863   4.548   0.582   5.671
28874WAT     H186864   4.598   0.624   5.594
28874WAT     H286865   4.464   0.634   5.688
28875WAT      O86866   4.544   2.445   1.787
28875WAT     H186867   4.619   2.392   1.746
28875WAT     H286868   4.462   2.435   1.731
28876WAT      O86869   9.841   2.313   1.471
28876WAT     H186870   9.832   2.227   1.521
28876WAT     H286871   9.831   2.297   1.373
28877WAT      O86872   3.394   7.649   3.329
28877WAT     H186873   3.434   7.580   3.390
28877WAT     H286874   3.299   7.624   3.309
28878WAT      O86875   0.707   8.077   4.586
28878WAT     H186876   0.764   8.139   4.640
28878WAT     H286877   0.670   8.006   4.646
28879WAT      O86878   3.376   3.532   4.025
28879WAT     H186879   3.470   3.543   3.991
28879WAT     H286880   3.364   3.439   4.059
28880WAT      O86881   7.618   5.344   7.863
28880WAT     H186882   7.672   5.415   7.819
28880WAT     H286883   7.667   5.257   7.857
28881WAT      O86884   7.591   1.612   9.210
28881WAT     H186885   7.662   1.588   9.144
28881WAT     H286886   7.574   1.711   9.207
28882WAT      O86887   7.716   1.610   7.634
28882WAT     H186888   7.816   1.612   7.625
28882WAT     H286889   7.690   1.547   7.707
28883WAT      O86890   7.684   3.855   1.364
28883WAT     H186891   7.759   3.790   1.351
28883WAT     H286892   7.648   3.882   1.275
28884WAT      O86893   7.636   7.249   6.765
28884WAT     H186894   7.611   7.332   6.816
28884WAT     H286895   7.583   7.172   6.801
28885WAT      O86896   6.680   8.876   1.990
28885WAT     H186897   6.596   8.914   2.031
28885WAT     H286898   6.655   8.813   1.917
28886WAT      O86899   2.784   5.650   7.200
28886WAT     H186900   2.759   5.661   7.103
28886WAT     H286901   2.847   5.573   7.210
28887WAT      O86902   3.958   9.549   8.755
28887WAT     H186903   3.905   9.468   8.779
28887WAT     H286904   3.932   9.625   8.815
28888WAT      O86905   0.387   4.065   2.715
28888WAT     H186906   0.325   4.092   2.789
28888WAT     H286907   0.426   4.147   2.673
28889WAT      O86908   4.278   7.953   6.612
28889WAT     H186909   4.322   8.009   6.542
28889WAT     H286910   4.301   7.857   6.597
28890WAT      O86911   5.690   0.246   7.696
28890WAT     H186912   5.601   0.290   7.685
28890WAT     H286913   5.762   0.315   7.698
28891WAT      O86914   3.091   8.360   3.362
28891WAT     H186915   3.042   8.375   3.448
28891WAT     H286916   3.178   8.409   3.365
28892WAT      O86917   7.689   2.575   6.130
28892WAT     H186918   7.700   2.656   6.073
28892WAT     H286919   7.770   2.516   6.122
28893WAT      O86920   4.582   0.715   4.492
28893WAT     H186921   4.599   0.635   4.435
28893WAT     H286922   4.490   0.711   4.529
28894WAT      O86923   5.373   5.709   7.452
28894WAT     H186924   5.282   5.673   7.433
28894WAT     H286925   5.417   5.738   7.367
28895WAT      O86926   6.884   0.290   9.120
28895WAT     H186927   6.917   0.324   9.032
28895WAT     H286928   6.956   0.238   9.165
28896WAT      O86929   0.246   7.278   7.821
28896WAT     H186930   0.335   7.323   7.827
28896WAT     H286931   0.177   7.345   7.796
28897WAT      O86932   4.023   4.081   4.755
28897WAT     H186933   4.081   4.162   4.751
28897WAT     H286934   4.024   4.035   4.666
28898WAT      O86935   4.014   2.554   2.036
28898WAT     H186936   4.092   2.607   2.003
28898WAT     H286937   3.932   2.612   2.038
28899WAT      O86938   1.216   2.706   1.255
28899WAT     H186939   1.262   2.741   1.174
28899WAT     H286940   1.271   2.635   1.297
28900WAT      O86941   9.035   2.935   9.566
28900WAT     H186942   9.043   2.886   9.653
28900WAT     H286943   8.964   3.004   9.574
28901WAT      O86944   2.601   3.725   8.192
28901WAT     H186945   2.520   3.696   8.243
28901WAT     H286946   2.631   3.650   8.133
28902WAT      O86947   6.984   1.689   0.610
28902WAT     H186948   6.961   1.591   0.614
28902WAT     H286949   6.930   1.739   0.678
28903WAT      O86950   9.670   2.262   0.534
28903WAT     H186951   9.653   2.360   0.522
28903WAT     H286952   9.611   2.227   0.606
28904WAT      O86953   7.540   2.979   5.282
28904WAT     H186954   7.610   3.014   5.344
28904WAT     H286955   7.451   2.980   5.327
28905WAT      O86956   3.968   0.995   3.906
28905WAT     H186957   3.993   1.083   3.866
28905WAT     H286958   4.016   0.984   3.993
28906WAT      O86959   3.165   3.036   0.267
28906WAT     H186960   3.203   2.974   0.198
28906WAT     H286961   3.179   3.131   0.238
28907WAT      O86962   1.220   2.938   7.184
28907WAT     H186963   1.136   2.890   7.208
28907WAT     H286964   1.296   2.904   7.240
28908WAT      O86965   3.849   3.298   3.021
28908WAT     H186966   3.837   3.295   3.120
28908WAT     H286967   3.779   3.241   2.977
28909WAT      O86968   8.242   2.944   5.067
28909WAT     H186969   8.196   2.885   5.001
28909WAT     H286970   8.204   3.036   5.062
28910WAT      O86971   0.256   2.643   0.066
28910WAT     H186972   0.291   2.550   0.082
28910WAT     H286973   0.194   2.643  -0.012
28911WAT      O86974   8.747   0.949   1.772
28911WAT     H186975   8.731   0.897   1.857
28911WAT     H286976   8.725   0.892   1.693
28912WAT      O86977   9.301   0.848   6.602
28912WAT     H186978   9.234   0.885   6.667
28912WAT     H286979   9.304   0.906   6.521
28913WAT      O86980   0.553   1.015   5.398
28913WAT     H186981   0.592   1.106   5.407
28913WAT     H286982   0.627   0.948   5.388
28914WAT      O86983   3.923   8.973   6.742
28914WAT     H186984   3.999   8.940   6.799
28914WAT     H286985   3.953   9.052   6.689
28915WAT      O86986   1.601   7.370   1.208
28915WAT     H186987   1.509   7.392   1.241
28915WAT     H286988   1.652   7.321   1.279
28916WAT      O86989   5.630   2.593   2.936
28916WAT     H186990   5.648   2.495   2.929
28916WAT     H286991   5.557   2.608   3.003
28917WAT      O86992   0.203   2.784   0.910
28917WAT     H186993   0.229   2.706   0.967
28917WAT     H286994   0.135   2.755   0.843
28918WAT      O86995   1.033   4.565   3.421
28918WAT     H186996   0.963   4.597   3.485
28918WAT     H286997   1.100   4.637   3.404
28919WAT      O86998   1.653   9.243   6.165
28919WAT     H186999   1.682   9.167   6.106
28919WAT     H287000   1.583   9.296   6.118
28920WAT      O87001   7.356   2.835   2.496
28920WAT     H187002   7.437   2.889   2.520
28920WAT     H287003   7.379   2.775   2.418
28921WAT      O87004   5.433   4.534   0.299
28921WAT     H187005   5.518   4.496   0.264
28921WAT     H287006   5.449   4.575   0.389
28922WAT      O87007   4.998   9.211   5.334
28922WAT     H187008   4.993   9.143   5.408
28922WAT     H287009   5.089   9.207   5.291
28923WAT      O87010   8.001   7.660   5.077
28923WAT     H187011   8.011   7.677   4.979
28923WAT     H287012   8.043   7.735   5.128
28924WAT      O87013   3.384   1.916   9.383
28924WAT     H187014   3.439   1.999   9.371
28924WAT     H287015   3.304   1.937   9.440
28925WAT      O87016   0.950   0.448   8.951
28925WAT     H187017   0.886   0.403   9.014
28925WAT     H287018   0.986   0.381   8.887
28926WAT      O87019   8.898   7.021   4.094
28926WAT     H187020   8.995   7.007   4.074
28926WAT     H287021   8.842   6.991   4.017
28927WAT      O87022   9.639   4.306   2.034
28927WAT     H187023   9.562   4.305   1.971
28927WAT     H287024   9.641   4.393   2.083
28928WAT      O87025   9.670   3.083   7.913
28928WAT     H187026   9.766   3.106   7.931
28928WAT     H287027   9.634   3.145   7.843
28929WAT      O87028   2.534   6.671   2.596
28929WAT     H187029   2.519   6.760   2.638
28929WAT     H287030   2.491   6.600   2.652
28930WAT      O87031   9.378   7.879   9.641
28930WAT     H187032   9.406   7.917   9.553
28930WAT     H287033   9.281   7.855   9.637
28931WAT      O87034   2.016   3.627   4.838
28931WAT     H187035   2.104   3.580   4.832
28931WAT     H287036   1.991   3.663   4.748
28932WAT      O87037   5.750   7.569   3.512
28932WAT     H187038   5.739   7.521   3.599
28932WAT     H287039   5.782   7.663   3.530
28933WAT      O87040   5.249   4.432   8.988
28933WAT     H187041   5.320   4.401   8.924
28933WAT     H287042   5.283   4.424   9.082
28934WAT      O87043   2.798   5.552   9.403
28934WAT     H187044   2.739   5.484   9.448
28934WAT     H287045   2.858   5.505   9.338
28935WAT      O87046   2.847   1.791   7.883
28935WAT     H187047   2.758   1.782   7.839
28935WAT     H287048   2.857   1.883   7.921
28936WAT      O87049   1.592   8.333   5.901
28936WAT     H187050   1.683   8.345   5.943
28936WAT     H287051   1.595   8.364   5.806
28937WAT      O87052   8.674   2.501   9.296
28937WAT     H187053   8.691   2.590   9.339
28937WAT     H287054   8.665   2.512   9.197
28938WAT      O87055   8.342   1.185   6.059
28938WAT     H187056   8.342   1.108   5.996
28938WAT     H287057   8.281   1.166   6.136
28939WAT      O87058   2.818   7.597   1.046
28939WAT     H187059   2.831   7.603   1.145
28939WAT     H287060   2.762   7.674   1.015
28940WAT      O87061   0.221   7.060   6.702
28940WAT     H187062   0.290   7.086   6.770
28940WAT     H287063   0.151   7.132   6.697
28941WAT      O87064   3.314   7.291   0.906
28941WAT     H187065   3.359   7.224   0.847
28941WAT     H287066   3.222   7.309   0.871
28942WAT      O87067   8.587   6.098   7.084
28942WAT     H187068   8.641   6.042   7.146
28942WAT     H287069   8.633   6.185   7.069
28943WAT      O87070   5.988   0.567   1.662
28943WAT     H187071   5.947   0.588   1.750
28943WAT     H287072   6.060   0.498   1.673
28944WAT      O87073   7.007   0.759   1.535
28944WAT     H187074   6.934   0.822   1.510
28944WAT     H287075   6.992   0.671   1.490
28945WAT      O87076   6.880   2.319   2.716
28945WAT     H187077   6.839   2.397   2.763
28945WAT     H287078   6.856   2.322   2.619
28946WAT      O87079   9.308   7.281   8.117
28946WAT     H187080   9.330   7.187   8.092
28946WAT     H287081   9.210   7.298   8.101
28947WAT      O87082   0.530   1.444   7.932
28947WAT     H187083   0.528   1.476   8.026
28947WAT     H287084   0.594   1.500   7.879
28948WAT      O87085   1.531   6.393   8.803
28948WAT     H187086   1.584   6.330   8.746
28948WAT     H287087   1.582   6.478   8.814
28949WAT      O87088   0.192   1.051   7.713
28949WAT     H187089   0.195   1.028   7.616
28949WAT     H287090   0.271   1.107   7.737
28950WAT      O87091   4.319   9.427   4.499
28950WAT     H187092   4.393   9.431   4.566
28950WAT     H287093   4.338   9.355   4.432
28951WAT      O87094   9.279   4.982   1.016
28951WAT     H187095   9.209   4.913   1.032
28951WAT     H287096   9.272   5.016   0.923
28952WAT      O87097   8.186   0.638   1.269
28952WAT     H187098   8.285   0.653   1.259
28952WAT     H287099   8.169   0.579   1.347
28953WAT      O87100   0.777   0.169   8.586
28953WAT     H187101   0.832   0.251   8.571
28953WAT     H287102   0.689   0.179   8.540
28954WAT      O87103   2.528   2.726   3.705
28954WAT     H187104   2.608   2.668   3.694
28954WAT     H287105   2.558   2.822   3.710
28955WAT      O87106   8.975   1.479   1.321
28955WAT     H187107   8.934   1.570   1.332
28955WAT     H287108   8.944   1.439   1.235
28956WAT      O87109   4.729   8.572   5.103
28956WAT     H187110   4.691   8.480   5.106
28956WAT     H287111   4.658   8.636   5.072
28957WAT      O87112   8.139   9.629   3.364
28957WAT     H187113   8.107   9.709   3.416
28957WAT     H287114   8.078   9.552   3.382
28958WAT      O87115   7.137   5.966   9.493
28958WAT     H187116   7.162   6.059   9.520
28958WAT     H287117   7.116   5.913   9.575
28959WAT      O87118   0.381   8.334   5.840
28959WAT     H187119   0.408   8.427   5.862
28959WAT     H287120   0.288   8.335   5.802
28960WAT      O87121   7.049   6.491   3.680
28960WAT     H187122   7.003   6.463   3.764
28960WAT     H287123   7.017   6.581   3.652
28961WAT      O87124   9.492   0.304   0.330
28961WAT     H187125   9.481   0.295   0.231
28961WAT     H287126   9.584   0.336   0.350
28962WAT      O87127   1.552   6.993   0.731
28962WAT     H187128   1.563   7.089   0.706
28962WAT     H287129   1.619   6.970   0.802
28963WAT      O87130   9.872   8.335   9.856
28963WAT     H187131   9.840   8.272   9.927
28963WAT     H287132   9.969   8.355   9.871
28964WAT      O87133   4.799   6.389   0.570
28964WAT     H187134   4.794   6.321   0.643
28964WAT     H287135   4.745   6.358   0.492
28965WAT      O87136   1.724   3.608   2.315
28965WAT     H187137   1.656   3.554   2.365
28965WAT     H287138   1.678   3.674   2.256
28966WAT      O87139   0.937   1.209   7.906
28966WAT     H187140   0.871   1.140   7.934
28966WAT     H287141   0.902   1.260   7.828
28967WAT      O87142   2.799   8.952   7.799
28967WAT     H187143   2.865   9.024   7.821
28967WAT     H287144   2.714   8.969   7.849
28968WAT      O87145   4.538   0.885   7.199
28968WAT     H187146   4.530   0.891   7.298
28968WAT     H287147   4.600   0.956   7.166
28969WAT      O87148   3.100   2.200   5.845
28969WAT     H187149   3.035   2.275   5.831
28969WAT     H287150   3.081   2.127   5.780
28970WAT      O87151   6.657   8.283   8.249
28970WAT     H187152   6.691   8.317   8.161
28970WAT     H287153   6.563   8.315   8.262
28971WAT      O87154   7.713   4.834   6.830
28971WAT     H187155   7.724   4.742   6.867
28971WAT     H287156   7.667   4.891   6.898
28972WAT      O87157   9.562   5.464   3.939
28972WAT     H187158   9.625   5.427   4.008
28972WAT     H287159   9.580   5.421   3.851
28973WAT      O87160   2.786   1.262   1.863
28973WAT     H187161   2.732   1.335   1.905
28973WAT     H287162   2.736   1.225   1.785
28974WAT      O87163   5.420   8.973   4.813
28974WAT     H187164   5.436   8.919   4.730
28974WAT     H287165   5.336   9.027   4.801
28975WAT      O87166   9.330   3.685   7.373
28975WAT     H187167   9.285   3.596   7.374
28975WAT     H287168   9.366   3.706   7.464
28976WAT      O87169   8.639   9.808   1.129
28976WAT     H187170   8.570   9.766   1.189
28976WAT     H287171   8.705   9.859   1.185
28977WAT      O87172   1.444   5.745   8.972
28977WAT     H187173   1.348   5.742   8.997
28977WAT     H287174   1.459   5.817   8.904
28978WAT      O87175   3.779   7.046   2.241
28978WAT     H187176   3.695   7.071   2.289
28978WAT     H287177   3.805   6.952   2.265
28979WAT      O87178   9.472   6.259   0.415
28979WAT     H187179   9.384   6.214   0.429
28979WAT     H287180   9.481   6.285   0.319
28980WAT      O87181   2.280   1.443   2.730
28980WAT     H187182   2.181   1.430   2.735
28980WAT     H287183   2.302   1.509   2.659
28981WAT      O87184   5.006   6.603   9.043
28981WAT     H187185   4.915   6.594   9.085
28981WAT     H287186   5.051   6.684   9.078
28982WAT      O87187   3.676   1.061   2.371
28982WAT     H187188   3.744   1.133   2.385
28982WAT     H287189   3.595   1.100   2.326
28983WAT      O87190   7.403   2.167   3.783
28983WAT     H187191   7.483   2.194   3.728
28983WAT     H287192   7.383   2.071   3.767
28984WAT      O87193   1.107   5.861   0.519
28984WAT     H187194   1.129   5.946   0.567
28984WAT     H287195   1.026   5.819   0.561
28985WAT      O87196   5.624   2.662   0.545
28985WAT     H187197   5.548   2.627   0.492
28985WAT     H287198   5.597   2.747   0.590
28986WAT      O87199   7.053   5.131   7.354
28986WAT     H187200   7.059   5.158   7.450
28986WAT     H287201   7.145   5.112   7.318
28987WAT      O87202   0.466   2.787   7.987
28987WAT     H187203   0.395   2.763   8.054
28987WAT     H287204   0.505   2.876   8.010
28988WAT      O87205   7.290   9.793   1.713
28988WAT     H187206   7.216   9.857   1.733
28988WAT     H287207   7.352   9.788   1.791
28989WAT      O87208   8.096   4.010   5.137
28989WAT     H187209   8.090   4.105   5.107
28989WAT     H287210   8.191   3.979   5.130
28990WAT      O87211   3.276   7.643   1.991
28990WAT     H187212   3.182   7.671   1.969
28990WAT     H287213   3.276   7.546   2.015
28991WAT      O87214   1.153   4.009   7.943
28991WAT     H187215   1.229   3.950   7.916
28991WAT     H287216   1.177   4.058   8.027
28992WAT      O87217   0.749   7.612   5.955
28992WAT     H187218   0.781   7.685   6.015
28992WAT     H287219   0.825   7.549   5.936
28993WAT      O87220   1.666   3.442   9.305
28993WAT     H187221   1.626   3.399   9.386
28993WAT     H287222   1.680   3.373   9.234
28994WAT      O87223   6.636   2.450   8.334
28994WAT     H187224   6.628   2.390   8.413
28994WAT     H287225   6.571   2.421   8.263
28995WAT      O87226   7.197   4.390   4.998
28995WAT     H187227   7.148   4.396   5.085
28995WAT     H287228   7.247   4.303   4.993
28996WAT      O87229   4.213   8.507   1.940
28996WAT     H187230   4.185   8.414   1.962
28996WAT     H287231   4.240   8.511   1.843
28997WAT      O87232   1.730   7.593   1.104
28997WAT     H187233   1.677   7.519   1.145
28997WAT     H287234   1.680   7.679   1.112
28998WAT      O87235   6.587   1.006   0.913
28998WAT     H187236   6.585   0.977   1.008
28998WAT     H287237   6.579   1.106   0.909
28999WAT      O87238   6.263   6.751   5.142
28999WAT     H187239   6.229   6.843   5.119
28999WAT     H287240   6.362   6.748   5.129
29000WAT      O87241   8.924   1.108   8.977
29000WAT     H187242   8.970   1.082   8.892
29000WAT     H287243   8.880   1.197   8.965
29001WAT      O87244   5.879   6.707   0.779
29001WAT     H187245   5.911   6.640   0.847
29001WAT     H287246   5.942   6.785   0.778
29002WAT      O87247   7.128   4.721   6.319
29002WAT     H187248   7.143   4.810   6.362
29002WAT     H287249   7.207   4.698   6.262
29003WAT      O87250   2.350   6.901   6.255
29003WAT     H187251   2.331   6.936   6.347
29003WAT     H287252   2.419   6.959   6.211
29004WAT      O87253   5.026   0.078   6.069
29004WAT     H187254   5.064  -0.004   6.111
29004WAT     H287255   5.021   0.151   6.137
29005WAT      O87256   0.467   5.240   2.555
29005WAT     H187257   0.533   5.285   2.616
29005WAT     H287258   0.394   5.199   2.610
29006WAT      O87259   6.596   4.949   2.400
29006WAT     H187260   6.504   4.984   2.421
29006WAT     H287261   6.653   4.953   2.482
29007WAT      O87262   3.178   5.574   3.778
29007WAT     H187263   3.155   5.670   3.763
29007WAT     H287264   3.256   5.568   3.841
29008WAT      O87265   0.823   5.966   0.550
29008WAT     H187266   0.834   5.973   0.451
29008WAT     H287267   0.786   6.053   0.585
29009WAT      O87268   7.533   2.053   1.289
29009WAT     H187269   7.608   2.118   1.277
29009WAT     H287270   7.519   2.036   1.387
29010WAT      O87271   3.103   3.385   6.376
29010WAT     H187272   3.195   3.404   6.343
29010WAT     H287273   3.046   3.467   6.364
29011WAT      O87274   8.742   7.712   5.381
29011WAT     H187275   8.751   7.616   5.408
29011WAT     H287276   8.827   7.761   5.403
29012WAT      O87277   7.705   9.746   8.439
29012WAT     H187278   7.775   9.716   8.374
29012WAT     H287279   7.709   9.845   8.451
29013WAT      O87280   1.428   8.973   6.470
29013WAT     H187281   1.405   8.980   6.373
29013WAT     H287282   1.519   9.012   6.486
29014WAT      O87283   0.578   8.504   0.573
29014WAT     H187284   0.603   8.520   0.477
29014WAT     H287285   0.497   8.445   0.577
29015WAT      O87286   5.072   1.827   5.270
29015WAT     H187287   5.031   1.785   5.188
29015WAT     H287288   5.001   1.878   5.319
29016WAT      O87289   0.463   1.924   4.330
29016WAT     H187290   0.559   1.952   4.320
29016WAT     H287291   0.437   1.866   4.254
29017WAT      O87292   4.081   5.358   0.884
29017WAT     H187293   4.024   5.412   0.822
29017WAT     H287294   4.059   5.261   0.874
29018WAT      O87295   1.544   9.634   6.289
29018WAT     H187296   1.475   9.562   6.294
29018WAT     H287297   1.568   9.651   6.193
29019WAT      O87298   0.815   7.991   4.976
29019WAT     H187299   0.774   7.940   4.901
29019WAT     H287300   0.749   8.001   5.051
29020WAT      O87301   2.163   5.838   4.108
29020WAT     H187302   2.171   5.920   4.164
29020WAT     H287303   2.110   5.860   4.025
29021WAT      O87304   5.972   5.929   6.904
29021WAT     H187305   5.900   5.998   6.903
29021WAT     H287306   5.948   5.855   6.967
29022WAT      O87307   5.036   6.742   2.130
29022WAT     H187308   5.017   6.737   2.228
29022WAT     H287309   5.134   6.758   2.117
29023WAT      O87310   1.146   1.973   7.977
29023WAT     H187311   1.171   1.901   8.042
29023WAT     H287312   1.221   2.038   7.969
29024WAT      O87313   1.697   4.815   4.744
29024WAT     H187314   1.744   4.900   4.769
29024WAT     H287315   1.650   4.778   4.824
29025WAT      O87316   1.027   8.932   8.914
29025WAT     H187317   1.022   8.832   8.917
29025WAT     H287318   1.112   8.959   8.868
29026WAT      O87319   2.565   3.496   6.446
29026WAT     H187320   2.553   3.594   6.463
29026WAT     H287321   2.595   3.482   6.351
29027WAT      O87322   4.673   3.573   6.691
29027WAT     H187323   4.636   3.513   6.620
29027WAT     H287324   4.773   3.569   6.688
29028WAT      O87325   7.041   9.285   5.605
29028WAT     H187326   7.007   9.367   5.558
29028WAT     H287327   7.130   9.260   5.568
29029WAT      O87328   0.047   4.204   0.480
29029WAT     H187329  -0.048   4.175   0.470
29029WAT     H287330   0.052   4.279   0.546
29030WAT      O87331   8.363   1.742   1.600
29030WAT     H187332   8.315   1.825   1.573
29030WAT     H287333   8.389   1.749   1.696
29031WAT      O87334   7.258   0.781   5.585
29031WAT     H187335   7.191   0.847   5.620
29031WAT     H287336   7.209   0.705   5.540
29032WAT      O87337   9.722   3.928   6.610
29032WAT     H187338   9.807   3.934   6.558
29032WAT     H287339   9.737   3.873   6.693
29033WAT      O87340   7.828   6.525   3.823
29033WAT     H187341   7.891   6.454   3.792
29033WAT     H287342   7.737   6.508   3.784
29034WAT      O87343   8.615   9.742   8.901
29034WAT     H187344   8.542   9.787   8.850
29034WAT     H287345   8.639   9.656   8.857
29035WAT      O87346   8.212   6.162   2.029
29035WAT     H187347   8.230   6.101   2.107
29035WAT     H287348   8.298   6.180   1.981
29036WAT      O87349   2.445   5.606   2.335
29036WAT     H187350   2.442   5.648   2.426
29036WAT     H287351   2.352   5.598   2.299
29037WAT      O87352   9.627   0.644   7.941
29037WAT     H187353   9.682   0.672   7.862
29037WAT     H287354   9.562   0.574   7.912
29038WAT      O87355   1.131   4.159   9.129
29038WAT     H187356   1.161   4.172   9.223
29038WAT     H287357   1.092   4.245   9.094
29039WAT      O87358   8.051   1.355   9.891
29039WAT     H187359   7.958   1.338   9.857
29039WAT     H287360   8.103   1.403   9.820
29040WAT      O87361   1.884   4.357   7.225
29040WAT     H187362   1.981   4.376   7.242
29040WAT     H287363   1.838   4.441   7.197
29041WAT      O87364   7.045   4.369   5.226
29041WAT     H187365   7.053   4.270   5.236
29041WAT     H287366   6.948   4.395   5.230
29042WAT      O87367   0.721   5.478   6.593
29042WAT     H187368   0.762   5.443   6.509
29042WAT     H287369   0.634   5.432   6.610
29043WAT      O87370   0.934   1.176   1.384
29043WAT     H187371   1.025   1.154   1.419
29043WAT     H287372   0.922   1.276   1.385
29044WAT      O87373   7.223   0.422   6.483
29044WAT     H187374   7.144   0.378   6.526
29044WAT     H287375   7.292   0.354   6.461
29045WAT      O87376   3.053   3.438   3.533
29045WAT     H187377   3.112   3.443   3.453
29045WAT     H287378   3.096   3.486   3.610
29046WAT      O87379   5.859   2.219   1.164
29046WAT     H187380   5.917   2.146   1.201
29046WAT     H287381   5.821   2.189   1.076
29047WAT      O87382   2.694   8.207   2.813
29047WAT     H187383   2.721   8.272   2.743
29047WAT     H287384   2.635   8.252   2.880
29048WAT      O87385   3.913   5.337   3.754
29048WAT     H187386   3.865   5.399   3.693
29048WAT     H287387   3.863   5.329   3.841
29049WAT      O87388   5.532   2.283   9.434
29049WAT     H187389   5.630   2.264   9.441
29049WAT     H287390   5.507   2.299   9.339
29050WAT      O87391   7.029   6.844   1.951
29050WAT     H187392   7.116   6.795   1.961
29050WAT     H287393   7.047   6.941   1.940
29051WAT      O87394   3.790   0.341   8.044
29051WAT     H187395   3.843   0.280   7.984
29051WAT     H287396   3.783   0.431   8.001
29052WAT      O87397   7.889   1.881   8.472
29052WAT     H187398   7.882   1.853   8.376
29052WAT     H287399   7.986   1.884   8.498
29053WAT      O87400   4.473   8.424   8.274
29053WAT     H187401   4.421   8.501   8.239
29053WAT     H287402   4.450   8.342   8.222
29054WAT      O87403   7.224   2.564   9.444
29054WAT     H187404   7.154   2.507   9.487
29054WAT     H287405   7.314   2.521   9.458
29055WAT      O87406   5.840   7.342   9.152
29055WAT     H187407   5.763   7.401   9.128
29055WAT     H287408   5.847   7.268   9.085
29056WAT      O87409   4.760   2.458   6.221
29056WAT     H187410   4.778   2.390   6.293
29056WAT     H287411   4.845   2.482   6.176
29057WAT      O87412   9.577   3.506   2.139
29057WAT     H187413   9.657   3.462   2.098
29057WAT     H287414   9.494   3.465   2.103
29058WAT      O87415   7.620   8.063   4.674
29058WAT     H187416   7.716   8.045   4.657
29058WAT     H287417   7.588   8.006   4.750
29059WAT      O87418   2.301   4.380   2.407
29059WAT     H187419   2.376   4.321   2.378
29059WAT     H287420   2.266   4.349   2.496
29060WAT      O87421   4.214   9.103   7.302
29060WAT     H187422   4.125   9.113   7.347
29060WAT     H287423   4.215   9.018   7.249
29061WAT      O87424   5.517   1.605   8.146
29061WAT     H187425   5.443   1.538   8.142
29061WAT     H287426   5.497   1.680   8.083
29062WAT      O87427   6.561   6.917   7.881
29062WAT     H187428   6.633   6.954   7.940
29062WAT     H287429   6.574   6.819   7.869
29063WAT      O87430   7.082   2.349   4.331
29063WAT     H187431   7.081   2.436   4.381
29063WAT     H287432   7.161   2.295   4.360
29064WAT      O87433   2.221   8.810   3.407
29064WAT     H187434   2.292   8.802   3.477
29064WAT     H287435   2.171   8.896   3.419
29065WAT      O87436   9.433   4.851   0.763
29065WAT     H187437   9.485   4.802   0.832
29065WAT     H287438   9.466   4.945   0.756
29066WAT      O87439   9.191   5.365   2.899
29066WAT     H187440   9.137   5.290   2.863
29066WAT     H287441   9.177   5.372   2.998
29067WAT      O87442   9.063   5.137   2.021
29067WAT     H187443   9.045   5.039   2.031
29067WAT     H287444   9.033   5.168   1.931
29068WAT      O87445   5.411   5.540   3.361
29068WAT     H187446   5.508   5.544   3.383
29068WAT     H287447   5.371   5.631   3.370
29069WAT      O87448   3.705   7.643   3.486
29069WAT     H187449   3.768   7.688   3.549
29069WAT     H287450   3.649   7.578   3.537
29070WAT      O87451   9.656   1.324   2.519
29070WAT     H187452   9.699   1.308   2.608
29070WAT     H287453   9.717   1.379   2.462
29071WAT      O87454   3.711   4.791   9.479
29071WAT     H187455   3.762   4.877   9.486
29071WAT     H287456   3.722   4.740   9.564
29072WAT      O87457   9.738   7.738   3.336
29072WAT     H187458   9.820   7.774   3.291
29072WAT     H287459   9.661   7.743   3.273
29073WAT      O87460   2.451   4.770   5.582
29073WAT     H187461   2.353   4.775   5.602
29073WAT     H287462   2.483   4.676   5.595
29074WAT      O87463   8.921   9.826   3.596
29074WAT     H187464   9.010   9.860   3.566
29074WAT     H287465   8.865   9.802   3.517
29075WAT      O87466   3.565   8.786   5.919
29075WAT     H187467   3.471   8.818   5.924
29075WAT     H287468   3.566   8.689   5.895
29076WAT      O87469   7.433   2.952   3.109
29076WAT     H187470   7.517   2.914   3.147
29076WAT     H287471   7.367   2.878   3.093
29077WAT      O87472   8.066   5.699   9.268
29077WAT     H187473   8.064   5.792   9.304
29077WAT     H287474   8.079   5.635   9.343
29078WAT      O87475   8.494   4.961   9.262
29078WAT     H187476   8.522   5.054   9.288
29078WAT     H287477   8.397   4.949   9.281
29079WAT      O87478   7.219   5.289   8.660
29079WAT     H187479   7.240   5.305   8.564
29079WAT     H287480   7.139   5.343   8.686
29080WAT      O87481   0.080   3.841   4.739
29080WAT     H187482   0.100   3.766   4.676
29080WAT     H287483   0.151   3.846   4.809
29081WAT      O87484   6.004   5.635   2.372
29081WAT     H187485   5.945   5.694   2.427
29081WAT     H287486   5.952   5.597   2.296
29082WAT      O87487   5.200   5.523   6.827
29082WAT     H187488   5.271   5.593   6.838
29082WAT     H287489   5.196   5.466   6.909
29083WAT      O87490   1.421   7.848   3.692
29083WAT     H187491   1.356   7.800   3.751
29083WAT     H287492   1.400   7.945   3.692
29084WAT      O87493   6.386   7.540   0.462
29084WAT     H187494   6.326   7.582   0.530
29084WAT     H287495   6.467   7.502   0.508
29085WAT      O87496   1.076   4.950   3.535
29085WAT     H187497   0.982   4.917   3.530
29085WAT     H287498   1.076   5.050   3.541
29086WAT      O87499   1.890   4.435   0.603
29086WAT     H187500   1.804   4.391   0.577
29086WAT     H287501   1.966   4.382   0.567
29087WAT      O87502   7.005   9.534   3.791
29087WAT     H187503   6.977   9.447   3.750
29087WAT     H287504   6.925   9.580   3.829
29088WAT      O87505   5.197   9.623   5.207
29088WAT     H187506   5.125   9.689   5.189
29088WAT     H287507   5.177   9.571   5.290
29089WAT      O87508   3.087   0.950   4.583
29089WAT     H187509   3.022   0.898   4.638
29089WAT     H287510   3.092   0.910   4.491
29090WAT      O87511   3.279   7.970   0.216
29090WAT     H187512   3.341   7.947   0.291
29090WAT     H287513   3.185   7.964   0.248
29091WAT      O87514   6.909   2.892   4.709
29091WAT     H187515   6.826   2.879   4.763
29091WAT     H287516   6.986   2.849   4.756
29092WAT      O87517   6.282   1.050   5.460
29092WAT     H187518   6.322   1.100   5.537
29092WAT     H287519   6.223   0.978   5.494
29093WAT      O87520   3.723   1.433   3.474
29093WAT     H187521   3.703   1.531   3.483
29093WAT     H287522   3.704   1.403   3.380
29094WAT      O87523   9.560   4.765   8.252
29094WAT     H187524   9.580   4.817   8.169
29094WAT     H287525   9.631   4.696   8.267
29095WAT      O87526   8.558   8.335   1.278
29095WAT     H187527   8.506   8.251   1.292
29095WAT     H287528   8.617   8.352   1.356
29096WAT      O87529   0.893   0.993   0.696
29096WAT     H187530   0.847   1.080   0.710
29096WAT     H287531   0.851   0.924   0.755
29097WAT      O87532   9.242   7.833   0.642
29097WAT     H187533   9.167   7.788   0.594
29097WAT     H287534   9.208   7.915   0.687
29098WAT      O87535   2.827   6.263   5.462
29098WAT     H187536   2.910   6.211   5.483
29098WAT     H287537   2.800   6.315   5.543
29099WAT      O87538   2.976   9.754   3.090
29099WAT     H187539   2.957   9.809   3.009
29099WAT     H287540   2.997   9.814   3.167
29100WAT      O87541   0.393   6.241   5.147
29100WAT     H187542   0.361   6.293   5.226
29100WAT     H287543   0.493   6.247   5.142
29101WAT      O87544   8.732   0.668   8.978
29101WAT     H187545   8.749   0.748   9.036
29101WAT     H287546   8.812   0.608   8.982
29102WAT      O87547   5.360   9.314   3.200
29102WAT     H187548   5.313   9.325   3.112
29102WAT     H287549   5.388   9.219   3.212
29103WAT      O87550   4.073   1.972   0.910
29103WAT     H187551   3.978   2.004   0.910
29103WAT     H287552   4.134   2.049   0.927
29104WAT      O87553   1.576   1.406   2.853
29104WAT     H187554   1.588   1.502   2.881
29104WAT     H287555   1.517   1.402   2.773
29105WAT      O87556   8.611   5.852   5.335
29105WAT     H187557   8.555   5.914   5.390
29105WAT     H287558   8.658   5.905   5.264
29106WAT      O87559   4.107   2.683   1.058
29106WAT     H187560   4.086   2.776   1.086
29106WAT     H287561   4.065   2.665   0.969
29107WAT      O87562   6.308   9.487   8.497
29107WAT     H187563   6.319   9.578   8.456
29107WAT     H287564   6.242   9.492   8.572
29108WAT      O87565   0.970   0.376   8.544
29108WAT     H187566   0.999   0.400   8.451
29108WAT     H287567   1.051   0.358   8.600
29109WAT      O87568   7.185   4.312   1.137
29109WAT     H187569   7.212   4.222   1.103
29109WAT     H287570   7.107   4.302   1.199
29110WAT      O87571   8.405   3.773   3.642
29110WAT     H187572   8.488   3.828   3.655
29110WAT     H287573   8.345   3.785   3.721
29111WAT      O87574   5.706   7.286   1.929
29111WAT     H187575   5.674   7.215   1.867
29111WAT     H287576   5.743   7.244   2.012
29112WAT      O87577   2.001   6.676   0.291
29112WAT     H187578   1.931   6.744   0.315
29112WAT     H287579   1.980   6.638   0.201
29113WAT      O87580   2.951   5.591   2.766
29113WAT     H187581   2.892   5.531   2.712
29113WAT     H287582   2.900   5.675   2.788
29114WAT      O87583   4.184   0.251   8.437
29114WAT     H187584   4.091   0.221   8.413
29114WAT     H287585   4.178   0.321   8.509
29115WAT      O87586   4.024   4.027   2.048
29115WAT     H187587   4.044   3.952   2.112
29115WAT     H287588   4.098   4.035   1.982
29116WAT      O87589   0.620   9.660   9.143
29116WAT     H187590   0.694   9.700   9.088
29116WAT     H287591   0.658   9.592   9.206
29117WAT      O87592   6.582   8.517   2.065
29117WAT     H187593   6.548   8.544   2.155
29117WAT     H287594   6.591   8.418   2.062
29118WAT      O87595   0.145   7.881   9.111
29118WAT     H187596   0.216   7.951   9.115
29118WAT     H287597   0.174   7.809   9.047
29119WAT      O87598   5.419   1.826   3.951
29119WAT     H187599   5.514   1.855   3.952
29119WAT     H287600   5.411   1.742   3.897
29120WAT      O87601   9.115   2.657   8.854
29120WAT     H187602   9.144   2.574   8.809
29120WAT     H287603   9.057   2.634   8.932
29121WAT      O87604   5.539   1.244   9.297
29121WAT     H187605   5.501   1.333   9.321
29121WAT     H287606   5.486   1.172   9.342
29122WAT      O87607   1.708   3.484   1.878
29122WAT     H187608   1.662   3.538   1.808
29122WAT     H287609   1.712   3.388   1.848
29123WAT      O87610   8.175   4.181   3.780
29123WAT     H187611   8.110   4.256   3.775
29123WAT     H287612   8.142   4.105   3.723
29124WAT      O87613   6.954   8.978   0.408
29124WAT     H187614   6.861   8.997   0.377
29124WAT     H287615   7.013   8.961   0.329
29125WAT      O87616   4.042   7.644   9.757
29125WAT     H187617   4.078   7.732   9.729
29125WAT     H287618   3.957   7.625   9.707
29126WAT      O87619   2.382   0.945   3.502
29126WAT     H187620   2.358   0.921   3.408
29126WAT     H287621   2.362   0.868   3.563
29127WAT      O87622   4.786   2.802   0.943
29127WAT     H187623   4.806   2.891   0.985
29127WAT     H287624   4.687   2.792   0.932
29128WAT      O87625   0.632   8.993   7.308
29128WAT     H187626   0.595   9.083   7.285
29128WAT     H287627   0.558   8.926   7.312
29129WAT      O87628   7.349   0.969   1.784
29129WAT     H187629   7.412   0.946   1.858
29129WAT     H287630   7.315   0.885   1.741
29130WAT      O87631   6.118   0.906   3.971
29130WAT     H187632   6.145   0.861   4.056
29130WAT     H287633   6.074   0.993   3.991
29131WAT      O87634   8.276   4.794   9.612
29131WAT     H187635   8.188   4.750   9.628
29131WAT     H287636   8.280   4.881   9.660
29132WAT      O87637   1.262   8.413   0.943
29132WAT     H187638   1.279   8.419   0.845
29132WAT     H287639   1.288   8.322   0.976
29133WAT      O87640   3.246   7.543   5.716
29133WAT     H187641   3.164   7.536   5.659
29133WAT     H287642   3.265   7.639   5.735
29134WAT      O87643   7.918   8.924   6.583
29134WAT     H187644   7.854   8.925   6.661
29134WAT     H287645   8.000   8.872   6.608
29135WAT      O87646   4.363   9.560   9.243
29135WAT     H187647   4.417   9.572   9.159
29135WAT     H287648   4.405   9.611   9.317
29136WAT      O87649   1.414   0.406   1.303
29136WAT     H187650   1.460   0.476   1.357
29136WAT     H287651   1.409   0.436   1.207
29137WAT      O87652   8.796   5.720   8.828
29137WAT     H187653   8.868   5.651   8.819
29137WAT     H287654   8.739   5.720   8.746
29138WAT      O87655   4.200   4.774   1.839
29138WAT     H187656   4.248   4.710   1.779
29138WAT     H287657   4.102   4.755   1.837
29139WAT      O87658   5.939   9.071   1.192
29139WAT     H187659   5.893   8.989   1.226
29139WAT     H287660   6.021   9.089   1.246
29140WAT      O87661   1.438   6.170   5.595
29140WAT     H187662   1.387   6.243   5.641
29140WAT     H287663   1.387   6.084   5.604
29141WAT      O87664   3.757   5.943   9.879
29141WAT     H187665   3.740   5.870   9.813
29141WAT     H287666   3.677   5.954   9.938
29142WAT      O87667   5.887   0.722   7.450
29142WAT     H187668   5.900   0.790   7.522
29142WAT     H287669   5.939   0.640   7.471
29143WAT      O87670   5.125   5.348   7.014
29143WAT     H187671   5.029   5.373   7.008
29143WAT     H287672   5.138   5.256   6.977
29144WAT      O87673   1.902   6.223   5.080
29144WAT     H187674   1.874   6.157   5.150
29144WAT     H287675   1.922   6.174   4.995
29145WAT      O87676   7.490   8.687   6.625
29145WAT     H187677   7.434   8.615   6.585
29145WAT     H287678   7.581   8.687   6.583
29146WAT      O87679   6.140   4.837   0.501
29146WAT     H187680   6.106   4.743   0.499
29146WAT     H287681   6.064   4.900   0.486
29147WAT      O87682   7.470   0.060   5.526
29147WAT     H187683   7.428   0.028   5.611
29147WAT     H287684   7.408   0.041   5.449
29148WAT      O87685   5.236   2.385   3.022
29148WAT     H187686   5.172   2.396   2.946
29148WAT     H287687   5.325   2.424   2.997
29149WAT      O87688   3.023   7.185   3.257
29149WAT     H187689   3.008   7.257   3.325
29149WAT     H287690   2.943   7.179   3.197
29150WAT      O87691   4.066   2.132   2.443
29150WAT     H187692   4.019   2.058   2.491
29150WAT     H287693   4.080   2.208   2.506
29151WAT      O87694   7.642   7.646   5.946
29151WAT     H187695   7.646   7.564   6.003
29151WAT     H287696   7.717   7.644   5.880
29152WAT      O87697   6.108   0.887   0.151
29152WAT     H187698   6.107   0.985   0.169
29152WAT     H287699   6.181   0.866   0.086
29153WAT      O87700   6.772   5.756   4.557
29153WAT     H187701   6.697   5.697   4.528
29153WAT     H287702   6.736   5.840   4.596
29154WAT      O87703   2.576   1.620   9.531
29154WAT     H187704   2.516   1.694   9.561
29154WAT     H287705   2.595   1.630   9.434
29155WAT      O87706   5.193   7.306   0.057
29155WAT     H187707   5.208   7.311   0.156
29155WAT     H287708   5.277   7.274   0.013
29156WAT      O87709   6.485   2.713   0.113
29156WAT     H187710   6.451   2.641   0.051
29156WAT     H287711   6.505   2.795   0.060
29157WAT      O87712   3.909   2.849   3.251
29157WAT     H187713   3.811   2.838   3.232
29157WAT     H287714   3.954   2.890   3.171
29158WAT      O87715   3.870   1.515   9.258
29158WAT     H187716   3.920   1.450   9.316
29158WAT     H287717   3.872   1.483   9.163
29159WAT      O87718   7.972   3.980   5.389
29159WAT     H187719   8.023   4.016   5.311
29159WAT     H287720   7.965   3.881   5.382
29160WAT      O87721   1.968   9.675   3.688
29160WAT     H187722   2.004   9.689   3.596
29160WAT     H287723   1.883   9.623   3.683
29161WAT      O87724   2.869   7.789   1.864
29161WAT     H187725   2.955   7.839   1.874
29161WAT     H287726   2.885   7.692   1.881
29162WAT      O87727   5.062   6.745   9.592
29162WAT     H187728   5.029   6.651   9.604
29162WAT     H287729   5.140   6.745   9.528
29163WAT      O87730   4.048   5.218   1.988
29163WAT     H187731   4.014   5.312   1.993
29163WAT     H287732   3.986   5.158   2.038
29164WAT      O87733   4.130   6.172   1.280
29164WAT     H187734   4.166   6.215   1.363
29164WAT     H287735   4.120   6.074   1.295
29165WAT      O87736   4.174   2.150   5.229
29165WAT     H187737   4.154   2.100   5.313
29165WAT     H287738   4.265   2.125   5.197
29166WAT      O87739   4.796   0.492   2.069
29166WAT     H187740   4.735   0.571   2.056
29166WAT     H287741   4.741   0.411   2.088
29167WAT      O87742   9.481   1.815   1.768
29167WAT     H187743   9.554   1.794   1.703
29167WAT     H287744   9.393   1.787   1.729
29168WAT      O87745   6.526   3.327   1.186
29168WAT     H187746   6.622   3.355   1.180
29168WAT     H287747   6.518   3.250   1.250
29169WAT      O87748   8.944   9.557   8.770
29169WAT     H187749   9.015   9.505   8.722
29169WAT     H287750   8.967   9.564   8.867
29170WAT      O87751   0.559   0.100   3.942
29170WAT     H187752   0.560   0.074   3.846
29170WAT     H287753   0.611   0.185   3.954
29171WAT      O87754   8.294   7.918   6.758
29171WAT     H187755   8.227   7.886   6.692
29171WAT     H287756   8.334   8.004   6.727
29172WAT      O87757   7.553   5.065   0.136
29172WAT     H187758   7.573   5.040   0.041
29172WAT     H287759   7.502   4.991   0.180
29173WAT      O87760   1.736   8.049   9.560
29173WAT     H187761   1.714   8.105   9.640
29173WAT     H287762   1.691   7.960   9.569
29174WAT      O87763   0.030   3.735   2.070
29174WAT     H187764   0.037   3.639   2.095
29174WAT     H287765   0.119   3.779   2.083
29175WAT      O87766   8.200   0.947   5.522
29175WAT     H187767   8.127   1.002   5.482
29175WAT     H287768   8.163   0.859   5.551
29176WAT      O87769   8.088   6.488   1.324
29176WAT     H187770   8.002   6.498   1.274
29176WAT     H287771   8.154   6.555   1.291
29177WAT      O87772   0.664   2.667   6.010
29177WAT     H187773   0.631   2.761   6.023
29177WAT     H287774   0.699   2.632   6.096
29178WAT      O87775   9.490   2.261   8.724
29178WAT     H187776   9.391   2.255   8.712
29178WAT     H287777   9.511   2.333   8.790
29179WAT      O87778   9.593   1.071   2.550
29179WAT     H187779   9.528   1.080   2.626
29179WAT     H287780   9.646   1.155   2.540
29180WAT      O87781   1.814   7.619   3.727
29180WAT     H187782   1.870   7.699   3.746
29180WAT     H287783   1.873   7.540   3.712
29181WAT      O87784   9.766   9.394   5.892
29181WAT     H187785   9.863   9.385   5.911
29181WAT     H287786   9.718   9.310   5.919
29182WAT      O87787   2.198   3.170   0.335
29182WAT     H187788   2.204   3.206   0.242
29182WAT     H287789   2.252   3.086   0.341
29183WAT      O87790   4.150   7.296   0.953
29183WAT     H187791   4.214   7.349   0.896
29183WAT     H287792   4.175   7.306   1.049
29184WAT      O87793   7.511   0.510   5.052
29184WAT     H187794   7.460   0.425   5.033
29184WAT     H287795   7.602   0.503   5.013
29185WAT      O87796   2.459   6.431   3.008
29185WAT     H187797   2.518   6.354   2.984
29185WAT     H287798   2.415   6.466   2.926
29186WAT      O87799   6.244   8.363   1.723
29186WAT     H187800   6.333   8.321   1.704
29186WAT     H287801   6.257   8.461   1.738
29187WAT      O87802   0.208   9.415   1.781
29187WAT     H187803   0.135   9.371   1.834
29187WAT     H287804   0.178   9.505   1.751
29188WAT      O87805   6.446   0.051   3.451
29188WAT     H187806   6.395   0.137   3.454
29188WAT     H287807   6.451   0.012   3.543
29189WAT      O87808   0.439   0.042   9.163
29189WAT     H187809   0.391   0.019   9.247
29189WAT     H287810   0.490  -0.038   9.131
29190WAT      O87811   5.682   8.186   4.298
29190WAT     H187812   5.659   8.130   4.377
29190WAT     H287813   5.634   8.150   4.217
29191WAT      O87814   9.729   5.041   8.451
29191WAT     H187815   9.771   5.104   8.516
29191WAT     H287816   9.784   5.038   8.367
29192WAT      O87817   6.302   6.271   0.485
29192WAT     H187818   6.227   6.335   0.467
29192WAT     H287819   6.375   6.285   0.418
29193WAT      O87820   7.018   7.882   3.785
29193WAT     H187821   7.064   7.919   3.866
29193WAT     H287822   6.935   7.935   3.766
29194WAT      O87823   5.566   7.947   4.721
29194WAT     H187824   5.485   7.912   4.768
29194WAT     H287825   5.644   7.887   4.739
29195WAT      O87826   6.369   9.003   9.540
29195WAT     H187827   6.381   8.960   9.630
29195WAT     H287828   6.279   8.980   9.504
29196WAT      O87829   2.258   5.612   8.288
29196WAT     H187830   2.237   5.515   8.299
29196WAT     H287831   2.191   5.654   8.226
29197WAT      O87832   4.999   1.802   0.243
29197WAT     H187833   4.911   1.757   0.227
29197WAT     H287834   5.067   1.763   0.181
29198WAT      O87835   9.320   2.353   0.511
29198WAT     H187836   9.374   2.277   0.548
29198WAT     H287837   9.238   2.317   0.467
29199WAT      O87838   2.391   9.627   6.213
29199WAT     H187839   2.414   9.630   6.310
29199WAT     H287840   2.297   9.658   6.200
29200WAT      O87841   9.037   6.525   2.930
29200WAT     H187842   9.130   6.556   2.950
29200WAT     H287843   9.020   6.439   2.977
29201WAT      O87844   7.927   4.482   8.240
29201WAT     H187845   7.919   4.465   8.142
29201WAT     H287846   7.883   4.408   8.290
29202WAT      O87847   2.580   1.478   6.841
29202WAT     H187848   2.517   1.438   6.908
29202WAT     H287849   2.656   1.416   6.825
29203WAT      O87850   7.800   1.030   0.148
29203WAT     H187851   7.766   0.956   0.090
29203WAT     H287852   7.761   1.117   0.118
29204WAT      O87853   5.319   5.424   0.029
29204WAT     H187854   5.226   5.428  -0.008
29204WAT     H287855   5.338   5.331   0.062
29205WAT      O87856   1.800   9.540   3.117
29205WAT     H187857   1.885   9.590   3.102
29205WAT     H287858   1.819   9.459   3.172
29206WAT      O87859   5.304   8.052   7.002
29206WAT     H187860   5.265   7.962   6.982
29206WAT     H287861   5.250   8.122   6.956
29207WAT      O87862   8.346   3.336   4.826
29207WAT     H187863   8.419   3.344   4.758
29207WAT     H287864   8.277   3.271   4.794
29208WAT      O87865   0.533   6.505   9.003
29208WAT     H187866   0.602   6.541   8.941
29208WAT     H287867   0.554   6.410   9.026
29209WAT      O87868   5.378   8.340   6.365
29209WAT     H187869   5.467   8.301   6.344
29209WAT     H287870   5.372   8.432   6.326
29210WAT      O87871   6.991   7.134   2.078
29210WAT     H187872   7.070   7.193   2.096
29210WAT     H287873   6.972   7.078   2.159
29211WAT      O87874   6.066   1.230   4.860
29211WAT     H187875   6.144   1.208   4.801
29211WAT     H287876   6.043   1.151   4.916
29212WAT      O87877   7.802   1.436   9.621
29212WAT     H187878   7.791   1.358   9.683
29212WAT     H287879   7.838   1.405   9.533
29213WAT      O87880   5.432   2.297   2.804
29213WAT     H187881   5.371   2.220   2.790
29213WAT     H287882   5.474   2.322   2.716
29214WAT      O87883   7.591   0.540   9.507
29214WAT     H187884   7.562   0.467   9.568
29214WAT     H287885   7.691   0.547   9.509
29215WAT      O87886   0.610   8.412   4.002
29215WAT     H187887   0.604   8.317   3.972
29215WAT     H287888   0.680   8.420   4.073
29216WAT      O87889   7.295   8.635   7.999
29216WAT     H187890   7.385   8.620   7.957
29216WAT     H287891   7.285   8.576   8.078
29217WAT      O87892   6.489   1.995   1.467
29217WAT     H187893   6.449   2.013   1.377
29217WAT     H287894   6.584   1.968   1.457
29218WAT      O87895   4.515   8.839   8.734
29218WAT     H187896   4.467   8.820   8.820
29218WAT     H287897   4.475   8.783   8.661
29219WAT      O87898   4.299   1.387   8.053
29219WAT     H187899   4.376   1.451   8.052
29219WAT     H287900   4.219   1.433   8.092
29220WAT      O87901   1.197   0.592   6.400
29220WAT     H187902   1.164   0.685   6.417
29220WAT     H287903   1.120   0.533   6.376
29221WAT      O87904   5.385   1.000   6.743
29221WAT     H187905   5.403   1.047   6.830
29221WAT     H287906   5.415   1.057   6.667
29222WAT      O87907   2.771   9.621   5.223
29222WAT     H187908   2.819   9.591   5.305
29222WAT     H287909   2.837   9.656   5.156
29223WAT      O87910   1.245   7.738   6.109
29223WAT     H187911   1.303   7.667   6.148
29223WAT     H287912   1.275   7.827   6.143
29224WAT      O87913   9.169   3.527   8.287
29224WAT     H187914   9.240   3.461   8.263
29224WAT     H287915   9.208   3.618   8.291
29225WAT      O87916   7.568   5.366   6.479
29225WAT     H187917   7.628   5.362   6.400
29225WAT     H287918   7.564   5.276   6.523
29226WAT      O87919   9.573   0.400   8.973
29226WAT     H187920   9.505   0.337   8.939
29226WAT     H287921   9.530   0.466   9.035
29227WAT      O87922   3.294   7.082   8.289
29227WAT     H187923   3.389   7.106   8.309
29227WAT     H287924   3.278   7.088   8.191
29228WAT      O87925   4.342   8.493   3.624
29228WAT     H187926   4.432   8.484   3.582
29228WAT     H287927   4.350   8.537   3.713
29229WAT      O87928   2.803   4.253   0.339
29229WAT     H187929   2.893   4.239   0.380
29229WAT     H287930   2.776   4.349   0.348
29230WAT      O87931   8.727   0.176   8.735
29230WAT     H187932   8.740   0.144   8.829
29230WAT     H287933   8.661   0.251   8.735
29231WAT      O87934   1.288   3.430   4.684
29231WAT     H187935   1.373   3.376   4.688
29231WAT     H287936   1.281   3.487   4.766
29232WAT      O87937   0.589   4.394   4.917
29232WAT     H187938   0.616   4.483   4.953
29232WAT     H287939   0.531   4.407   4.837
29233WAT      O87940   0.103   2.413   5.406
29233WAT     H187941   0.103   2.335   5.343
29233WAT     H287942   0.150   2.490   5.362
29234WAT      O87943   3.010   0.560   0.278
29234WAT     H187944   3.025   0.564   0.180
29234WAT     H287945   3.033   0.469   0.312
29235WAT      O87946   8.137   0.304   5.105
29235WAT     H187947   8.210   0.372   5.107
29235WAT     H287948   8.059   0.341   5.055
29236WAT      O87949   7.602   6.862   3.705
29236WAT     H187950   7.641   6.824   3.789
29236WAT     H287951   7.669   6.854   3.631
29237WAT      O87952   5.048   3.999   8.271
29237WAT     H187953   5.052   4.071   8.341
29237WAT     H287954   4.960   3.952   8.277
29238WAT      O87955   5.046   6.975   1.219
29238WAT     H187956   5.045   6.892   1.274
29238WAT     H287957   5.031   6.951   1.123
29239WAT      O87958   2.829   8.420   5.879
29239WAT     H187959   2.730   8.411   5.878
29239WAT     H287960   2.870   8.352   5.818
29240WAT      O87961   6.411   2.335   0.366
29240WAT     H187962   6.402   2.236   0.355
29240WAT     H287963   6.507   2.362   0.353
29241WAT      O87964   8.615   7.663   9.590
29241WAT     H187965   8.613   7.580   9.535
29241WAT     H287966   8.593   7.742   9.533
29242WAT      O87967   5.262   1.818   2.593
29242WAT     H187968   5.182   1.775   2.635
29242WAT     H287969   5.238   1.851   2.501
29243WAT      O87970   3.642   7.011   8.160
29243WAT     H187971   3.655   7.054   8.071
29243WAT     H287972   3.609   7.079   8.225
29244WAT      O87973   7.801   3.841   0.624
29244WAT     H187974   7.712   3.834   0.580
29244WAT     H287975   7.808   3.772   0.696
29245WAT      O87976   0.230   4.519   6.179
29245WAT     H187977   0.173   4.553   6.104
29245WAT     H287978   0.190   4.545   6.267
29246WAT      O87979   4.670   6.638   7.784
29246WAT     H187980   4.580   6.672   7.759
29246WAT     H287981   4.692   6.667   7.877
29247WAT      O87982   4.201   7.173   9.664
29247WAT     H187983   4.292   7.139   9.641
29247WAT     H287984   4.150   7.101   9.713
29248WAT      O87985   3.717   5.678   1.184
29248WAT     H187986   3.794   5.614   1.178
29248WAT     H287987   3.743   5.766   1.146
29249WAT      O87988   8.733   5.907   9.480
29249WAT     H187989   8.773   5.851   9.552
29249WAT     H287990   8.763   5.874   9.391
29250WAT      O87991   4.993   7.296   9.455
29250WAT     H187992   4.914   7.273   9.512
29250WAT     H287993   5.040   7.376   9.493
29251WAT      O87994   9.855   9.839   0.338
29251WAT     H187995   9.890   9.872   0.250
29251WAT     H287996   9.773   9.784   0.322
29252WAT      O87997   1.815   7.751   9.578
29252WAT     H187998   1.826   7.799   9.492
29252WAT     H287999   1.875   7.791   9.647
29253WAT      O88000   5.924   8.800   2.638
29253WAT     H188001   5.924   8.813   2.737
29253WAT     H288002   6.018   8.811   2.604
29254WAT      O88003   4.274   8.608   7.399
29254WAT     H188004   4.185   8.642   7.369
29254WAT     H288005   4.285   8.625   7.497
29255WAT      O88006   6.736   2.380   8.771
29255WAT     H188007   6.819   2.433   8.755
29255WAT     H288008   6.677   2.428   8.836
29256WAT      O88009   5.177   8.698   3.084
29256WAT     H188010   5.134   8.691   2.995
29256WAT     H288011   5.185   8.795   3.110
29257WAT      O88012   2.139   0.554   2.845
29257WAT     H188013   2.234   0.528   2.831
29257WAT     H288014   2.080   0.495   2.790
29258WAT      O88015   4.983   0.556   1.686
29258WAT     H188016   4.982   0.656   1.676
29258WAT     H288017   5.022   0.532   1.775
29259WAT      O88018   5.142   1.754   4.331
29259WAT     H188019   5.083   1.675   4.350
29259WAT     H288020   5.142   1.773   4.233
29260WAT      O88021   9.304   6.953   5.976
29260WAT     H188022   9.239   6.885   6.007
29260WAT     H288023   9.376   6.908   5.922
29261WAT      O88024   9.026   0.486   9.367
29261WAT     H188025   9.029   0.427   9.287
29261WAT     H288026   9.096   0.557   9.359
29262WAT      O88027   9.045   7.228   8.022
29262WAT     H188028   8.975   7.157   8.024
29262WAT     H288029   9.050   7.268   7.930
29263WAT      O88030   6.724   7.729   2.412
29263WAT     H188031   6.673   7.643   2.416
29263WAT     H288032   6.819   7.714   2.441
29264WAT      O88033   4.238   1.344   5.503
29264WAT     H188034   4.292   1.261   5.517
29264WAT     H288035   4.237   1.399   5.587
29265WAT      O88036   6.406   9.283   2.450
29265WAT     H188037   6.445   9.265   2.359
29265WAT     H288038   6.465   9.347   2.499
29266WAT      O88039   8.273   9.373   7.330
29266WAT     H188040   8.255   9.294   7.388
29266WAT     H288041   8.265   9.457   7.385
29267WAT      O88042   6.904   2.571   8.611
29267WAT     H188043   6.904   2.515   8.528
29267WAT     H288044   6.908   2.668   8.586
29268WAT      O88045   2.895   1.123   8.500
29268WAT     H188046   2.815   1.063   8.500
29268WAT     H288047   2.892   1.182   8.581
29269WAT      O88048   5.985   1.907   0.506
29269WAT     H188049   6.078   1.883   0.532
29269WAT     H288050   5.961   1.997   0.545
29270WAT      O88051   1.005   8.425   6.730
29270WAT     H188052   0.910   8.443   6.704
29270WAT     H288053   1.008   8.366   6.811
29271WAT      O88054   6.623   5.924   4.222
29271WAT     H188055   6.561   5.863   4.175
29271WAT     H288056   6.622   5.904   4.320
29272WAT      O88057   0.769   6.079   2.119
29272WAT     H188058   0.731   5.994   2.155
29272WAT     H288059   0.699   6.126   2.064
29273WAT      O88060   5.378   1.657   8.539
29273WAT     H188061   5.395   1.707   8.624
29273WAT     H288062   5.464   1.638   8.493
29274WAT      O88063   3.274   9.436   0.875
29274WAT     H188064   3.234   9.379   0.947
29274WAT     H288065   3.369   9.457   0.899
29275WAT      O88066   4.141   0.554   2.465
29275WAT     H188067   4.132   0.641   2.416
29275WAT     H288068   4.119   0.568   2.562
29276WAT      O88069   1.526   9.044   7.587
29276WAT     H188070   1.467   8.965   7.570
29276WAT     H288071   1.477   9.128   7.563
29277WAT      O88072   4.509   8.144   4.348
29277WAT     H188073   4.600   8.167   4.383
29277WAT     H288074   4.442   8.209   4.385
29278WAT      O88075   3.082   5.001   9.799
29278WAT     H188076   3.031   5.050   9.870
29278WAT     H288077   3.159   4.953   9.840
29279WAT      O88078   2.285   7.683   3.413
29279WAT     H188079   2.194   7.693   3.374
29279WAT     H288080   2.311   7.768   3.459
29280WAT      O88081   3.726   9.710   9.220
29280WAT     H188082   3.766   9.669   9.137
29280WAT     H288083   3.665   9.785   9.193
29281WAT      O88084   4.855   8.124   6.697
29281WAT     H188085   4.786   8.095   6.764
29281WAT     H288086   4.879   8.220   6.713
29282WAT      O88087   1.255   8.396   7.108
29282WAT     H188088   1.335   8.397   7.048
29282WAT     H288089   1.195   8.473   7.086
29283WAT      O88090   5.650   1.448   5.593
29283WAT     H188091   5.722   1.388   5.557
29283WAT     H288092   5.562   1.421   5.554
29284WAT      O88093   2.331   5.299   0.218
29284WAT     H188094   2.275   5.223   0.250
29284WAT     H288095   2.275   5.360   0.162
29285WAT      O88096   4.712   1.375   0.504
29285WAT     H188097   4.742   1.281   0.522
29285WAT     H288098   4.732   1.432   0.583
29286WAT      O88099   5.317   0.407   6.135
29286WAT     H188100   5.399   0.436   6.086
29286WAT     H288101   5.293   0.476   6.203
29287WAT      O88102   0.939   4.082   4.308
29287WAT     H188103   1.038   4.092   4.322
29287WAT     H288104   0.908   3.999   4.354
29288WAT      O88105   0.125   0.293   4.637
29288WAT     H188106   0.212   0.259   4.602
29288WAT     H288107   0.066   0.216   4.660
29289WAT      O88108   4.869   3.022   4.588
29289WAT     H188109   4.899   2.930   4.614
29289WAT     H288110   4.806   3.057   4.657
29290WAT      O88111   7.021   9.750   1.618
29290WAT     H188112   7.002   9.695   1.537
29290WAT     H288113   7.118   9.744   1.641
29291WAT      O88114   9.761   4.461   3.192
29291WAT     H188115   9.685   4.436   3.133
29291WAT     H288116   9.828   4.513   3.139
29292WAT      O88117   1.194   1.620   7.769
29292WAT     H188118   1.171   1.545   7.707
29292WAT     H288119   1.229   1.582   7.855
29293WAT      O88120   3.473   0.320   8.315
29293WAT     H188121   3.407   0.248   8.339
29293WAT     H288122   3.466   0.394   8.382
29294WAT      O88123   2.249   5.114   2.451
29294WAT     H188124   2.321   5.077   2.392
29294WAT     H288125   2.243   5.213   2.437
29295WAT      O88126   3.331   8.799   4.749
29295WAT     H188127   3.411   8.827   4.802
29295WAT     H288128   3.356   8.725   4.687
29296WAT      O88129   1.531   6.650   9.260
29296WAT     H188130   1.489   6.716   9.323
29296WAT     H288131   1.521   6.683   9.166
29297WAT      O88132   2.273   4.195   8.522
29297WAT     H188133   2.326   4.221   8.441
29297WAT     H288134   2.303   4.248   8.601
29298WAT      O88135   4.301   9.329   6.687
29298WAT     H188136   4.292   9.279   6.773
29298WAT     H288137   4.246   9.413   6.692
29299WAT      O88138   1.176   1.922   6.249
29299WAT     H188139   1.159   1.926   6.151
29299WAT     H288140   1.155   2.011   6.290
29300WAT      O88141   7.443   1.851   6.703
29300WAT     H188142   7.534   1.811   6.716
29300WAT     H288143   7.397   1.804   6.627
29301WAT      O88144   6.278   5.021   4.372
29301WAT     H188145   6.374   5.016   4.399
29301WAT     H288146   6.255   5.115   4.346
29302WAT      O88147   5.392   6.746   9.056
29302WAT     H188148   5.338   6.706   9.130
29302WAT     H288149   5.334   6.756   8.975
29303WAT      O88150   6.600   0.053   1.517
29303WAT     H188151   6.552  -0.034   1.527
29303WAT     H288152   6.651   0.073   1.601
29304WAT      O88153   6.472   3.688   1.184
29304WAT     H188154   6.427   3.599   1.171
29304WAT     H288155   6.534   3.683   1.262
29305WAT      O88156   1.993   5.250   8.229
29305WAT     H188157   1.902   5.211   8.214
29305WAT     H288158   2.057   5.176   8.252
29306WAT      O88159   2.685   0.424   0.110
29306WAT     H188160   2.669   0.377   0.024
29306WAT     H288161   2.776   0.400   0.144
29307WAT      O88162   3.018   7.812   3.775
29307WAT     H188163   2.965   7.859   3.704
29307WAT     H288164   2.989   7.844   3.865
29308WAT      O88165   7.401   5.855   8.212
29308WAT     H188166   7.308   5.819   8.207
29308WAT     H288167   7.410   5.935   8.153
29309WAT      O88168   6.502   7.358   0.075
29309WAT     H188169   6.420   7.358   0.133
29309WAT     H288170   6.584   7.353   0.132
29310WAT      O88171   7.445   1.435   6.928
29310WAT     H188172   7.357   1.472   6.899
29310WAT     H288173   7.514   1.508   6.927
29311WAT      O88174   3.123   9.671   7.798
29311WAT     H188175   3.220   9.668   7.777
29311WAT     H288176   3.098   9.592   7.854
29312WAT      O88177   0.193   4.351   4.342
29312WAT     H188178   0.272   4.331   4.400
29312WAT     H288179   0.192   4.448   4.318
29313WAT      O88180   5.305   0.287   7.866
29313WAT     H188181   5.285   0.264   7.771
29313WAT     H288182   5.231   0.254   7.925
29314WAT      O88183   8.650   0.940   2.190
29314WAT     H188184   8.585   0.890   2.248
29314WAT     H288185   8.674   1.027   2.233
29315WAT      O88186   2.348   4.408   3.135
29315WAT     H188187   2.296   4.493   3.130
29315WAT     H288188   2.420   4.409   3.066
29316WAT      O88189   2.583   0.496   4.992
29316WAT     H188190   2.635   0.411   4.996
29316WAT     H288191   2.540   0.505   4.902
29317WAT      O88192   3.004   4.834   2.572
29317WAT     H188193   3.042   4.918   2.535
29317WAT     H288194   3.025   4.758   2.509
29318WAT      O88195   9.476   4.956   8.422
29318WAT     H188196   9.567   4.987   8.449
29318WAT     H288197   9.481   4.911   8.333
29319WAT      O88198   3.775   9.384   5.634
29319WAT     H188199   3.761   9.476   5.672
29319WAT     H288200   3.847   9.388   5.565
29320WAT      O88201   2.632   1.387   9.304
29320WAT     H188202   2.727   1.387   9.335
29320WAT     H288203   2.613   1.472   9.255
29321WAT      O88204   6.797   2.075   1.378
29321WAT     H188205   6.769   2.164   1.412
29321WAT     H288206   6.889   2.053   1.413
29322WAT      O88207   3.223   0.072   5.285
29322WAT     H188208   3.294   0.067   5.355
29322WAT     H288209   3.263   0.105   5.199
29323WAT      O88210   7.845   0.039   3.854
29323WAT     H188211   7.944   0.025   3.862
29323WAT     H288212   7.797  -0.036   3.899
29324WAT      O88213   3.154   8.924   3.498
29324WAT     H188214   3.165   8.831   3.465
29324WAT     H288215   3.138   8.985   3.420
29325WAT      O88216   7.758   3.653   5.473
29325WAT     H188217   7.708   3.734   5.443
29325WAT     H288218   7.701   3.599   5.534
29326WAT      O88219   1.037   7.255   7.967
29326WAT     H188220   1.117   7.307   7.998
29326WAT     H288221   0.962   7.270   8.031
29327WAT      O88222   5.534   4.751   9.791
29327WAT     H188223   5.556   4.811   9.714
29327WAT     H288224   5.542   4.803   9.876
29328WAT      O88225   4.228   1.468   7.346
29328WAT     H188226   4.265   1.389   7.395
29328WAT     H288227   4.151   1.439   7.290
29329WAT      O88228   1.444   8.582   2.608
29329WAT     H188229   1.394   8.525   2.674
29329WAT     H288230   1.510   8.639   2.658
29330WAT      O88231   3.452   6.292   8.918
29330WAT     H188232   3.389   6.352   8.967
29330WAT     H288233   3.533   6.275   8.974
29331WAT      O88234   7.025   4.292   1.810
29331WAT     H188235   6.945   4.302   1.869
29331WAT     H288236   7.063   4.200   1.820
29332WAT      O88237   7.624   0.092   4.250
29332WAT     H188238   7.683   0.171   4.267
29332WAT     H288239   7.532   0.112   4.283
29333WAT      O88240   1.247   3.525   9.534
29333WAT     H188241   1.296   3.608   9.558
29333WAT     H288242   1.311   3.448   9.530
29334WAT      O88243   1.909   5.392   6.695
29334WAT     H188244   1.813   5.421   6.692
29334WAT     H288245   1.921   5.311   6.639
29335WAT      O88246   1.440   4.768   5.300
29335WAT     H188247   1.454   4.806   5.392
29335WAT     H288248   1.443   4.842   5.233
29336WAT      O88249   9.450   6.865   4.286
29336WAT     H188250   9.478   6.792   4.348
29336WAT     H288251   9.435   6.949   4.338
29337WAT      O88252   3.792   6.224   0.287
29337WAT     H188253   3.811   6.154   0.218
29337WAT     H288254   3.713   6.196   0.341
29338WAT      O88255   8.565   5.772   0.982
29338WAT     H188256   8.570   5.860   1.031
29338WAT     H288257   8.472   5.736   0.988
29339WAT      O88258   8.858   5.434   6.217
29339WAT     H188259   8.864   5.455   6.315
29339WAT     H288260   8.949   5.414   6.182
29340WAT      O88261   4.520   8.153   2.736
29340WAT     H188262   4.543   8.210   2.658
29340WAT     H288263   4.530   8.057   2.711
29341WAT      O88264   4.479   6.740   8.486
29341WAT     H188265   4.564   6.700   8.451
29341WAT     H288266   4.417   6.666   8.514
29342WAT      O88267   9.382   4.465   0.687
29342WAT     H188268   9.345   4.500   0.601
29342WAT     H288269   9.466   4.513   0.710
29343WAT      O88270   4.337   2.801   4.931
29343WAT     H188271   4.392   2.719   4.948
29343WAT     H288272   4.344   2.862   5.010
29344WAT      O88273   1.134   5.634   6.501
29344WAT     H188274   1.113   5.673   6.412
29344WAT     H288275   1.228   5.656   6.527
29345WAT      O88276   6.370   0.062   4.567
29345WAT     H188277   6.422   0.094   4.488
29345WAT     H288278   6.275   0.093   4.557
29346WAT      O88279   9.178   5.694   8.651
29346WAT     H188280   9.132   5.721   8.566
29346WAT     H288281   9.233   5.770   8.685
29347WAT      O88282   0.635   9.842   4.186
29347WAT     H188283   0.734   9.827   4.194
29347WAT     H288284   0.612   9.860   4.090
29348WAT      O88285   4.276   4.501   1.779
29348WAT     H188286   4.295   4.559   1.699
29348WAT     H288287   4.192   4.449   1.762
29349WAT      O88288   4.944   8.922   9.245
29349WAT     H188289   4.999   8.956   9.168
29349WAT     H288290   4.917   8.998   9.303
29350WAT      O88291   5.699   9.237   7.918
29350WAT     H188292   5.703   9.308   7.847
29350WAT     H288293   5.670   9.278   8.004
29351WAT      O88294   3.182   9.655   4.442
29351WAT     H188295   3.133   9.664   4.356
29351WAT     H288296   3.238   9.737   4.457
29352WAT      O88297   7.357   0.522   9.860
29352WAT     H188298   7.414   0.599   9.890
29352WAT     H288299   7.267   0.554   9.833
29353WAT      O88300   2.460   5.139   4.390
29353WAT     H188301   2.489   5.233   4.403
29353WAT     H288302   2.364   5.129   4.414
29354WAT      O88303   6.894   3.359   7.648
29354WAT     H188304   6.981   3.370   7.697
29354WAT     H288305   6.833   3.303   7.703
29355WAT      O88306   5.453   5.765   8.043
29355WAT     H188307   5.356   5.747   8.061
29355WAT     H288308   5.463   5.856   8.004
29356WAT      O88309   2.057   1.067   5.817
29356WAT     H188310   2.030   1.160   5.792
29356WAT     H288311   1.977   1.008   5.818
29357WAT      O88312   3.171   1.210   2.534
29357WAT     H188313   3.196   1.162   2.618
29357WAT     H288314   3.202   1.305   2.539
29358WAT      O88315   8.991   9.148   8.757
29358WAT     H188316   9.011   9.052   8.734
29358WAT     H288317   9.035   9.171   8.843
29359WAT      O88318   2.639   1.872   2.476
29359WAT     H188319   2.569   1.816   2.520
29359WAT     H288320   2.614   1.969   2.483
29360WAT      O88321   0.992   8.623   0.430
29360WAT     H188322   1.080   8.593   0.466
29360WAT     H288323   0.931   8.646   0.506
29361WAT      O88324   1.697   1.943   0.049
29361WAT     H188325   1.762   2.019   0.052
29361WAT     H288326   1.734   1.865   0.097
29362WAT      O88327   5.615   3.057   4.215
29362WAT     H188328   5.673   3.058   4.134
29362WAT     H288329   5.550   3.133   4.211
29363WAT      O88330   4.037   8.508   9.624
29363WAT     H188331   4.006   8.593   9.665
29363WAT     H288332   3.966   8.439   9.632
29364WAT      O88333   9.333   3.450   6.214
29364WAT     H188334   9.394   3.502   6.154
29364WAT     H288335   9.365   3.456   6.308
29365WAT      O88336   4.743   8.667   2.048
29365WAT     H188337   4.670   8.635   1.988
29365WAT     H288338   4.789   8.588   2.088
29366WAT      O88339   7.526   9.737   6.776
29366WAT     H188340   7.479   9.741   6.687
29366WAT     H288341   7.602   9.801   6.775
29367WAT      O88342   7.117   7.029   4.411
29367WAT     H188343   7.111   6.986   4.502
29367WAT     H288344   7.176   7.110   4.416
29368WAT      O88345   0.566   2.406   2.236
29368WAT     H188346   0.518   2.336   2.184
29368WAT     H288347   0.505   2.483   2.253
29369WAT      O88348   5.351   3.957   8.684
29369WAT     H188349   5.405   3.988   8.762
29369WAT     H288350   5.312   3.867   8.704
29370WAT      O88351   7.301   0.625   7.098
29370WAT     H188352   7.336   0.533   7.116
29370WAT     H288353   7.236   0.650   7.171
29371WAT      O88354   7.767   8.925   2.678
29371WAT     H188355   7.857   8.939   2.718
29371WAT     H288356   7.767   8.958   2.583
29372WAT      O88357   6.727   9.565   2.505
29372WAT     H188358   6.819   9.531   2.485
29372WAT     H288359   6.717   9.657   2.467
29373WAT      O88360   0.835   6.958   9.652
29373WAT     H188361   0.871   6.907   9.575
29373WAT     H288362   0.761   7.019   9.621
29374WAT      O88363   1.847   7.643   3.309
29374WAT     H188364   1.926   7.688   3.269
29374WAT     H288365   1.877   7.569   3.369
29375WAT      O88366   1.237   7.059   9.640
29375WAT     H188367   1.200   6.969   9.663
29375WAT     H288368   1.337   7.053   9.633
29376WAT      O88369   6.084   6.723   2.839
29376WAT     H188370   6.183   6.720   2.842
29376WAT     H288371   6.046   6.676   2.919
29377WAT      O88372   2.031   7.119   4.281
29377WAT     H188373   2.083   7.186   4.229
29377WAT     H288374   2.028   7.146   4.377
29378WAT      O88375   6.585   0.430   5.939
29378WAT     H188376   6.544   0.413   6.029
29378WAT     H288377   6.628   0.346   5.906
29379WAT      O88378   1.931   8.513   6.708
29379WAT     H188379   2.000   8.471   6.648
29379WAT     H288380   1.966   8.514   6.802
29380WAT      O88381   8.743   6.658   4.623
29380WAT     H188382   8.737   6.689   4.718
29380WAT     H288383   8.833   6.682   4.586
29381WAT      O88384   9.685   1.729   3.063
29381WAT     H188385   9.616   1.801   3.052
29381WAT     H288386   9.748   1.733   2.986
29382WAT      O88387   4.802   8.612   5.377
29382WAT     H188388   4.780   8.618   5.280
29382WAT     H288389   4.846   8.524   5.396
29383WAT      O88390   5.272   6.930   3.180
29383WAT     H188391   5.350   6.991   3.188
29383WAT     H288392   5.303   6.839   3.150
29384WAT      O88393   4.055   4.821   3.305
29384WAT     H188394   4.091   4.873   3.227
29384WAT     H288395   4.046   4.881   3.384
29385WAT      O88396   2.536   4.428   7.181
29385WAT     H188397   2.616   4.487   7.172
29385WAT     H288398   2.469   4.452   7.112
29386WAT      O88399   4.415   1.616   4.125
29386WAT     H188400   4.489   1.619   4.058
29386WAT     H288401   4.354   1.539   4.104
29387WAT      O88402   0.755   9.786   7.296
29387WAT     H188403   0.829   9.759   7.234
29387WAT     H288404   0.669   9.785   7.247
29388WAT      O88405   1.830   3.530   8.655
29388WAT     H188406   1.850   3.607   8.595
29388WAT     H288407   1.731   3.520   8.664
29389WAT      O88408   4.609   0.674   2.022
29389WAT     H188409   4.552   0.643   1.946
29389WAT     H288410   4.561   0.661   2.108
29390WAT      O88411   4.114   8.436   9.339
29390WAT     H188412   4.092   8.342   9.364
29390WAT     H288413   4.139   8.487   9.422
29391WAT      O88414   1.565   2.867   7.569
29391WAT     H188415   1.506   2.852   7.489
29391WAT     H288416   1.640   2.801   7.567
29392WAT      O88417   6.619   1.536   0.057
29392WAT     H188418   6.588   1.632   0.059
29392WAT     H288419   6.578   1.487   0.133
29393WAT      O88420   8.449   6.405   4.322
29393WAT     H188421   8.377   6.450   4.270
29393WAT     H288422   8.483   6.467   4.392
29394WAT      O88423   4.430   6.672   2.881
29394WAT     H188424   4.439   6.575   2.903
29394WAT     H288425   4.367   6.682   2.804
29395WAT      O88426   9.440   7.888   3.297
29395WAT     H188427   9.351   7.861   3.333
29395WAT     H288428   9.480   7.813   3.245
29396WAT      O88429   7.048   8.301   6.554
29396WAT     H188430   7.138   8.260   6.541
29396WAT     H288431   6.989   8.238   6.604
29397WAT      O88432   7.832   2.668   1.049
29397WAT     H188433   7.773   2.608   1.103
29397WAT     H288434   7.919   2.622   1.031
29398WAT      O88435   8.246   5.787   7.471
29398WAT     H188436   8.206   5.861   7.416
29398WAT     H288437   8.223   5.801   7.567
29399WAT      O88438   8.492   6.726   3.577
29399WAT     H188439   8.430   6.661   3.533
29399WAT     H288440   8.564   6.753   3.513
29400WAT      O88441   5.551   8.526   5.315
29400WAT     H188442   5.507   8.509   5.227
29400WAT     H288443   5.486   8.569   5.377
29401WAT      O88444   2.809   8.640   5.273
29401WAT     H188445   2.796   8.632   5.372
29401WAT     H288446   2.903   8.669   5.254
29402WAT      O88447   3.784   6.820   0.917
29402WAT     H188448   3.858   6.876   0.880
29402WAT     H288449   3.779   6.734   0.866
29403WAT      O88450   5.249   3.168   3.075
29403WAT     H188451   5.271   3.257   3.036
29403WAT     H288452   5.332   3.114   3.085
29404WAT      O88453   8.362   2.726   2.982
29404WAT     H188454   8.304   2.805   2.963
29404WAT     H288455   8.337   2.651   2.921
29405WAT      O88456   0.215   4.137   2.895
29405WAT     H188457   0.133   4.162   2.844
29405WAT     H288458   0.192   4.125   2.991
29406WAT      O88459   9.621   5.984   1.361
29406WAT     H188460   9.626   5.907   1.425
29406WAT     H288461   9.635   5.950   1.268
29407WAT      O88462   6.204   1.136   0.966
29407WAT     H188463   6.171   1.207   0.903
29407WAT     H288464   6.196   1.047   0.922
29408WAT      O88465   7.527   6.689   4.854
29408WAT     H188466   7.474   6.774   4.855
29408WAT     H288467   7.606   6.700   4.794
29409WAT      O88468   3.786   2.821   3.489
29409WAT     H188469   3.864   2.824   3.427
29409WAT     H288470   3.795   2.743   3.551
29410WAT      O88471   6.513   8.465   8.513
29410WAT     H188472   6.537   8.502   8.603
29410WAT     H288473   6.486   8.369   8.522
29411WAT      O88474   8.450   7.766   4.621
29411WAT     H188475   8.511   7.744   4.697
29411WAT     H288476   8.372   7.703   4.621
29412WAT      O88477   5.726   1.259   4.760
29412WAT     H188478   5.750   1.342   4.811
29412WAT     H288479   5.629   1.261   4.736
29413WAT      O88480   7.812   8.251   7.802
29413WAT     H188481   7.747   8.311   7.757
29413WAT     H288482   7.823   8.167   7.749
29414WAT      O88483   3.699   0.272   0.084
29414WAT     H188484   3.744   0.273   0.174
29414WAT     H288485   3.766   0.292   0.013
29415WAT      O88486   5.972   0.909   8.357
29415WAT     H188487   5.922   0.823   8.363
29415WAT     H288488   5.945   0.958   8.274
29416WAT      O88489   6.222   3.792   6.643
29416WAT     H188490   6.252   3.887   6.647
29416WAT     H288491   6.183   3.765   6.731
29417WAT      O88492   4.237   0.249   6.492
29417WAT     H188493   4.269   0.341   6.511
29417WAT     H288494   4.148   0.253   6.446
29418WAT      O88495   3.954   6.383   6.932
29418WAT     H188496   3.894   6.445   6.982
29418WAT     H288497   3.924   6.377   6.837
29419WAT      O88498   0.625   4.311   6.046
29419WAT     H188499   0.535   4.296   6.086
29419WAT     H288500   0.666   4.223   6.022
29420WAT      O88501   4.779   1.278   6.107
29420WAT     H188502   4.832   1.353   6.146
29420WAT     H288503   4.809   1.262   6.012
29421WAT      O88504   7.861   4.409   7.145
29421WAT     H188505   7.798   4.462   7.089
29421WAT     H288506   7.847   4.311   7.127
29422WAT      O88507   0.916   7.161   6.437
29422WAT     H188508   0.992   7.175   6.499
29422WAT     H288509   0.949   7.166   6.342
29423WAT      O88510   0.472   5.349   5.144
29423WAT     H188511   0.434   5.324   5.055
29423WAT     H288512   0.432   5.434   5.175
29424WAT      O88513   6.090   1.202   6.185
29424WAT     H188514   6.155   1.219   6.111
29424WAT     H288515   6.126   1.130   6.245
29425WAT      O88516   6.924   7.080   1.620
29425WAT     H188517   6.964   7.138   1.549
29425WAT     H288518   6.902   7.135   1.700
29426WAT      O88519   7.565   1.327   4.557
29426WAT     H188520   7.652   1.291   4.523
29426WAT     H288521   7.554   1.421   4.527
29427WAT      O88522   9.169   3.948   3.955
29427WAT     H188523   9.252   3.980   4.001
29427WAT     H288524   9.102   4.022   3.951
29428WAT      O88525   0.264   2.303   7.958
29428WAT     H188526   0.264   2.348   7.869
29428WAT     H288527   0.318   2.219   7.952
29429WAT      O88528   5.683   8.935   6.635
29429WAT     H188529   5.715   8.870   6.567
29429WAT     H288530   5.646   9.016   6.590
29430WAT      O88531   2.210   8.897   6.377
29430WAT     H188532   2.115   8.888   6.350
29430WAT     H288533   2.269   8.890   6.296
29431WAT      O88534   0.485   0.577   6.152
29431WAT     H188535   0.493   0.480   6.173
29431WAT     H288536   0.555   0.603   6.086
29432WAT      O88537   1.724   8.289   7.357
29432WAT     H188538   1.809   8.237   7.348
29432WAT     H288539   1.705   8.339   7.272
29433WAT      O88540   5.721   5.726   5.735
29433WAT     H188541   5.787   5.799   5.749
29433WAT     H288542   5.766   5.649   5.690
29434WAT      O88543   3.070   8.659   6.064
29434WAT     H188544   3.153   8.618   6.025
29434WAT     H288545   3.083   8.757   6.075
29435WAT      O88546   5.705   2.657   1.973
29435WAT     H188547   5.689   2.719   2.050
29435WAT     H288548   5.621   2.606   1.953
29436WAT      O88549   9.632   3.342   3.704
29436WAT     H188550   9.563   3.350   3.632
29436WAT     H288551   9.646   3.432   3.746
29437WAT      O88552   4.358   3.845   1.684
29437WAT     H188553   4.282   3.872   1.743
29437WAT     H288554   4.388   3.752   1.707
29438WAT      O88555   9.161   1.016   1.627
29438WAT     H188556   9.193   0.930   1.587
29438WAT     H288557   9.238   1.078   1.636
29439WAT      O88558   1.048   6.161   4.396
29439WAT     H188559   1.010   6.253   4.389
29439WAT     H288560   1.004   6.112   4.472
29440WAT      O88561   0.468   8.895   5.188
29440WAT     H188562   0.489   8.835   5.265
29440WAT     H288563   0.465   8.990   5.220
29441WAT      O88564   3.364   5.006   1.158
29441WAT     H188565   3.436   4.941   1.136
29441WAT     H288566   3.283   4.988   1.102
29442WAT      O88567   5.439   6.044   0.875
29442WAT     H188568   5.395   5.959   0.903
29442WAT     H288569   5.400   6.120   0.926
29443WAT      O88570   8.478   5.183   0.262
29443WAT     H188571   8.530   5.120   0.320
29443WAT     H288572   8.459   5.140   0.174
29444WAT      O88573   7.493   1.329   8.820
29444WAT     H188574   7.448   1.291   8.739
29444WAT     H288575   7.559   1.399   8.793
29445WAT      O88576   0.652   9.702   3.082
29445WAT     H188577   0.681   9.622   3.133
29445WAT     H288578   0.639   9.678   2.985
29446WAT      O88579   4.338   3.645   7.370
29446WAT     H188580   4.305   3.659   7.277
29446WAT     H288581   4.407   3.714   7.392
29447WAT      O88582   3.970   8.978   8.431
29447WAT     H188583   3.878   8.947   8.455
29447WAT     H288584   3.969   9.021   8.341
29448WAT      O88585   1.755   2.974   4.924
29448WAT     H188586   1.708   2.991   5.011
29448WAT     H288587   1.688   2.955   4.853
29449WAT      O88588   1.438   2.024   4.498
29449WAT     H188589   1.351   1.985   4.469
29449WAT     H288590   1.496   1.952   4.537
29450WAT      O88591   6.231   8.008   3.352
29450WAT     H188592   6.173   8.001   3.432
29450WAT     H288593   6.327   8.004   3.380
29451WAT      O88594   3.367   8.554   6.069
29451WAT     H188595   3.442   8.490   6.053
29451WAT     H288596   3.324   8.578   5.982
29452WAT      O88597   9.796   7.844   7.614
29452WAT     H188598   9.813   7.749   7.586
29452WAT     H288599   9.831   7.906   7.545
29453WAT      O88600   8.070   9.299   8.731
29453WAT     H188601   8.067   9.364   8.807
29453WAT     H288602   8.122   9.339   8.655
29454WAT      O88603   1.520   0.442   3.082
29454WAT     H188604   1.536   0.422   2.985
29454WAT     H288605   1.479   0.362   3.126
29455WAT      O88606   3.456   3.288   1.500
29455WAT     H188607   3.375   3.231   1.483
29455WAT     H288608   3.426   3.377   1.533
29456WAT      O88609   2.374   7.501   5.480
29456WAT     H188610   2.409   7.524   5.389
29456WAT     H288611   2.274   7.500   5.478
29457WAT      O88612   1.480   8.648   5.418
29457WAT     H188613   1.414   8.722   5.430
29457WAT     H288614   1.572   8.682   5.438
29458WAT      O88615   4.169   6.758   6.316
29458WAT     H188616   4.228   6.736   6.394
29458WAT     H288617   4.202   6.841   6.271
29459WAT      O88618   6.396   7.101   7.787
29459WAT     H188619   6.464   7.035   7.818
29459WAT     H288620   6.304   7.068   7.810
29460WAT      O88621   6.534   6.349   4.776
29460WAT     H188622   6.449   6.391   4.810
29460WAT     H288623   6.512   6.268   4.723
29461WAT      O88624   1.693   9.531   5.553
29461WAT     H188625   1.621   9.468   5.524
29461WAT     H288626   1.778   9.510   5.505
29462WAT      O88627   7.276   7.264   4.449
29462WAT     H188628   7.224   7.346   4.471
29462WAT     H288629   7.320   7.275   4.360
29463WAT      O88630   6.774   8.039   6.439
29463WAT     H188631   6.736   7.947   6.445
29463WAT     H288632   6.811   8.066   6.528
29464WAT      O88633   2.668   1.780   5.310
29464WAT     H188634   2.583   1.799   5.261
29464WAT     H288635   2.736   1.744   5.246
29465WAT      O88636   2.951   9.327   1.223
29465WAT     H188637   2.928   9.379   1.306
29465WAT     H288638   2.870   9.282   1.187
29466WAT      O88639   2.025   5.019   3.867
29466WAT     H188640   2.030   5.029   3.966
29466WAT     H288641   2.006   4.923   3.844
29467WAT      O88642   8.444   5.231   6.386
29467WAT     H188643   8.397   5.241   6.298
29467WAT     H288644   8.471   5.136   6.399
29468WAT      O88645   4.322   0.707   3.388
29468WAT     H188646   4.269   0.654   3.454
29468WAT     H288647   4.264   0.730   3.310
29469WAT      O88648   2.032   5.273   9.645
29469WAT     H188649   2.033   5.184   9.600
29469WAT     H288650   2.051   5.261   9.742
29470WAT      O88651   1.634   1.484   7.148
29470WAT     H188652   1.574   1.442   7.080
29470WAT     H288653   1.729   1.469   7.122
29471WAT      O88654   6.282   0.576   5.225
29471WAT     H188655   6.204   0.607   5.171
29471WAT     H288656   6.254   0.565   5.321
29472WAT      O88657   6.535   2.682   1.392
29472WAT     H188658   6.585   2.712   1.311
29472WAT     H288659   6.507   2.587   1.381
29473WAT      O88660   6.403   8.048   1.773
29473WAT     H188661   6.457   8.054   1.857
29473WAT     H288662   6.426   8.124   1.713
29474WAT      O88663   3.009   4.257   7.911
29474WAT     H188664   3.017   4.158   7.924
29474WAT     H288665   2.997   4.276   7.813
29475WAT      O88666   6.571   0.180   8.869
29475WAT     H188667   6.642   0.110   8.865
29475WAT     H288668   6.604   0.265   8.827
29476WAT      O88669   2.100   0.595   3.902
29476WAT     H188670   2.163   0.523   3.933
29476WAT     H288671   2.104   0.672   3.965
29477WAT      O88672   3.471   2.656   4.553
29477WAT     H188673   3.446   2.606   4.636
29477WAT     H288674   3.473   2.754   4.573
29478WAT      O88675   0.839   1.799   0.510
29478WAT     H188676   0.918   1.749   0.545
29478WAT     H288677   0.866   1.854   0.431
29479WAT      O88678   1.697   4.092   7.612
29479WAT     H188679   1.742   4.153   7.677
29479WAT     H288680   1.745   4.096   7.524
29480WAT      O88681   2.363   6.842   2.985
29480WAT     H188682   2.276   6.806   3.019
29480WAT     H288683   2.438   6.784   3.018
29481WAT      O88684   5.024   7.292   7.789
29481WAT     H188685   4.933   7.331   7.774
29481WAT     H288686   5.017   7.195   7.808
29482WAT      O88687   1.729   9.221   2.974
29482WAT     H188688   1.693   9.206   2.882
29482WAT     H288689   1.665   9.276   3.027
29483WAT      O88690   7.874   7.210   0.827
29483WAT     H188691   7.946   7.257   0.775
29483WAT     H288692   7.846   7.128   0.778
29484WAT      O88693   4.372   1.552   5.953
29484WAT     H188694   4.427   1.633   5.936
29484WAT     H288695   4.376   1.492   5.873
29485WAT      O88696   4.209   6.557   1.679
29485WAT     H188697   4.138   6.612   1.635
29485WAT     H288698   4.278   6.618   1.718
29486WAT      O88699   3.450   4.504   8.971
29486WAT     H188700   3.530   4.492   9.030
29486WAT     H288701   3.479   4.538   8.882
29487WAT      O88702   6.804   0.134   8.177
29487WAT     H188703   6.874   0.075   8.218
29487WAT     H288704   6.714   0.110   8.214
29488WAT      O88705   1.186   9.688   8.713
29488WAT     H188706   1.253   9.615   8.701
29488WAT     H288707   1.136   9.672   8.799
29489WAT      O88708   1.462   6.849   9.896
29489WAT     H188709   1.442   6.822   9.802
29489WAT     H288710   1.509   6.937   9.897
29490WAT      O88711   0.278   1.822   0.719
29490WAT     H188712   0.254   1.778   0.632
29490WAT     H288713   0.372   1.797   0.745
29491WAT      O88714   8.631   2.741   2.961
29491WAT     H188715   8.627   2.789   2.873
29491WAT     H288716   8.539   2.738   3.001
29492WAT      O88717   1.084   3.070   5.236
29492WAT     H188718   1.100   3.015   5.154
29492WAT     H288719   1.168   3.077   5.290
29493WAT      O88720   0.267   3.068   4.553
29493WAT     H188721   0.192   3.083   4.489
29493WAT     H288722   0.236   3.084   4.646
29494WAT      O88723   4.113   6.096   2.144
29494WAT     H188724   4.017   6.119   2.125
29494WAT     H288725   4.129   6.099   2.243
29495WAT      O88726   1.361   4.008   5.617
29495WAT     H188727   1.420   3.959   5.681
29495WAT     H288728   1.416   4.073   5.564
29496WAT      O88729   0.486   1.263   2.997
29496WAT     H188730   0.398   1.307   3.011
29496WAT     H288731   0.520   1.283   2.905
29497WAT      O88732   7.996   1.950   4.782
29497WAT     H188733   8.079   1.910   4.743
29497WAT     H288734   7.943   1.993   4.709
29498WAT      O88735   4.630   9.198   1.433
29498WAT     H188736   4.540   9.241   1.428
29498WAT     H288737   4.647   9.147   1.348
29499WAT      O88738   9.272   4.814   1.806
29499WAT     H188739   9.199   4.790   1.870
29499WAT     H288740   9.337   4.738   1.800
29500WAT      O88741   2.960   9.792   8.132
29500WAT     H188742   2.934   9.873   8.185
29500WAT     H288743   3.050   9.807   8.091
29501WAT      O88744   4.589   4.516   5.709
29501WAT     H188745   4.548   4.450   5.646
29501WAT     H288746   4.685   4.528   5.688
29502WAT      O88747   6.261   1.895   3.576
29502WAT     H188748   6.197   1.837   3.627
29502WAT     H288749   6.233   1.898   3.480
29503WAT      O88750   2.117   1.320   4.924
29503WAT     H188751   2.031   1.338   4.876
29503WAT     H288752   2.186   1.292   4.858
29504WAT      O88753   1.332   2.254   0.184
29504WAT     H188754   1.260   2.281   0.120
29504WAT     H288755   1.336   2.154   0.190
29505WAT      O88756   0.410   9.337   3.844
29505WAT     H188757   0.337   9.318   3.910
29505WAT     H288758   0.484   9.271   3.856
29506WAT      O88759   3.806   1.361   1.975
29506WAT     H188760   3.853   1.273   1.986
29506WAT     H288761   3.855   1.417   1.909
29507WAT      O88762   5.506   4.450   2.614
29507WAT     H188763   5.599   4.414   2.607
29507WAT     H288764   5.444   4.378   2.643
29508WAT      O88765   3.854   6.806   5.124
29508WAT     H188766   3.788   6.799   5.199
29508WAT     H288767   3.929   6.867   5.150
29509WAT      O88768   6.867   6.950   4.313
29509WAT     H188769   6.862   7.006   4.230
29509WAT     H288770   6.951   6.972   4.363
29510WAT      O88771   1.680   2.842   7.145
29510WAT     H188772   1.727   2.775   7.203
29510WAT     H288773   1.727   2.930   7.150
29511WAT      O88774   6.955   6.549   0.492
29511WAT     H188775   7.024   6.603   0.444
29511WAT     H288776   6.870   6.601   0.497
29512WAT      O88777   9.574   3.818   5.002
29512WAT     H188778   9.637   3.856   4.935
29512WAT     H288779   9.490   3.789   4.956
29513WAT      O88780   3.559   9.763   4.037
29513WAT     H188781   3.623   9.752   4.113
29513WAT     H288782   3.479   9.706   4.053
29514WAT      O88783   8.180   5.723   8.215
29514WAT     H188784   8.127   5.775   8.281
29514WAT     H288785   8.267   5.770   8.198
29515WAT      O88786   5.930   3.710   6.160
29515WAT     H188787   5.917   3.808   6.177
29515WAT     H288788   5.847   3.672   6.119
29516WAT      O88789   1.542   8.337   7.551
29516WAT     H188790   1.609   8.308   7.483
29516WAT     H288791   1.587   8.344   7.641
29517WAT      O88792   2.696   4.029   0.465
29517WAT     H188793   2.597   4.036   0.474
29517WAT     H288794   2.731   4.104   0.409
29518WAT      O88795   6.548   1.666   1.367
29518WAT     H188796   6.534   1.577   1.411
29518WAT     H288797   6.501   1.736   1.420
29519WAT      O88798   4.245   3.753   3.871
29519WAT     H188799   4.328   3.806   3.854
29519WAT     H288800   4.261   3.657   3.848
29520WAT      O88801   3.973   5.156   3.343
29520WAT     H188802   3.894   5.185   3.397
29520WAT     H288803   4.029   5.094   3.398
29521WAT      O88804   3.463   1.588   0.716
29521WAT     H188805   3.427   1.597   0.809
29521WAT     H288806   3.476   1.492   0.694
29522WAT      O88807   2.559   2.789   6.652
29522WAT     H188808   2.580   2.886   6.666
29522WAT     H288809   2.498   2.758   6.725
29523WAT      O88810   6.147   0.624   4.452
29523WAT     H188811   6.073   0.649   4.390
29523WAT     H288812   6.109   0.591   4.539
29524WAT      O88813   6.085   4.880   5.102
29524WAT     H188814   6.077   4.782   5.117
29524WAT     H288815   6.073   4.928   5.190
29525WAT      O88816   3.564   8.156   2.102
29525WAT     H188817   3.526   8.081   2.048
29525WAT     H288818   3.490   8.200   2.153
29526WAT      O88819   6.809   8.985   1.471
29526WAT     H188820   6.903   8.988   1.506
29526WAT     H288821   6.769   9.076   1.476
29527WAT      O88822   1.064   4.156   3.856
29527WAT     H188823   0.971   4.129   3.880
29527WAT     H288824   1.064   4.249   3.820
29528WAT      O88825   2.156   1.246   5.444
29528WAT     H188826   2.251   1.242   5.413
29528WAT     H288827   2.102   1.177   5.395
29529WAT      O88828   3.524   1.884   3.544
29529WAT     H188829   3.436   1.844   3.572
29529WAT     H288830   3.513   1.983   3.536
29530WAT      O88831   3.740   7.129   4.979
29530WAT     H188832   3.742   7.091   5.071
29530WAT     H288833   3.756   7.228   4.984
29531WAT      O88834   4.832   5.740   8.445
29531WAT     H188835   4.886   5.702   8.370
29531WAT     H288836   4.760   5.675   8.470
29532WAT      O88837   5.900   8.700   3.478
29532WAT     H188838   5.951   8.702   3.564
29532WAT     H288839   5.953   8.650   3.409
29533WAT      O88840   6.195   5.200   3.402
29533WAT     H188841   6.209   5.205   3.501
29533WAT     H288842   6.138   5.276   3.372
29534WAT      O88843   2.913   2.684   4.057
29534WAT     H188844   2.837   2.749   4.049
29534WAT     H288845   2.882   2.593   4.032
29535WAT      O88846   0.095   8.299   8.759
29535WAT     H188847   0.073   8.325   8.853
29535WAT     H288848   0.133   8.378   8.711
29536WAT      O88849   1.238   5.367   5.280
29536WAT     H188850   1.284   5.456   5.270
29536WAT     H288851   1.149   5.371   5.233
29537WAT      O88852   1.508   7.090   2.146
29537WAT     H188853   1.422   7.130   2.115
29537WAT     H288854   1.492   6.996   2.175
29538WAT      O88855   3.986   4.526   8.386
29538WAT     H188856   3.937   4.452   8.433
29538WAT     H288857   3.951   4.614   8.417
29539WAT      O88858   7.910   4.641   9.035
29539WAT     H188859   7.989   4.624   8.975
29539WAT     H288860   7.894   4.560   9.092
29540WAT      O88861   5.317   7.405   2.299
29540WAT     H188862   5.395   7.464   2.321
29540WAT     H288863   5.233   7.445   2.337
29541WAT      O88864   3.504   7.892   8.473
29541WAT     H188865   3.425   7.872   8.531
29541WAT     H288866   3.491   7.850   8.383
29542WAT      O88867   3.311   2.246   4.491
29542WAT     H188868   3.238   2.201   4.440
29542WAT     H288869   3.396   2.241   4.439
29543WAT      O88870   0.073   2.193   5.258
29543WAT     H188871   0.038   2.124   5.321
29543WAT     H288872   0.129   2.149   5.188
29544WAT      O88873   1.913   7.119   6.355
29544WAT     H188874   1.839   7.142   6.417
29544WAT     H288875   1.910   7.022   6.332
29545WAT      O88876   3.581   2.692   9.247
29545WAT     H188877   3.650   2.645   9.301
29545WAT     H288878   3.627   2.753   9.181
29546WAT      O88879   4.554   1.317   9.128
29546WAT     H188880   4.622   1.255   9.169
29546WAT     H288881   4.502   1.267   9.059
29547WAT      O88882   9.429   1.470   2.451
29547WAT     H188883   9.498   1.402   2.475
29547WAT     H288884   9.449   1.506   2.359
29548WAT      O88885   7.386   3.426   5.612
29548WAT     H188886   7.318   3.414   5.684
29548WAT     H288887   7.342   3.456   5.528
29549WAT      O88888   1.727   9.366   4.470
29549WAT     H188889   1.824   9.352   4.491
29549WAT     H288890   1.676   9.285   4.499
29550WAT      O88891   7.996   6.987   5.142
29550WAT     H188892   7.940   6.986   5.059
29550WAT     H288893   8.041   7.076   5.150
29551WAT      O88894   9.704   2.807   1.701
29551WAT     H188895   9.618   2.765   1.674
29551WAT     H288896   9.763   2.818   1.621
29552WAT      O88897   5.523   5.884   2.381
29552WAT     H188898   5.445   5.877   2.445
29552WAT     H288899   5.519   5.971   2.334
29553WAT      O88900   9.580   8.452   0.133
29553WAT     H188901   9.645   8.527   0.145
29553WAT     H288902   9.488   8.485   0.150
29554WAT      O88903   6.328   3.187   8.512
29554WAT     H188904   6.411   3.182   8.567
29554WAT     H288905   6.347   3.238   8.428
29555WAT      O88906   0.783   1.845   9.239
29555WAT     H188907   0.839   1.906   9.183
29555WAT     H288908   0.730   1.785   9.180
29556WAT      O88909   9.504   5.806   4.529
29556WAT     H188910   9.600   5.780   4.543
29556WAT     H288911   9.496   5.905   4.532
29557WAT      O88912   3.286   0.106   2.242
29557WAT     H188913   3.252   0.029   2.189
29557WAT     H288914   3.386   0.106   2.240
29558WAT      O88915   8.881   3.685   9.777
29558WAT     H188916   8.976   3.654   9.771
29558WAT     H288917   8.868   3.761   9.713
29559WAT      O88918   5.814   4.456   5.268
29559WAT     H188919   5.814   4.520   5.191
29559WAT     H288920   5.901   4.406   5.270
29560WAT      O88921   0.342   0.642   3.119
29560WAT     H188922   0.346   0.549   3.156
29560WAT     H288923   0.328   0.707   3.194
29561WAT      O88924   3.603   9.737   1.873
29561WAT     H188925   3.691   9.748   1.919
29561WAT     H288926   3.563   9.827   1.855
29562WAT      O88927   6.089   6.336   4.983
29562WAT     H188928   6.039   6.313   5.067
29562WAT     H288929   6.169   6.391   5.005
29563WAT      O88930   7.033   3.375   8.487
29563WAT     H188931   7.069   3.306   8.551
29563WAT     H288932   7.039   3.341   8.394
29564WAT      O88933   7.945   0.154   2.257
29564WAT     H188934   7.935   0.078   2.321
29564WAT     H288935   7.895   0.233   2.293
29565WAT      O88936   3.756   1.747   9.321
29565WAT     H188937   3.682   1.737   9.387
29565WAT     H288938   3.786   1.657   9.289
29566WAT      O88939   5.772   0.994   8.548
29566WAT     H188940   5.809   0.925   8.486
29566WAT     H288941   5.831   1.001   8.628
29567WAT      O88942   5.447   5.423   4.782
29567WAT     H188943   5.350   5.442   4.767
29567WAT     H288944   5.478   5.354   4.718
29568WAT      O88945   4.304   0.970   8.540
29568WAT     H188946   4.360   0.900   8.585
29568WAT     H288947   4.360   1.022   8.476
29569WAT      O88948   7.685   8.451   9.009
29569WAT     H188949   7.745   8.383   8.966
29569WAT     H288950   7.646   8.414   9.093
29570WAT      O88951   8.955   4.438   5.426
29570WAT     H188952   8.904   4.370   5.479
29570WAT     H288953   9.049   4.442   5.460
29571WAT      O88954   7.647   4.835   3.002
29571WAT     H188955   7.732   4.783   3.015
29571WAT     H288956   7.663   4.931   3.025
29572WAT      O88957   9.131   3.621   4.455
29572WAT     H188958   9.107   3.647   4.361
29572WAT     H288959   9.230   3.627   4.466
29573WAT      O88960   0.683   3.163   7.179
29573WAT     H188961   0.598   3.214   7.190
29573WAT     H288962   0.757   3.212   7.224
29574WAT      O88963   6.021   6.920   1.381
29574WAT     H188964   6.024   6.879   1.290
29574WAT     H288965   6.034   6.849   1.450
29575WAT      O88966   1.259   3.746   7.278
29575WAT     H188967   1.343   3.761   7.226
29575WAT     H288968   1.187   3.806   7.244
29576WAT      O88969   2.051   7.677   1.883
29576WAT     H188970   2.118   7.610   1.852
29576WAT     H288971   2.098   7.757   1.920
29577WAT      O88972   8.871   1.933   3.490
29577WAT     H188973   8.828   1.858   3.440
29577WAT     H288974   8.969   1.935   3.470
29578WAT      O88975   3.332   0.514   3.209
29578WAT     H188976   3.378   0.532   3.296
29578WAT     H288977   3.238   0.484   3.227
29579WAT      O88978   5.913   6.057   3.906
29579WAT     H188979   5.866   5.987   3.959
29579WAT     H288980   5.974   6.109   3.966
29580WAT      O88981   7.782   6.767   8.823
29580WAT     H188982   7.760   6.763   8.921
29580WAT     H288983   7.870   6.722   8.807
29581WAT      O88984   7.995   1.948   1.015
29581WAT     H188985   8.027   1.947   0.920
29581WAT     H288986   7.972   2.042   1.041
29582WAT      O88987   3.753   3.126   5.896
29582WAT     H188988   3.831   3.110   5.956
29582WAT     H288989   3.783   3.121   5.800
29583WAT      O88990   2.675   7.223   2.521
29583WAT     H188991   2.665   7.178   2.432
29583WAT     H288992   2.769   7.254   2.532
29584WAT      O88993   8.474   7.829   2.038
29584WAT     H188994   8.388   7.873   2.012
29584WAT     H288995   8.462   7.782   2.125
29585WAT      O88996   6.889   7.100   5.311
29585WAT     H188997   6.949   7.040   5.258
29585WAT     H288998   6.821   7.141   5.251
29586WAT      O88999   2.441   9.610   6.465
29586WAT     H189000   2.387   9.565   6.537
29586WAT     H289001   2.530   9.636   6.502
29587WAT      O89002   4.312   6.853   4.496
29587WAT     H189003   4.291   6.827   4.591
29587WAT     H289004   4.409   6.837   4.478
29588WAT      O89005   7.642   9.465   6.455
29588WAT     H189006   7.676   9.549   6.497
29588WAT     H289007   7.544   9.456   6.472
29589WAT      O89008   7.128   0.340   7.299
29589WAT     H189009   7.215   0.360   7.344
29589WAT     H289010   7.063   0.413   7.320
29590WAT      O89011   1.565   8.704   6.464
29590WAT     H189012   1.531   8.794   6.435
29590WAT     H289013   1.642   8.717   6.526
29591WAT      O89014   8.714   4.215   6.698
29591WAT     H189015   8.680   4.298   6.653
29591WAT     H289016   8.637   4.168   6.742
29592WAT      O89017   7.101   3.002   6.530
29592WAT     H189018   7.114   3.054   6.446
29592WAT     H289019   7.032   3.046   6.587
29593WAT      O89020   9.106   6.518   1.136
29593WAT     H189021   9.043   6.579   1.185
29593WAT     H289022   9.200   6.536   1.165
29594WAT      O89023   9.574   3.210   5.281
29594WAT     H189024   9.549   3.113   5.287
29594WAT     H289025   9.513   3.264   5.339
29595WAT      O89026   2.639   7.807   4.151
29595WAT     H189027   2.669   7.785   4.244
29595WAT     H289028   2.546   7.844   4.154
29596WAT      O89029   3.534   1.067   8.335
29596WAT     H189030   3.440   1.097   8.353
29596WAT     H289031   3.582   1.137   8.283
29597WAT      O89032   6.949  -0.001   5.798
29597WAT     H189033   6.980   0.015   5.892
29597WAT     H289034   6.931   0.086   5.754
29598WAT      O89035   3.276   5.034   6.112
29598WAT     H189036   3.250   5.053   6.207
29598WAT     H289037   3.338   4.955   6.110
29599WAT      O89038   8.951   3.944   6.714
29599WAT     H189039   8.991   3.899   6.634
29599WAT     H289040   8.973   3.891   6.796
29600WAT      O89041   2.707   8.541   2.449
29600WAT     H189042   2.786   8.502   2.402
29600WAT     H289043   2.653   8.595   2.385
29601WAT      O89044   8.968   8.807   3.443
29601WAT     H189045   9.005   8.769   3.359
29601WAT     H289046   8.912   8.737   3.489
29602WAT      O89047   8.945   4.350   4.512
29602WAT     H189048   9.007   4.407   4.565
29602WAT     H289049   8.869   4.320   4.570
29603WAT      O89050   1.119   9.629   2.891
29603WAT     H189051   1.037   9.683   2.911
29603WAT     H289052   1.121   9.549   2.951
29604WAT      O89053   6.189   7.743   0.208
29604WAT     H189054   6.200   7.824   0.150
29604WAT     H289055   6.137   7.768   0.290
29605WAT      O89056   1.605   7.822   1.092
29605WAT     H189057   1.623   7.919   1.081
29605WAT     H289058   1.518   7.799   1.050
29606WAT      O89059   2.739   1.976   7.560
29606WAT     H189060   2.809   1.977   7.632
29606WAT     H289061   2.766   2.038   7.487
29607WAT      O89062   3.153   3.246   5.262
29607WAT     H189063   3.057   3.259   5.286
29607WAT     H289064   3.206   3.228   5.344
29608WAT      O89065   8.958   7.119   0.803
29608WAT     H189066   9.010   7.102   0.718
29608WAT     H289067   8.906   7.203   0.794
29609WAT      O89068   9.808   8.515   4.104
29609WAT     H189069   9.745   8.569   4.161
29609WAT     H289070   9.760   8.486   4.021
29610WAT      O89071   5.263   8.759   8.258
29610WAT     H189072   5.257   8.760   8.358
29610WAT     H289073   5.173   8.735   8.220
29611WAT      O89074   3.257   2.101   4.725
29611WAT     H189075   3.300   2.159   4.656
29611WAT     H289076   3.227   2.015   4.683
29612WAT      O89077   3.038   0.140   2.843
29612WAT     H189078   3.026   0.083   2.761
29612WAT     H289079   3.134   0.163   2.854
29613WAT      O89080   4.400   2.803   8.547
29613WAT     H189081   4.438   2.846   8.629
29613WAT     H289082   4.312   2.845   8.524
29614WAT      O89083   7.879   8.930   0.726
29614WAT     H189084   7.954   8.890   0.674
29614WAT     H289085   7.792   8.888   0.697
29615WAT      O89086   9.630   8.958   8.380
29615WAT     H189087   9.727   8.983   8.368
29615WAT     H289088   9.590   8.939   8.291
29616WAT      O89089   1.452   6.502   7.635
29616WAT     H189090   1.389   6.424   7.637
29616WAT     H289091   1.429   6.566   7.708
29617WAT      O89092   9.393   7.406   9.615
29617WAT     H189093   9.384   7.488   9.558
29617WAT     H289094   9.481   7.363   9.597
29618WAT      O89095   6.564   8.863   4.478
29618WAT     H189096   6.487   8.913   4.518
29618WAT     H289097   6.531   8.778   4.437
29619WAT      O89098   6.366   4.959   6.028
29619WAT     H189099   6.272   4.927   6.043
29619WAT     H289100   6.421   4.940   6.110
29620WAT      O89101   5.728   2.362   2.274
29620WAT     H189102   5.801   2.301   2.304
29620WAT     H289103   5.753   2.457   2.293
29621WAT      O89104   5.188   7.568   8.546
29621WAT     H189105   5.186   7.543   8.449
29621WAT     H289106   5.206   7.486   8.601
29622WAT      O89107   0.733   1.709   6.827
29622WAT     H189108   0.801   1.652   6.874
29622WAT     H289109   0.770   1.741   6.740
29623WAT      O89110   2.259   1.637   3.070
29623WAT     H189111   2.344   1.602   3.110
29623WAT     H289112   2.199   1.560   3.047
29624WAT      O89113   4.325   5.890   1.617
29624WAT     H189114   4.341   5.791   1.615
29624WAT     H289115   4.331   5.926   1.524
29625WAT      O89116   5.032   7.353   8.932
29625WAT     H189117   5.012   7.422   8.862
29625WAT     H289118   5.085   7.395   9.005
29626WAT      O89119   8.878   6.003   8.810
29626WAT     H189120   8.956   6.023   8.870
29626WAT     H289121   8.864   5.904   8.805
29627WAT      O89122   4.126   2.744   3.623
29627WAT     H189123   4.123   2.814   3.551
29627WAT     H289124   4.054   2.762   3.689
29628WAT      O89125   0.981   0.281   0.735
29628WAT     H189126   0.903   0.256   0.792
29628WAT     H289127   0.950   0.306   0.644
29629WAT      O89128   8.554   3.840   0.704
29629WAT     H189129   8.622   3.818   0.773
29629WAT     H289130   8.483   3.769   0.702
29630WAT      O89131   4.978   2.355   3.946
29630WAT     H189132   4.937   2.295   3.877
29630WAT     H289133   4.991   2.447   3.906
29631WAT      O89134   6.917   2.094   5.993
29631WAT     H189135   6.874   2.041   5.920
29631WAT     H289136   7.003   2.051   6.019
29632WAT      O89137   1.651   7.347   9.593
29632WAT     H189138   1.673   7.309   9.683
29632WAT     H289139   1.619   7.441   9.603
29633WAT      O89140   7.022   5.362   3.302
29633WAT     H189141   7.117   5.382   3.326
29633WAT     H289142   7.014   5.264   3.280
29634WAT      O89143   1.173   7.400   4.230
29634WAT     H189144   1.079   7.393   4.197
29634WAT     H289145   1.234   7.351   4.167
29635WAT      O89146   3.165   8.689   6.453
29635WAT     H189147   3.222   8.770   6.438
29635WAT     H289148   3.114   8.699   6.539
29636WAT      O89149   8.687   2.484   7.558
29636WAT     H189150   8.628   2.565   7.552
29636WAT     H289151   8.776   2.504   7.517
29637WAT      O89152   6.945   3.929   4.576
29637WAT     H189153   7.035   3.937   4.533
29637WAT     H289154   6.875   3.918   4.506
29638WAT      O89155   9.614   2.570   1.328
29638WAT     H189156   9.708   2.594   1.303
29638WAT     H289157   9.571   2.520   1.253
29639WAT      O89158   9.557   0.219   9.561
29639WAT     H189159   9.640   0.165   9.574
29639WAT     H289160   9.514   0.236   9.650
29640WAT      O89161   9.109   8.500   6.630
29640WAT     H189162   9.044   8.538   6.564
29640WAT     H289163   9.077   8.517   6.723
29641WAT      O89164   0.964   2.431   0.813
29641WAT     H189165   0.942   2.478   0.898
29641WAT     H289166   1.026   2.487   0.759
29642WAT      O89167   1.544   3.524   8.617
29642WAT     H189168   1.508   3.614   8.644
29642WAT     H289169   1.489   3.487   8.543
29643WAT      O89170   2.199   8.824   4.579
29643WAT     H189171   2.155   8.854   4.494
29643WAT     H289172   2.288   8.784   4.558
29644WAT      O89173   5.890   7.136   4.415
29644WAT     H189174   5.988   7.138   4.396
29644WAT     H289175   5.874   7.112   4.511
29645WAT      O89176   3.940   1.004   2.541
29645WAT     H189177   3.880   1.082   2.563
29645WAT     H289178   4.036   1.032   2.554
29646WAT      O89179   5.318   8.424   7.853
29646WAT     H189180   5.244   8.426   7.785
29646WAT     H289181   5.376   8.345   7.836
29647WAT      O89182   7.904   9.592   4.357
29647WAT     H189183   7.948   9.570   4.444
29647WAT     H289184   7.974   9.594   4.284
29648WAT      O89185   9.271   1.798   3.245
29648WAT     H189186   9.186   1.791   3.193
29648WAT     H289187   9.330   1.720   3.225
29649WAT      O89188   8.053   0.469   1.484
29649WAT     H189189   8.030   0.381   1.524
29649WAT     H289190   7.978   0.499   1.425
29650WAT      O89191   7.393   1.260   7.212
29650WAT     H189192   7.412   1.288   7.118
29650WAT     H289193   7.475   1.221   7.252
29651WAT      O89194   7.702   4.160   7.439
29651WAT     H189195   7.754   4.197   7.516
29651WAT     H289196   7.650   4.233   7.395
29652WAT      O89197   7.051   4.596   7.908
29652WAT     H189198   7.019   4.502   7.913
29652WAT     H289199   7.129   4.602   7.846
29653WAT      O89200   5.086   7.464   1.646
29653WAT     H189201   4.998   7.445   1.690
29653WAT     H289202   5.101   7.400   1.571
29654WAT      O89203   8.652   6.835   5.591
29654WAT     H189204   8.664   6.774   5.513
29654WAT     H289205   8.571   6.892   5.577
29655WAT      O89206   5.525   9.426   4.673
29655WAT     H189207   5.562   9.342   4.713
29655WAT     H289208   5.551   9.432   4.577
29656WAT      O89209   8.004   1.309   2.891
29656WAT     H189210   8.084   1.288   2.834
29656WAT     H289211   7.935   1.356   2.837
29657WAT      O89212   6.731   0.284   1.147
29657WAT     H189213   6.674   0.276   1.229
29657WAT     H289214   6.746   0.381   1.126
29658WAT      O89215   1.828   4.264   7.751
29658WAT     H189216   1.762   4.297   7.819
29658WAT     H289217   1.911   4.233   7.797
29659WAT      O89218   5.092   9.279   6.270
29659WAT     H189219   5.189   9.289   6.295
29659WAT     H289220   5.054   9.370   6.251
29660WAT      O89221   3.467   0.159   1.050
29660WAT     H189222   3.434   0.123   0.962
29660WAT     H289223   3.396   0.217   1.090
29661WAT      O89224   2.808   6.353   7.667
29661WAT     H189225   2.845   6.373   7.576
29661WAT     H289226   2.749   6.272   7.662
29662WAT      O89227   9.201   3.920   5.205
29662WAT     H189228   9.218   3.848   5.271
29662WAT     H289229   9.166   3.880   5.120
29663WAT      O89230   8.472   4.617   8.122
29663WAT     H189231   8.551   4.560   8.097
29663WAT     H289232   8.403   4.610   8.050
29664WAT      O89233   4.963   6.826   6.171
29664WAT     H189234   4.937   6.877   6.254
29664WAT     H289235   4.967   6.728   6.192
29665WAT      O89236   7.450   4.416   8.911
29665WAT     H189237   7.470   4.506   8.871
29665WAT     H289238   7.485   4.412   9.004
29666WAT      O89239   0.573   2.822   6.339
29666WAT     H189240   0.512   2.808   6.262
29666WAT     H289241   0.579   2.920   6.358
29667WAT      O89242   0.756   0.446   5.535
29667WAT     H189243   0.685   0.503   5.577
29667WAT     H289244   0.845   0.490   5.548
29668WAT      O89245   2.656   3.854   7.027
29668WAT     H189246   2.735   3.878   6.971
29668WAT     H289247   2.575   3.845   6.969
29669WAT      O89248   9.032   8.202   2.287
29669WAT     H189249   9.046   8.107   2.316
29669WAT     H289250   9.108   8.231   2.229
29670WAT      O89251   5.606   6.177   7.286
29670WAT     H189252   5.639   6.169   7.380
29670WAT     H289253   5.663   6.243   7.236
29671WAT      O89254   8.381   2.786   4.598
29671WAT     H189255   8.472   2.751   4.619
29671WAT     H289256   8.388   2.882   4.571
29672WAT      O89257   0.291   2.680   6.681
29672WAT     H189258   0.288   2.774   6.649
29672WAT     H289259   0.303   2.618   6.604
29673WAT      O89260   3.330   3.050   2.205
29673WAT     H189261   3.399   3.023   2.272
29673WAT     H289262   3.265   3.113   2.247
29674WAT      O89263   7.231   4.395   3.020
29674WAT     H189264   7.280   4.324   2.968
29674WAT     H289265   7.212   4.473   2.960
29675WAT      O89266   3.896   6.693   1.975
29675WAT     H189267   3.842   6.646   2.045
29675WAT     H289268   3.835   6.727   1.903
29676WAT      O89269   4.726   9.810   2.066
29676WAT     H189270   4.660   9.832   2.137
29676WAT     H289271   4.680   9.811   1.977
29677WAT      O89272   0.782   6.734   5.240
29677WAT     H189273   0.686   6.713   5.221
29677WAT     H289274   0.838   6.653   5.222
29678WAT      O89275   5.815   7.985   6.386
29678WAT     H189276   5.896   7.995   6.327
29678WAT     H289277   5.774   7.895   6.370
29679WAT      O89278   0.456   7.160   2.549
29679WAT     H189279   0.496   7.249   2.571
29679WAT     H289280   0.404   7.167   2.464
29680WAT      O89281   1.935   5.091   0.724
29680WAT     H189282   1.983   5.176   0.704
29680WAT     H289283   1.907   5.047   0.639
29681WAT      O89284   1.268   2.098   0.675
29681WAT     H189285   1.360   2.132   0.694
29681WAT     H289286   1.204   2.132   0.745
29682WAT      O89287   1.068   9.265   8.438
29682WAT     H189288   1.023   9.341   8.392
29682WAT     H289289   1.005   9.187   8.443
29683WAT      O89290   3.888   1.381   9.022
29683WAT     H189291   3.962   1.341   8.968
29683WAT     H289292   3.835   1.309   9.065
29684WAT      O89293   0.103   4.560   1.625
29684WAT     H189294   0.135   4.466   1.640
29684WAT     H289295   0.091   4.606   1.713
29685WAT      O89296   3.745   0.064   1.298
29685WAT     H189297   3.709  -0.009   1.240
29685WAT     H289298   3.703   0.151   1.272
29686WAT      O89299   5.753   4.304   3.220
29686WAT     H189300   5.788   4.230   3.277
29686WAT     H289301   5.722   4.379   3.279
29687WAT      O89302   1.519   1.243   7.246
29687WAT     H189303   1.572   1.164   7.217
29687WAT     H289304   1.569   1.327   7.222
29688WAT      O89305   2.236   3.590   2.686
29688WAT     H189306   2.232   3.632   2.596
29688WAT     H289307   2.146   3.596   2.730
29689WAT      O89308   8.877   7.723   8.039
29689WAT     H189309   8.898   7.626   8.039
29689WAT     H289310   8.824   7.746   8.121
29690WAT      O89311   1.492   3.252   3.429
29690WAT     H189312   1.393   3.261   3.439
29690WAT     H289313   1.527   3.329   3.375
29691WAT      O89314   4.670   0.681   5.451
29691WAT     H189315   4.702   0.774   5.438
29691WAT     H289316   4.742   0.617   5.422
29692WAT      O89317   8.949   4.938   9.207
29692WAT     H189318   8.914   4.935   9.113
29692WAT     H289319   8.896   5.005   9.260
29693WAT      O89320   4.008   7.367   5.286
29693WAT     H189321   4.105   7.379   5.309
29693WAT     H289322   3.954   7.439   5.331
29694WAT      O89323   8.447   7.258   1.162
29694WAT     H189324   8.502   7.237   1.081
29694WAT     H289325   8.450   7.180   1.225
29695WAT      O89326   8.956   9.499   4.448
29695WAT     H189327   8.956   9.401   4.466
29695WAT     H289328   9.038   9.540   4.488
29696WAT      O89329   9.514   7.124   3.244
29696WAT     H189330   9.419   7.143   3.266
29696WAT     H289331   9.569   7.130   3.327
29697WAT      O89332   9.726   7.588   8.908
29697WAT     H189333   9.723   7.495   8.945
29697WAT     H289334   9.689   7.588   8.815
29698WAT      O89335   6.667   0.186   4.934
29698WAT     H189336   6.660   0.104   4.992
29698WAT     H289337   6.578   0.231   4.930
29699WAT      O89338   0.924   4.808   9.625
29699WAT     H189339   0.852   4.745   9.596
29699WAT     H289340   0.973   4.768   9.703
29700WAT      O89341   0.712   8.498   9.091
29700WAT     H189342   0.619   8.509   9.057
29700WAT     H289343   0.778   8.521   9.019
29701WAT      O89344   3.469   4.530   2.622
29701WAT     H189345   3.498   4.558   2.530
29701WAT     H289346   3.519   4.447   2.648
29702WAT      O89347   1.076   5.527   2.894
29702WAT     H189348   1.071   5.608   2.835
29702WAT     H289349   1.067   5.555   2.989
29703WAT      O89350   3.665   9.595   7.382
29703WAT     H189351   3.683   9.528   7.310
29703WAT     H289352   3.734   9.668   7.377
29704WAT      O89353   2.888   4.419   3.908
29704WAT     H189354   2.858   4.449   3.818
29704WAT     H289355   2.851   4.480   3.978
29705WAT      O89356   4.117   4.466   6.940
29705WAT     H189357   4.145   4.371   6.949
29705WAT     H289358   4.180   4.514   6.879
29706WAT      O89359   9.556   1.344   8.240
29706WAT     H189360   9.592   1.314   8.328
29706WAT     H289361   9.618   1.315   8.167
29707WAT      O89362   2.397   9.232   7.320
29707WAT     H189363   2.427   9.138   7.330
29707WAT     H289364   2.355   9.244   7.230
29708WAT      O89365   9.703   5.307   6.263
29708WAT     H189366   9.788   5.256   6.255
29708WAT     H289367   9.717   5.401   6.233
29709WAT      O89368   2.750   1.661   7.486
29709WAT     H189369   2.755   1.754   7.521
29709WAT     H289370   2.707   1.662   7.395
29710WAT      O89371   9.385   4.523   8.438
29710WAT     H189372   9.339   4.434   8.447
29710WAT     H289373   9.343   4.576   8.365
29711WAT      O89374   7.208   1.711   1.593
29711WAT     H189375   7.230   1.681   1.686
29711WAT     H289376   7.243   1.645   1.527
29712WAT      O89377   9.526   8.618   7.781
29712WAT     H189378   9.532   8.708   7.738
29712WAT     H289379   9.450   8.618   7.846
29713WAT      O89380   6.196   6.704   7.632
29713WAT     H189381   6.241   6.680   7.545
29713WAT     H289382   6.242   6.656   7.707
29714WAT      O89383   6.106   9.186   8.090
29714WAT     H189384   6.099   9.108   8.152
29714WAT     H289385   6.031   9.250   8.110
29715WAT      O89386   3.712   2.183   6.202
29715WAT     H189387   3.691   2.255   6.135
29715WAT     H289388   3.712   2.222   6.294
29716WAT      O89389   5.540   2.181   1.202
29716WAT     H189390   5.624   2.130   1.222
29716WAT     H289391   5.560   2.257   1.140
29717WAT      O89392   8.924   0.666   2.160
29717WAT     H189393   8.996   0.736   2.155
29717WAT     H289394   8.863   0.686   2.237
29718WAT      O89395   4.888   6.335   1.773
29718WAT     H189396   4.953   6.339   1.697
29718WAT     H289397   4.901   6.414   1.832
29719WAT      O89398   9.180   0.253   8.467
29719WAT     H189399   9.127   0.276   8.548
29719WAT     H289400   9.121   0.208   8.400
29720WAT      O89401   1.886   6.391   9.499
29720WAT     H189402   1.828   6.388   9.581
29720WAT     H289403   1.843   6.448   9.429
29721WAT      O89404   8.669   9.728   0.238
29721WAT     H189405   8.646   9.705   0.332
29721WAT     H289406   8.585   9.734   0.184
29722WAT      O89407   2.500   0.751   2.186
29722WAT     H189408   2.575   0.685   2.180
29722WAT     H289409   2.511   0.821   2.115
29723WAT      O89410   7.571   0.611   2.148
29723WAT     H189411   7.485   0.661   2.156
29723WAT     H289412   7.554   0.513   2.156
29724WAT      O89413   1.712   3.096   9.705
29724WAT     H189414   1.699   3.014   9.761
29724WAT     H289415   1.649   3.167   9.736
29725WAT      O89416   6.669   9.830   5.611
29725WAT     H189417   6.717   9.827   5.523
29725WAT     H289418   6.662   9.737   5.648
29726WAT      O89419   2.294   4.886   5.315
29726WAT     H189420   2.383   4.906   5.355
29726WAT     H289421   2.276   4.787   5.319
29727WAT      O89422   6.413   1.590   8.387
29727WAT     H189423   6.492   1.651   8.395
29727WAT     H289424   6.395   1.545   8.474
29728WAT      O89425   9.825   5.358   4.088
29728WAT     H189426   9.829   5.258   4.086
29728WAT     H289427   9.910   5.393   4.127
29729WAT      O89428   6.470   4.339   6.269
29729WAT     H189429   6.391   4.305   6.220
29729WAT     H289430   6.540   4.368   6.204
29730WAT      O89431   5.771   7.419   6.847
29730WAT     H189432   5.674   7.445   6.842
29730WAT     H289433   5.828   7.501   6.846
29731WAT      O89434   0.940   9.035   9.168
29731WAT     H189435   0.843   9.056   9.161
29731WAT     H289436   0.967   8.976   9.092
29732WAT      O89437   6.616   8.110   9.389
29732WAT     H189438   6.527   8.069   9.406
29732WAT     H289439   6.639   8.102   9.292
29733WAT      O89440   1.216   0.792   4.455
29733WAT     H189441   1.185   0.799   4.550
29733WAT     H289442   1.162   0.854   4.398
29734WAT      O89443   7.664   1.559   6.465
29734WAT     H189444   7.582   1.528   6.416
29734WAT     H289445   7.729   1.597   6.400
29735WAT      O89446   1.761   1.170   5.986
29735WAT     H189447   1.772   1.230   6.066
29735WAT     H289448   1.848   1.163   5.938
29736WAT      O89449   5.108   0.659   9.447
29736WAT     H189450   5.159   0.656   9.533
29736WAT     H289451   5.135   0.582   9.389
29737WAT      O89452   3.160   5.620   8.138
29737WAT     H189453   3.225   5.576   8.077
29737WAT     H289454   3.154   5.568   8.224
29738WAT      O89455   1.581   7.931   0.550
29738WAT     H189456   1.484   7.907   0.558
29738WAT     H289457   1.592   8.030   0.566
29739WAT      O89458   4.639   3.620   2.600
29739WAT     H189459   4.683   3.530   2.598
29739WAT     H289460   4.660   3.666   2.686
29740WAT      O89461   3.199   9.383   1.305
29740WAT     H189462   3.257   9.335   1.239
29740WAT     H289463   3.106   9.345   1.301
29741WAT      O89464   2.151   1.481   9.390
29741WAT     H189465   2.106   1.522   9.310
29741WAT     H289466   2.222   1.419   9.359
29742WAT      O89467   9.776   0.746   9.488
29742WAT     H189468   9.849   0.696   9.535
29742WAT     H289469   9.814   0.791   9.407
29743WAT      O89470   9.122   8.798   6.984
29743WAT     H189471   9.127   8.884   7.035
29743WAT     H289472   9.026   8.774   6.971
29744WAT      O89473   8.376   4.140   8.434
29744WAT     H189474   8.379   4.069   8.504
29744WAT     H289475   8.313   4.212   8.462
29745WAT      O89476   1.143   7.539   8.133
29745WAT     H189477   1.207   7.600   8.180
29745WAT     H289478   1.127   7.572   8.040
29746WAT      O89479   3.205   0.558   1.223
29746WAT     H189480   3.109   0.582   1.207
29746WAT     H289481   3.237   0.603   1.306
29747WAT      O89482   6.916   6.004   2.306
29747WAT     H189483   6.843   5.944   2.273
29747WAT     H289484   6.901   6.024   2.403
29748WAT      O89485   5.490   4.741   1.097
29748WAT     H189486   5.467   4.838   1.088
29748WAT     H289487   5.425   4.698   1.160
29749WAT      O89488   9.680   0.964   6.620
29749WAT     H189489   9.680   0.969   6.720
29749WAT     H289490   9.666   1.056   6.583
29750WAT      O89491   3.632   2.044   4.279
29750WAT     H189492   3.621   2.017   4.183
29750WAT     H289493   3.611   2.141   4.288
29751WAT      O89494   4.606   0.973   4.403
29751WAT     H189495   4.604   0.874   4.420
29751WAT     H289496   4.589   0.990   4.306
29752WAT      O89497   4.088   1.455   3.870
29752WAT     H189498   4.084   1.466   3.970
29752WAT     H289499   4.183   1.462   3.840
29753WAT      O89500   5.711   8.384   7.820
29753WAT     H189501   5.737   8.478   7.795
29753WAT     H289502   5.752   8.320   7.755
29754WAT      O89503   0.034   0.239   5.850
29754WAT     H189504   0.064   0.143   5.847
29754WAT     H289505   0.114   0.299   5.848
29755WAT      O89506   0.914   9.842   5.369
29755WAT     H189507   0.964   9.801   5.446
29755WAT     H289508   0.859   9.771   5.325
29756WAT      O89509   6.992   7.021   0.938
29756WAT     H189510   7.088   7.001   0.919
29756WAT     H289511   6.978   7.028   1.037
29757WAT      O89512   8.625   7.730   7.362
29757WAT     H189513   8.555   7.660   7.344
29757WAT     H289514   8.606   7.811   7.307
29758WAT      O89515   1.846   5.047   9.069
29758WAT     H189516   1.880   5.119   9.009
29758WAT     H289517   1.805   4.974   9.014
29759WAT      O89518   9.199   9.165   9.730
29759WAT     H189519   9.271   9.099   9.711
29759WAT     H289520   9.113   9.116   9.746
29760WAT      O89521   7.251   8.167   4.836
29760WAT     H189522   7.335   8.203   4.878
29760WAT     H289523   7.267   8.073   4.805
29761WAT      O89524   6.632   2.069   6.744
29761WAT     H189525   6.679   1.981   6.739
29761WAT     H289526   6.587   2.087   6.656
29762WAT      O89527   1.742   0.544   0.578
29762WAT     H189528   1.783   0.483   0.646
29762WAT     H289529   1.717   0.630   0.623
29763WAT      O89530   2.834   7.418   6.153
29763WAT     H189531   2.907   7.427   6.220
29763WAT     H289532   2.746   7.438   6.197
29764WAT      O89533   4.960   0.746   0.735
29764WAT     H189534   4.994   0.680   0.802
29764WAT     H289535   4.875   0.712   0.695
29765WAT      O89536   0.190   8.063   0.046
29765WAT     H189537   0.242   8.143   0.016
29765WAT     H289538   0.110   8.094   0.098
29766WAT      O89539   8.226   3.730   7.425
29766WAT     H189540   8.285   3.658   7.388
29766WAT     H289541   8.279   3.786   7.489
29767WAT      O89542   9.123   8.042   5.996
29767WAT     H189543   9.053   8.114   5.997
29767WAT     H289544   9.211   8.082   5.970
29768WAT      O89545   7.700   5.105   4.949
29768WAT     H189546   7.787   5.141   4.984
29768WAT     H289547   7.667   5.164   4.876
29769WAT      O89548   8.751   1.214   0.414
29769WAT     H189549   8.694   1.142   0.374
29769WAT     H289550   8.745   1.209   0.513
29770WAT      O89551   3.690   5.033   8.622
29770WAT     H189552   3.618   5.100   8.604
29770WAT     H289553   3.659   4.942   8.593
29771WAT      O89554   7.168   7.854   6.097
29771WAT     H189555   7.088   7.795   6.106
29771WAT     H289556   7.247   7.798   6.070
29772WAT      O89557   2.099   8.355   2.201
29772WAT     H189558   2.154   8.375   2.282
29772WAT     H289559   2.107   8.429   2.135
29773WAT      O89560   8.506   8.729   9.622
29773WAT     H189561   8.581   8.666   9.600
29773WAT     H289562   8.523   8.770   9.712
29774WAT      O89563   3.033   4.950   1.630
29774WAT     H189564   3.115   4.979   1.581
29774WAT     H289565   2.977   5.030   1.651
29775WAT      O89566   3.994   3.444   2.676
29775WAT     H189567   4.025   3.533   2.642
29775WAT     H289568   4.006   3.440   2.775
29776WAT      O89569   5.808   4.655   9.157
29776WAT     H189570   5.827   4.595   9.234
29776WAT     H289571   5.804   4.750   9.188
29777WAT      O89572   0.913   2.744   7.724
29777WAT     H189573   0.996   2.752   7.670
29777WAT     H289574   0.875   2.652   7.714
29778WAT      O89575   7.690   8.774   8.097
29778WAT     H189576   7.640   8.700   8.143
29778WAT     H289577   7.767   8.736   8.046
29779WAT      O89578   0.607   8.902   8.409
29779WAT     H189579   0.677   8.973   8.412
29779WAT     H289580   0.533   8.930   8.349
29780WAT      O89581   5.888   5.381   7.254
29780WAT     H189582   5.848   5.394   7.345
29780WAT     H289583   5.977   5.427   7.250
29781WAT      O89584   0.461   1.637   3.221
29781WAT     H189585   0.553   1.597   3.213
29781WAT     H289586   0.446   1.666   3.316
29782WAT      O89587   7.282   7.639   4.083
29782WAT     H189588   7.215   7.587   4.137
29782WAT     H289589   7.335   7.576   4.027
29783WAT      O89590   2.971   0.580   2.161
29783WAT     H189591   3.014   0.494   2.190
29783WAT     H289592   3.033   0.627   2.097
29784WAT      O89593   6.009   2.122   5.722
29784WAT     H189594   6.015   2.027   5.755
29784WAT     H289595   6.099   2.165   5.730
29785WAT      O89596   9.135   9.368   1.390
29785WAT     H189597   9.050   9.323   1.418
29785WAT     H289598   9.115   9.464   1.368
29786WAT      O89599   2.723   7.954   6.636
29786WAT     H189600   2.755   8.047   6.657
29786WAT     H289601   2.737   7.935   6.539
29787WAT      O89602   5.211   4.649   0.211
29787WAT     H189603   5.302   4.616   0.236
29787WAT     H289604   5.196   4.635   0.113
29788WAT      O89605   5.800   1.055   0.734
29788WAT     H189606   5.871   1.104   0.785
29788WAT     H289607   5.711   1.069   0.777
29789WAT      O89608   5.867   3.549   8.395
29789WAT     H189609   5.924   3.593   8.325
29789WAT     H289610   5.894   3.453   8.404
29790WAT      O89611   4.317   2.001   1.139
29790WAT     H189612   4.333   2.034   1.232
29790WAT     H289613   4.240   1.937   1.139
29791WAT      O89614   1.825   8.339   7.917
29791WAT     H189615   1.823   8.286   8.002
29791WAT     H289616   1.743   8.396   7.911
29792WAT      O89617   1.108   3.224   2.354
29792WAT     H189618   1.028   3.195   2.406
29792WAT     H289619   1.106   3.181   2.263
29793WAT      O89620   0.242   7.955   5.354
29793WAT     H189621   0.307   7.889   5.316
29793WAT     H289622   0.166   7.969   5.290
29794WAT      O89623   7.112   2.164   1.678
29794WAT     H189624   7.125   2.201   1.585
29794WAT     H289625   7.029   2.109   1.681
29795WAT      O89626   5.066   3.007   2.960
29795WAT     H189627   5.103   3.010   2.867
29795WAT     H289628   5.113   3.074   3.017
29796WAT      O89629   0.905   9.176   3.517
29796WAT     H189630   0.852   9.260   3.506
29796WAT     H289631   1.003   9.197   3.514
29797WAT      O89632   6.622   0.388   8.271
29797WAT     H189633   6.545   0.356   8.326
29797WAT     H289634   6.678   0.310   8.243
29798WAT      O89635   9.746   0.411   0.396
29798WAT     H189636   9.704   0.462   0.470
29798WAT     H289637   9.831   0.457   0.368
29799WAT      O89638   3.430   1.838   3.847
29799WAT     H189639   3.446   1.763   3.783
29799WAT     H289640   3.373   1.908   3.804
29800WAT      O89641   5.344   3.568   4.647
29800WAT     H189642   5.367   3.496   4.581
29800WAT     H289643   5.366   3.537   4.739
29801WAT      O89644   8.919   5.570   2.991
29801WAT     H189645   8.963   5.602   3.075
29801WAT     H289646   8.928   5.471   2.985
29802WAT      O89647   7.106   8.696   2.530
29802WAT     H189648   7.080   8.749   2.449
29802WAT     H289649   7.183   8.742   2.575
29803WAT      O89650   5.341   3.665   0.007
29803WAT     H189651   5.430   3.710   0.018
29803WAT     H289652   5.341   3.612  -0.078
29804WAT      O89653   8.320   5.878   3.774
29804WAT     H189654   8.237   5.903   3.824
29804WAT     H289655   8.383   5.955   3.774
29805WAT      O89656   9.822   1.322   1.441
29805WAT     H189657   9.771   1.268   1.375
29805WAT     H289658   9.785   1.307   1.533
29806WAT      O89659   2.004   1.222   1.815
29806WAT     H189660   2.075   1.261   1.756
29806WAT     H289661   1.920   1.210   1.761
29807WAT      O89662   2.199   1.050   1.901
29807WAT     H189663   2.116   1.103   1.881
29807WAT     H289664   2.188   1.002   1.988
29808WAT      O89665   1.728   1.225   5.651
29808WAT     H189666   1.803   1.252   5.711
29808WAT     H289667   1.655   1.182   5.705
29809WAT      O89668   9.831   8.042   7.223
29809WAT     H189669   9.923   8.005   7.224
29809WAT     H289670   9.829   8.128   7.172
29810WAT      O89671   8.170   0.162   6.902
29810WAT     H189672   8.227   0.147   6.820
29810WAT     H289673   8.135   0.074   6.934
29811WAT      O89674   4.566   8.898   2.865
29811WAT     H189675   4.571   8.887   2.765
29811WAT     H289676   4.658   8.887   2.904
29812WAT      O89677   2.217   7.359   0.112
29812WAT     H189678   2.296   7.312   0.152
29812WAT     H289679   2.146   7.369   0.182
29813WAT      O89680   2.644   4.493   0.377
29813WAT     H189681   2.726   4.544   0.403
29813WAT     H289682   2.576   4.501   0.450
29814WAT      O89683   4.932   8.168   1.436
29814WAT     H189684   5.030   8.155   1.423
29814WAT     H289685   4.897   8.101   1.501
29815WAT      O89686   7.916   5.673   8.847
29815WAT     H189687   7.895   5.728   8.927
29815WAT     H289688   8.002   5.706   8.807
29816WAT      O89689   1.978   0.677   4.868
29816WAT     H189690   1.919   0.624   4.930
29816WAT     H289691   1.939   0.676   4.776
29817WAT      O89692   9.735   3.384   6.719
29817WAT     H189693   9.810   3.429   6.671
29817WAT     H289694   9.719   3.294   6.679
29818WAT      O89695   3.705   0.223   7.217
29818WAT     H189696   3.674   0.308   7.175
29818WAT     H289697   3.777   0.182   7.162
29819WAT      O89698   0.481   8.038   0.595
29819WAT     H189699   0.507   7.943   0.607
29819WAT     H289700   0.489   8.086   0.683
29820WAT      O89701   7.062   6.382   6.818
29820WAT     H189702   6.965   6.366   6.797
29820WAT     H289703   7.118   6.311   6.775
29821WAT      O89704   7.295   4.413   3.984
29821WAT     H189705   7.261   4.334   4.035
29821WAT     H289706   7.268   4.406   3.888
29822WAT      O89707   9.272   6.094   4.873
29822WAT     H189708   9.290   6.009   4.822
29822WAT     H289709   9.357   6.145   4.884
29823WAT      O89710   8.607   5.125   4.935
29823WAT     H189711   8.598   5.154   5.030
29823WAT     H289712   8.704   5.122   4.910
29824WAT      O89713   4.685   5.619   9.266
29824WAT     H189714   4.631   5.667   9.335
29824WAT     H289715   4.645   5.529   9.248
29825WAT      O89716   3.915   4.018   5.224
29825WAT     H189717   3.964   4.098   5.256
29825WAT     H289718   3.825   4.045   5.189
29826WAT      O89719   1.941   4.933   7.531
29826WAT     H189720   1.903   4.910   7.442
29826WAT     H289721   1.868   4.941   7.599
29827WAT      O89722   7.176   8.123   3.657
29827WAT     H189723   7.223   8.043   3.619
29827WAT     H289724   7.208   8.138   3.751
29828WAT      O89725   5.777   5.471   1.688
29828WAT     H189726   5.730   5.386   1.666
29828WAT     H289727   5.829   5.460   1.772
29829WAT      O89728   1.497   7.346   1.973
29829WAT     H189729   1.567   7.387   2.031
29829WAT     H289730   1.536   7.271   1.921
29830WAT      O89731   0.528   6.798   7.345
29830WAT     H189732   0.590   6.753   7.410
29830WAT     H289733   0.455   6.735   7.319
29831WAT      O89734   5.081   9.349   0.482
29831WAT     H189735   5.058   9.287   0.557
29831WAT     H289736   5.129   9.428   0.518
29832WAT      O89737   1.062   8.160   5.245
29832WAT     H189738   1.105   8.243   5.280
29832WAT     H289739   1.129   8.106   5.193
29833WAT      O89740   1.595   7.166   7.478
29833WAT     H189741   1.553   7.154   7.568
29833WAT     H289742   1.597   7.078   7.430
29834WAT      O89743   7.342   7.434   8.161
29834WAT     H189744   7.414   7.421   8.092
29834WAT     H289745   7.289   7.516   8.139
29835WAT      O89746   6.238   1.190   0.278
29835WAT     H189747   6.189   1.130   0.340
29835WAT     H289748   6.301   1.136   0.222
29836WAT      O89749   8.566   8.069   3.594
29836WAT     H189750   8.587   8.148   3.651
29836WAT     H289751   8.649   8.040   3.545
29837WAT      O89752   7.996   5.466   9.120
29837WAT     H189753   8.019   5.543   9.180
29837WAT     H289754   7.997   5.382   9.173
29838WAT      O89755   0.340   2.077   6.778
29838WAT     H189756   0.312   2.159   6.829
29838WAT     H289757   0.427   2.045   6.814
29839WAT      O89758   1.940   0.083   1.550
29839WAT     H189759   1.991   0.037   1.624
29839WAT     H289760   1.967   0.044   1.462
29840WAT      O89761   6.267   5.202   1.589
29840WAT     H189762   6.274   5.247   1.678
29840WAT     H289763   6.232   5.268   1.522
29841WAT      O89764   5.672   2.705   4.475
29841WAT     H189765   5.675   2.712   4.375
29841WAT     H289766   5.731   2.775   4.515
29842WAT      O89767   0.518   1.301   4.211
29842WAT     H189768   0.548   1.209   4.231
29842WAT     H289769   0.463   1.336   4.287
29843WAT      O89770   5.210   9.133   4.728
29843WAT     H189771   5.242   9.206   4.789
29843WAT     H289772   5.111   9.126   4.735
29844WAT      O89773   4.112   4.865   7.307
29844WAT     H189774   4.063   4.838   7.390
29844WAT     H289775   4.165   4.788   7.273
29845WAT      O89776   7.186   1.675   0.220
29845WAT     H189777   7.267   1.654   0.165
29845WAT     H289778   7.118   1.722   0.163
29846WAT      O89779   7.875   4.679   9.444
29846WAT     H189780   7.779   4.706   9.448
29846WAT     H289781   7.925   4.741   9.383
29847WAT      O89782   3.301   7.974   8.846
29847WAT     H189783   3.316   7.897   8.907
29847WAT     H289784   3.278   7.940   8.755
29848WAT      O89785   2.181   8.490   0.898
29848WAT     H189786   2.278   8.468   0.883
29848WAT     H289787   2.125   8.444   0.830
29849WAT      O89788   9.299   8.161   9.318
29849WAT     H189789   9.307   8.209   9.230
29849WAT     H289790   9.206   8.124   9.327
29850WAT      O89791   8.997   3.709   7.958
29850WAT     H189792   8.921   3.671   7.905
29850WAT     H289793   8.977   3.805   7.981
29851WAT      O89794   0.922   7.041   5.543
29851WAT     H189795   0.915   7.063   5.446
29851WAT     H289796   0.830   7.032   5.582
29852WAT      O89797   6.450   8.055   3.772
29852WAT     H189798   6.437   8.107   3.688
29852WAT     H289799   6.371   7.995   3.786
29853WAT      O89800   7.750   1.409   0.983
29853WAT     H189801   7.809   1.450   1.053
29853WAT     H289802   7.656   1.408   1.015
29854WAT      O89803   9.114   6.052   3.782
29854WAT     H189804   9.118   5.959   3.820
29854WAT     H289805   9.163   6.054   3.696
29855WAT      O89806   8.821   1.257   2.523
29855WAT     H189807   8.905   1.205   2.540
29855WAT     H289808   8.749   1.225   2.584
29856WAT      O89809   4.422   7.292   3.569
29856WAT     H189810   4.493   7.325   3.507
29856WAT     H289811   4.332   7.306   3.527
29857WAT      O89812   0.964   8.451   4.534
29857WAT     H189813   0.943   8.540   4.494
29857WAT     H289814   1.034   8.462   4.604
29858WAT      O89815   5.718   6.596   8.980
29858WAT     H189816   5.817   6.601   8.990
29858WAT     H289817   5.674   6.642   9.058
29859WAT      O89818   9.744   3.231   3.995
29859WAT     H189819   9.815   3.169   4.027
29859WAT     H289820   9.766   3.324   4.024
29860WAT      O89821   3.713   5.158   2.137
29860WAT     H189822   3.735   5.076   2.190
29860WAT     H289823   3.716   5.238   2.197
29861WAT      O89824   7.948   7.944   1.653
29861WAT     H189825   7.863   7.910   1.615
29861WAT     H289826   7.978   7.884   1.727
29862WAT      O89827   9.259   3.485   0.181
29862WAT     H189828   9.293   3.569   0.139
29862WAT     H289829   9.159   3.482   0.175
29863WAT      O89830   9.187   3.580   4.097
29863WAT     H189831   9.157   3.660   4.147
29863WAT     H289832   9.190   3.601   3.999
29864WAT      O89833   8.260   7.215   9.813
29864WAT     H189834   8.332   7.202   9.744
29864WAT     H289835   8.170   7.204   9.770
29865WAT      O89836   3.869   6.311   3.176
29865WAT     H189837   3.799   6.363   3.226
29865WAT     H289838   3.830   6.225   3.145
29866WAT      O89839   6.684   1.506   7.136
29866WAT     H189840   6.748   1.431   7.155
29866WAT     H289841   6.666   1.557   7.220
29867WAT      O89842   9.174   6.869   8.129
29867WAT     H189843   9.190   6.777   8.092
29867WAT     H289844   9.095   6.910   8.082
29868WAT      O89845   8.937   0.562   6.668
29868WAT     H189846   8.861   0.625   6.648
29868WAT     H289847   8.991   0.599   6.744
29869WAT      O89848   5.658   1.311   7.699
29869WAT     H189849   5.718   1.255   7.642
29869WAT     H289850   5.703   1.398   7.719
29870WAT      O89851   6.209   6.339   4.605
29870WAT     H189852   6.269   6.399   4.658
29870WAT     H289853   6.123   6.386   4.586
29871WAT      O89854   2.009   0.020   9.333
29871WAT     H189855   1.921   0.054   9.365
29871WAT     H289856   2.000  -0.011   9.238
29872WAT      O89857   2.587   0.812   8.109
29872WAT     H189858   2.590   0.774   8.016
29872WAT     H289859   2.572   0.737   8.174
29873WAT      O89860   4.252   0.198   7.725
29873WAT     H189861   4.255   0.231   7.820
29873WAT     H289862   4.221   0.272   7.666
29874WAT      O89863   5.164   0.272   4.689
29874WAT     H189864   5.139   0.344   4.624
29874WAT     H289865   5.192   0.191   4.639
29875WAT      O89866   0.672   9.585   3.641
29875WAT     H189867   0.674   9.647   3.561
29875WAT     H289868   0.610   9.622   3.710
29876WAT      O89869   8.058   7.275   4.884
29876WAT     H189870   7.993   7.326   4.827
29876WAT     H289871   8.088   7.193   4.835
29877WAT      O89872   2.083   5.760   4.946
29877WAT     H189873   2.049   5.727   5.034
29877WAT     H289874   2.035   5.715   4.872
29878WAT      O89875   1.508   7.769   6.604
29878WAT     H189876   1.545   7.793   6.515
29878WAT     H289877   1.582   7.769   6.672
29879WAT      O89878   3.989   9.566   4.905
29879WAT     H189879   4.013   9.622   4.826
29879WAT     H289880   4.035   9.477   4.898
29880WAT      O89881   7.344   6.921   9.106
29880WAT     H189882   7.358   7.013   9.144
29880WAT     H289883   7.337   6.927   9.006
29881WAT      O89884   2.078   4.313   5.645
29881WAT     H189885   1.984   4.332   5.675
29881WAT     H289886   2.101   4.371   5.567
29882WAT      O89887   4.288   5.250   0.235
29882WAT     H189888   4.300   5.238   0.136
29882WAT     H289889   4.332   5.335   0.264
29883WAT      O89890   8.737   4.911   0.240
29883WAT     H189891   8.714   5.005   0.265
29883WAT     H289892   8.679   4.881   0.164
29884WAT      O89893   4.123   9.552   3.291
29884WAT     H189894   4.061   9.621   3.327
29884WAT     H289895   4.129   9.476   3.356
29885WAT      O89896   2.308   8.611   1.822
29885WAT     H189897   2.316   8.549   1.744
29885WAT     H289898   2.305   8.705   1.789
29886WAT      O89899   5.244   2.480   7.597
29886WAT     H189900   5.228   2.441   7.507
29886WAT     H289901   5.317   2.548   7.591
29887WAT      O89902   0.443   0.671   2.609
29887WAT     H189903   0.346   0.691   2.601
29887WAT     H289904   0.495   0.734   2.552
29888WAT      O89905   4.929   2.192   7.256
29888WAT     H189906   4.835   2.220   7.236
29888WAT     H289907   4.954   2.115   7.197
29889WAT      O89908   2.919   2.173   9.413
29889WAT     H189909   2.883   2.139   9.500
29889WAT     H289910   2.975   2.254   9.430
29890WAT      O89911   8.678   7.140   8.684
29890WAT     H189912   8.641   7.221   8.729
29890WAT     H289913   8.610   7.104   8.620
29891WAT      O89914   2.289   0.580   3.094
29891WAT     H189915   2.378   0.558   3.054
29891WAT     H289916   2.218   0.568   3.026
29892WAT      O89917   8.921   5.998   0.346
29892WAT     H189918   8.896   6.088   0.382
29892WAT     H289919   8.946   5.937   0.421
29893WAT      O89920   1.496   9.341   3.055
29893WAT     H189921   1.424   9.319   2.989
29893WAT     H289922   1.499   9.440   3.068
29894WAT      O89923   0.266   3.576   1.348
29894WAT     H189924   0.319   3.661   1.348
29894WAT     H289925   0.233   3.558   1.255
29895WAT      O89926   3.274   4.694   3.483
29895WAT     H189927   3.298   4.779   3.435
29895WAT     H289928   3.181   4.702   3.519
29896WAT      O89929   1.054   9.066   1.946
29896WAT     H189930   1.038   9.044   2.043
29896WAT     H289931   1.152   9.064   1.927
29897WAT      O89932   6.172   3.846   1.698
29897WAT     H189933   6.265   3.809   1.689
29897WAT     H289934   6.122   3.793   1.767
29898WAT      O89935   3.270   5.412   1.380
29898WAT     H189936   3.358   5.365   1.370
29898WAT     H289937   3.205   5.350   1.425
29899WAT      O89938   5.103   3.132   0.414
29899WAT     H189939   5.071   3.041   0.438
29899WAT     H289940   5.128   3.182   0.497
29900WAT      O89941   2.981   9.793   0.873
29900WAT     H189942   3.070   9.754   0.851
29900WAT     H289943   2.939   9.829   0.790
29901WAT      O89944   3.243   1.872   0.407
29901WAT     H189945   3.262   1.850   0.503
29901WAT     H289946   3.301   1.815   0.348
29902WAT      O89947   8.121   1.736   9.707
29902WAT     H189948   8.022   1.747   9.716
29902WAT     H289949   8.165   1.824   9.722
29903WAT      O89950   7.160   0.224   7.051
29903WAT     H189951   7.140   0.277   7.133
29903WAT     H289952   7.242   0.169   7.066
29904WAT      O89953   7.922   1.102   4.776
29904WAT     H189954   7.891   1.194   4.797
29904WAT     H289955   7.852   1.036   4.802
29905WAT      O89956   7.889   8.886   2.029
29905WAT     H189957   7.986   8.872   2.049
29905WAT     H289958   7.833   8.826   2.087
29906WAT      O89959   1.201   4.752   1.487
29906WAT     H189960   1.117   4.704   1.508
29906WAT     H289961   1.183   4.850   1.476
29907WAT      O89962   4.850   2.978   9.388
29907WAT     H189963   4.754   2.994   9.410
29907WAT     H289964   4.898   2.947   9.470
29908WAT      O89965   0.175   3.094   2.159
29908WAT     H189966   0.236   3.174   2.162
29908WAT     H289967   0.081   3.123   2.176
29909WAT      O89968   1.128   5.562   4.692
29909WAT     H189969   1.093   5.637   4.748
29909WAT     H289970   1.142   5.481   4.750
29910WAT      O89971   1.359   4.054   0.752
29910WAT     H189972   1.431   4.024   0.689
29910WAT     H289973   1.289   3.982   0.759
29911WAT      O89974   2.193   9.432   9.288
29911WAT     H189975   2.197   9.433   9.188
29911WAT     H289976   2.285   9.420   9.325
29912WAT      O89977   7.665   3.980   5.188
29912WAT     H189978   7.660   3.951   5.284
29912WAT     H289979   7.729   3.921   5.139
29913WAT      O89980   0.431   5.038   0.656
29913WAT     H189981   0.375   5.116   0.684
29913WAT     H289982   0.475   5.059   0.568
29914WAT      O89983   7.543   3.631   3.370
29914WAT     H189984   7.585   3.628   3.460
29914WAT     H289985   7.444   3.618   3.378
29915WAT      O89986   0.999   8.432   2.921
29915WAT     H189987   0.946   8.348   2.932
29915WAT     H289988   0.980   8.495   2.996
29916WAT      O89989   1.711   5.644   5.070
29916WAT     H189990   1.738   5.692   5.153
29916WAT     H289991   1.783   5.579   5.044
29917WAT      O89992   4.417   1.464   4.372
29917WAT     H189993   4.417   1.415   4.460
29917WAT     H289994   4.494   1.528   4.371
29918WAT      O89995   1.112   7.519   9.377
29918WAT     H189996   1.140   7.444   9.436
29918WAT     H289997   1.185   7.588   9.375
29919WAT      O89998   5.214   5.995   2.292
29919WAT     H189999   5.206   5.983   2.193
29919WAT     H290000   5.123   5.988   2.333
29920WAT      O90001   0.357   3.863   4.481
29920WAT     H190002   0.320   3.774   4.455
29920WAT     H290003   0.454   3.853   4.503
29921WAT      O90004   7.630   5.015   2.778
29921WAT     H190005   7.589   4.954   2.846
29921WAT     H290006   7.617   5.110   2.806
29922WAT      O90007   2.118   0.111   5.159
29922WAT     H190008   2.043   0.101   5.225
29922WAT     H290009   2.114   0.202   5.117
29923WAT      O90010   2.716   2.057   1.255
29923WAT     H190011   2.678   2.075   1.346
29923WAT     H290012   2.724   1.958   1.241
29924WAT      O90013   4.327   3.805   5.762
29924WAT     H190014   4.322   3.785   5.860
29924WAT     H290015   4.421   3.792   5.730
29925WAT      O90016   6.196   6.185   3.963
29925WAT     H190017   6.255   6.265   3.949
29925WAT     H290018   6.167   6.148   3.874
29926WAT      O90019   6.434   3.051   6.507
29926WAT     H190020   6.410   3.136   6.553
29926WAT     H290021   6.354   3.014   6.460
29927WAT      O90022   9.549   1.793   9.646
29927WAT     H190023   9.481   1.780   9.573
29927WAT     H290024   9.557   1.891   9.666
29928WAT      O90025   0.373   9.681   2.332
29928WAT     H190026   0.422   9.768   2.333
29928WAT     H290027   0.388   9.634   2.245
29929WAT      O90028   0.475   1.779   1.048
29929WAT     H190029   0.564   1.751   1.085
29929WAT     H290030   0.476   1.768   0.948
29930WAT      O90031   5.115   6.579   7.696
29930WAT     H190032   5.078   6.631   7.774
29930WAT     H290033   5.039   6.538   7.645
29931WAT      O90034   4.341   9.427   8.021
29931WAT     H190035   4.419   9.423   7.959
29931WAT     H290036   4.292   9.340   8.019
29932WAT      O90037   5.420   7.797   7.217
29932WAT     H190038   5.438   7.698   7.217
29932WAT     H290039   5.367   7.820   7.299
29933WAT      O90040   0.019   4.492   7.527
29933WAT     H190041  -0.053   4.426   7.505
29933WAT     H290042  -0.014   4.584   7.507
29934WAT      O90043   3.154   6.447   4.157
29934WAT     H190044   3.198   6.537   4.164
29934WAT     H290045   3.128   6.415   4.248
29935WAT      O90046   9.714   6.129   0.330
29935WAT     H190047   9.748   6.145   0.237
29935WAT     H290048   9.694   6.216   0.373
29936WAT      O90049   3.210   7.283   8.500
29936WAT     H190050   3.222   7.201   8.445
29936WAT     H290051   3.285   7.290   8.566
29937WAT      O90052   2.063   5.592   9.290
29937WAT     H190053   2.100   5.566   9.379
29937WAT     H290054   2.122   5.557   9.218
29938WAT      O90055   2.017   2.527   6.933
29938WAT     H190056   1.922   2.500   6.920
29938WAT     H290057   2.061   2.542   6.845
29939WAT      O90058   7.089   8.784   7.355
29939WAT     H190059   7.061   8.851   7.423
29939WAT     H290060   7.032   8.792   7.273
29940WAT      O90061   3.625   8.779   1.301
29940WAT     H190062   3.594   8.869   1.271
29940WAT     H290063   3.618   8.773   1.401
29941WAT      O90064   7.012   6.091   2.974
29941WAT     H190065   7.091   6.032   2.990
29941WAT     H290066   6.956   6.094   3.056
29942WAT      O90067   5.989   1.819   2.496
29942WAT     H190068   5.896   1.818   2.534
29942WAT     H290069   6.040   1.895   2.535
29943WAT      O90070   0.397   2.480   8.407
29943WAT     H190071   0.386   2.478   8.307
29943WAT     H290072   0.319   2.433   8.449
29944WAT      O90073   9.376   5.484   4.607
29944WAT     H190074   9.467   5.444   4.621
29944WAT     H290075   9.378   5.543   4.526
29945WAT      O90076   1.252   3.802   2.473
29945WAT     H190077   1.333   3.844   2.432
29945WAT     H290078   1.227   3.720   2.421
29946WAT      O90079   5.184   5.875   9.570
29946WAT     H190080   5.195   5.789   9.619
29946WAT     H290081   5.087   5.896   9.559
29947WAT      O90082   2.145   2.126   0.966
29947WAT     H190083   2.106   2.057   1.027
29947WAT     H290084   2.166   2.209   1.018
29948WAT      O90085   0.075   2.626   3.890
29948WAT     H190086   0.092   2.718   3.924
29948WAT     H290087   0.014   2.630   3.811
29949WAT      O90088   4.690   6.996   8.383
29949WAT     H190089   4.594   7.020   8.370
29949WAT     H290090   4.697   6.901   8.412
29950WAT      O90091   8.072   7.759   3.812
29950WAT     H190092   8.106   7.825   3.745
29950WAT     H290093   8.068   7.668   3.769
29951WAT      O90094   3.453   5.069   5.275
29951WAT     H190095   3.500   4.996   5.226
29951WAT     H290096   3.516   5.144   5.292
29952WAT      O90097   3.906   8.708   2.758
29952WAT     H190098   3.896   8.614   2.789
29952WAT     H290099   3.926   8.710   2.660
29953WAT      O90100   6.900   5.309   6.550
29953WAT     H190101   6.937   5.224   6.588
29953WAT     H290102   6.832   5.287   6.480
29954WAT      O90103   3.206   5.608   2.684
29954WAT     H190104   3.239   5.515   2.663
29954WAT     H290105   3.107   5.607   2.692
29955WAT      O90106   5.109   1.906   5.539
29955WAT     H190107   5.159   1.991   5.521
29955WAT     H290108   5.171   1.828   5.529
29956WAT      O90109   3.965   0.505   0.951
29956WAT     H190110   3.897   0.555   1.005
29956WAT     H290111   3.970   0.544   0.859
29957WAT      O90112   4.376   6.405   5.184
29957WAT     H190113   4.475   6.406   5.177
29957WAT     H290114   4.346   6.315   5.215
29958WAT      O90115   0.751   6.331   1.011
29958WAT     H190116   0.763   6.265   1.086
29958WAT     H290117   0.835   6.337   0.958
29959WAT      O90118   4.864   3.172   8.180
29959WAT     H190119   4.910   3.258   8.202
29959WAT     H290120   4.880   3.106   8.253
29960WAT      O90121   8.014   8.973   7.111
29960WAT     H190122   8.044   8.944   7.201
29960WAT     H290123   8.089   9.020   7.064
29961WAT      O90124   1.019   6.853   5.868
29961WAT     H190125   1.078   6.932   5.856
29961WAT     H290126   0.944   6.876   5.930
29962WAT      O90127   6.124   1.313   1.144
29962WAT     H190128   6.027   1.329   1.160
29962WAT     H290129   6.137   1.234   1.085
29963WAT      O90130   1.455   9.638   1.326
29963WAT     H190131   1.421   9.684   1.244
29963WAT     H290132   1.555   9.643   1.327
29964WAT      O90133   0.723   9.374   3.483
29964WAT     H190134   0.656   9.333   3.421
29964WAT     H290135   0.678   9.445   3.538
29965WAT      O90136   8.186   0.680   8.766
29965WAT     H190137   8.153   0.612   8.701
29965WAT     H290138   8.127   0.761   8.761
29966WAT      O90139   4.839   8.854   2.966
29966WAT     H190140   4.826   8.776   3.027
29966WAT     H290141   4.887   8.824   2.884
29967WAT      O90142   0.153   3.528   1.097
29967WAT     H190143   0.072   3.559   1.047
29967WAT     H290144   0.229   3.517   1.033
29968WAT      O90145   6.571   0.016   6.724
29968WAT     H190146   6.661  -0.019   6.751
29968WAT     H290147   6.574   0.041   6.627
29969WAT      O90148   5.742   8.333   2.499
29969WAT     H190149   5.751   8.263   2.429
29969WAT     H290150   5.803   8.410   2.478
29970WAT      O90151   5.609   3.086   9.888
29970WAT     H190152   5.673   3.013   9.864
29970WAT     H290153   5.656   3.174   9.888
29971WAT      O90154   0.346   0.148   2.904
29971WAT     H190155   0.409   0.220   2.879
29971WAT     H290156   0.289   0.124   2.826
29972WAT      O90157   8.863   1.119   3.427
29972WAT     H190158   8.849   1.165   3.515
29972WAT     H290159   8.960   1.094   3.417
29973WAT      O90160   2.488   7.332   1.814
29973WAT     H190161   2.545   7.315   1.734
29973WAT     H290162   2.544   7.329   1.896
29974WAT      O90163   7.892   1.730   7.962
29974WAT     H190164   7.895   1.633   7.986
29974WAT     H290165   7.957   1.748   7.887
29975WAT      O90166   7.849   4.303   3.594
29975WAT     H190167   7.878   4.258   3.509
29975WAT     H290168   7.784   4.244   3.642
29976WAT      O90169   8.128   8.826   9.555
29976WAT     H190170   8.176   8.866   9.633
29976WAT     H290171   8.169   8.738   9.532
29977WAT      O90172   6.479   5.902   1.457
29977WAT     H190173   6.422   5.984   1.447
29977WAT     H290174   6.442   5.828   1.401
29978WAT      O90175   1.223   0.407   8.729
29978WAT     H190176   1.316   0.441   8.742
29978WAT     H290177   1.198   0.348   8.806
29979WAT      O90178   4.475   0.084   1.643
29979WAT     H190179   4.468   0.036   1.556
29979WAT     H290180   4.386   0.119   1.670
29980WAT      O90181   6.241   8.730   7.175
29980WAT     H190182   6.154   8.685   7.196
29980WAT     H290183   6.225   8.805   7.111
29981WAT      O90184   2.520   1.869   3.310
29981WAT     H190185   2.499   1.774   3.336
29981WAT     H290186   2.542   1.922   3.391
29982WAT      O90187   1.618   6.146   6.725
29982WAT     H190188   1.669   6.229   6.746
29982WAT     H290189   1.600   6.095   6.810
29983WAT      O90190   8.769   2.927   8.517
29983WAT     H190191   8.851   2.886   8.556
29983WAT     H290192   8.739   3.003   8.573
29984WAT      O90193   5.397   5.968   0.345
29984WAT     H190194   5.415   6.026   0.425
29984WAT     H290195   5.325   5.903   0.367
29985WAT      O90196   9.297   6.444   3.310
29985WAT     H190197   9.335   6.536   3.316
29985WAT     H290198   9.340   6.394   3.234
29986WAT      O90199   3.725   7.991   5.279
29986WAT     H190200   3.741   8.046   5.197
29986WAT     H290201   3.777   7.906   5.273
29987WAT      O90202   2.446   0.818   0.852
29987WAT     H190203   2.351   0.830   0.880
29987WAT     H290204   2.449   0.776   0.761
29988WAT      O90205   9.231   0.589   5.924
29988WAT     H190206   9.298   0.541   5.867
29988WAT     H290207   9.252   0.575   6.020
29989WAT      O90208   5.561   7.165   9.236
29989WAT     H190209   5.468   7.164   9.200
29989WAT     H290210   5.610   7.245   9.202
29990WAT      O90211   2.160   4.916   8.535
29990WAT     H190212   2.071   4.909   8.580
29990WAT     H290213   2.196   4.825   8.517
29991WAT      O90214   2.660   3.720   4.217
29991WAT     H190215   2.655   3.680   4.125
29991WAT     H290216   2.736   3.784   4.221
29992WAT      O90217   2.590   7.251   0.845
29992WAT     H190218   2.550   7.168   0.884
29992WAT     H290219   2.580   7.250   0.746
29993WAT      O90220   1.535   7.876   9.663
29993WAT     H190221   1.448   7.926   9.673
29993WAT     H290222   1.553   7.824   9.747
29994WAT      O90223   1.352   2.443   2.904
29994WAT     H190224   1.270   2.408   2.949
29994WAT     H290225   1.433   2.413   2.955
29995WAT      O90226   8.555   6.517   0.235
29995WAT     H190227   8.467   6.470   0.237
29995WAT     H290228   8.628   6.454   0.264
29996WAT      O90229   5.279   6.992   0.263
29996WAT     H190230   5.203   6.929   0.248
29996WAT     H290231   5.242   7.084   0.277
29997WAT      O90232   0.232   4.193   6.902
29997WAT     H190233   0.198   4.238   6.820
29997WAT     H290234   0.164   4.128   6.936
29998WAT      O90235   3.277   7.031   6.291
29998WAT     H190236   3.351   7.098   6.304
29998WAT     H290237   3.303   6.944   6.331
29999WAT      O90238   9.399   7.243   6.920
29999WAT     H190239   9.436   7.175   6.857
29999WAT     H290240   9.473   7.302   6.952
30000WAT      O90241   0.198   6.968   0.935
30000WAT     H190242   0.151   6.994   0.851
30000WAT     H290243   0.296   6.960   0.917
30001WAT      O90244   5.323   8.210   2.117
30001WAT     H190245   5.331   8.141   2.045
30001WAT     H290246   5.305   8.166   2.204
30002WAT      O90247   9.337   7.741   1.733
30002WAT     H190248   9.370   7.737   1.638
30002WAT     H290249   9.242   7.772   1.734
30003WAT      O90250   9.469   0.217   7.067
30003WAT     H190251   9.437   0.265   6.985
30003WAT     H290252   9.500   0.283   7.134
30004WAT      O90253   8.911   8.383   2.457
30004WAT     H190254   8.911   8.478   2.426
30004WAT     H290255   8.960   8.326   2.391
30005WAT      O90256   6.785   4.792   5.213
30005WAT     H190257   6.866   4.846   5.235
30005WAT     H290258   6.740   4.831   5.133
30006WAT      O90259   9.245   5.152   4.154
30006WAT     H190260   9.195   5.065   4.156
30006WAT     H290261   9.183   5.226   4.180
30007WAT      O90262   7.679   6.275   2.758
30007WAT     H190263   7.693   6.243   2.664
30007WAT     H290264   7.765   6.311   2.794
30008WAT      O90265   0.197   9.475   7.541
30008WAT     H190266   0.185   9.428   7.628
30008WAT     H290267   0.281   9.530   7.543
30009WAT      O90268   1.049   3.139   9.485
30009WAT     H190269   0.967   3.187   9.452
30009WAT     H290270   1.060   3.053   9.434
30010WAT      O90271   1.255   2.257   2.035
30010WAT     H190272   1.286   2.302   1.951
30010WAT     H290273   1.155   2.259   2.038
30011WAT      O90274   6.647   1.382   4.718
30011WAT     H190275   6.661   1.362   4.815
30011WAT     H290276   6.688   1.470   4.695
30012WAT      O90277   0.310   6.679   6.319
30012WAT     H190278   0.327   6.651   6.413
30012WAT     H290279   0.250   6.613   6.274
30013WAT      O90280   9.044   6.181   4.777
30013WAT     H190281   9.048   6.188   4.677
30013WAT     H290282   9.128   6.139   4.811
30014WAT      O90283   7.230   0.507   9.578
30014WAT     H190284   7.253   0.597   9.543
30014WAT     H290285   7.259   0.437   9.512
30015WAT      O90286   6.431   7.224   5.325
30015WAT     H190287   6.493   7.220   5.403
30015WAT     H290288   6.337   7.229   5.357
30016WAT      O90289   2.238   9.595   8.965
30016WAT     H190290   2.292   9.548   9.034
30016WAT     H290291   2.224   9.534   8.886
30017WAT      O90292   2.906   6.233   8.594
30017WAT     H190293   2.952   6.244   8.682
30017WAT     H290294   2.807   6.233   8.609
30018WAT      O90295   6.267   9.447   8.205
30018WAT     H190296   6.358   9.418   8.176
30018WAT     H290297   6.263   9.453   8.304
30019WAT      O90298   2.576   2.909   3.230
30019WAT     H190299   2.512   2.979   3.197
30019WAT     H290300   2.530   2.820   3.232
30020WAT      O90301   8.712   6.028   6.546
30020WAT     H190302   8.647   6.029   6.622
30020WAT     H290303   8.779   5.955   6.561
30021WAT      O90304   1.209   8.415   4.698
30021WAT     H190305   1.240   8.505   4.728
30021WAT     H290306   1.287   8.360   4.668
30022WAT      O90307   7.689   4.477   6.641
30022WAT     H190308   7.620   4.536   6.600
30022WAT     H290309   7.762   4.534   6.681
30023WAT      O90310   4.485   4.175   4.067
30023WAT     H190311   4.557   4.106   4.068
30023WAT     H290312   4.472   4.208   3.973
30024WAT      O90313   4.075   8.966   2.002
30024WAT     H190314   4.123   9.000   2.083
30024WAT     H290315   4.094   9.027   1.925
30025WAT      O90316   5.902   6.674   8.345
30025WAT     H190317   5.823   6.614   8.347
30025WAT     H290318   5.891   6.747   8.412
30026WAT      O90319   5.511   4.047   9.825
30026WAT     H190320   5.450   4.055   9.903
30026WAT     H290321   5.559   4.134   9.811
30027WAT      O90322   3.453   7.464   7.812
30027WAT     H190323   3.360   7.459   7.776
30027WAT     H290324   3.517   7.470   7.735
30028WAT      O90325   7.964   9.142   5.004
30028WAT     H190326   7.885   9.180   4.956
30028WAT     H290327   8.027   9.102   4.937
30029WAT      O90328   0.363   9.532   1.044
30029WAT     H190329   0.299   9.460   1.017
30029WAT     H290330   0.403   9.509   1.133
30030WAT      O90331   2.399   9.349   5.197
30030WAT     H190332   2.347   9.335   5.112
30030WAT     H290333   2.379   9.440   5.234
30031WAT      O90334   9.781   3.737   7.089
30031WAT     H190335   9.699   3.775   7.132
30031WAT     H290336   9.766   3.640   7.069
30032WAT      O90337   4.516   5.560   3.838
30032WAT     H190338   4.596   5.605   3.880
30032WAT     H290339   4.524   5.564   3.739
30033WAT      O90340   0.244   5.901   6.614
30033WAT     H190341   0.305   5.878   6.689
30033WAT     H290342   0.276   5.856   6.530
30034WAT      O90343   5.220   4.271   3.281
30034WAT     H190344   5.199   4.234   3.371
30034WAT     H290345   5.282   4.349   3.291
30035WAT      O90346   1.104   3.974   9.383
30035WAT     H190347   1.067   3.906   9.446
30035WAT     H290348   1.046   3.981   9.302
30036WAT      O90349   7.957   2.194   4.418
30036WAT     H190350   7.927   2.152   4.333
30036WAT     H290351   7.985   2.289   4.400
30037WAT      O90352   2.957   2.603   6.029
30037WAT     H190353   3.050   2.605   6.065
30037WAT     H290354   2.949   2.529   5.962
30038WAT      O90355   2.443   4.220   4.811
30038WAT     H190356   2.440   4.124   4.836
30038WAT     H290357   2.538   4.253   4.814
30039WAT      O90358   9.481   5.891   2.838
30039WAT     H190359   9.441   5.981   2.821
30039WAT     H290360   9.528   5.891   2.926
30040WAT      O90361   6.239   0.226   1.474
30040WAT     H190362   6.286   0.235   1.386
30040WAT     H290363   6.246   0.131   1.505
30041WAT      O90364   1.388   3.584   3.962
30041WAT     H190365   1.351   3.677   3.959
30041WAT     H290366   1.321   3.522   4.004
30042WAT      O90367   2.662   9.264   1.068
30042WAT     H190368   2.682   9.251   0.971
30042WAT     H290369   2.662   9.362   1.089
30043WAT      O90370   8.841   0.782   9.612
30043WAT     H190371   8.830   0.823   9.703
30043WAT     H290372   8.937   0.787   9.584
30044WAT      O90373   8.177   7.023   4.791
30044WAT     H190374   8.258   7.001   4.737
30044WAT     H290375   8.156   6.948   4.853
30045WAT      O90376   6.321   6.027   5.249
30045WAT     H190377   6.260   5.949   5.230
30045WAT     H290378   6.380   6.043   5.170
30046WAT      O90379   4.762   9.823   1.138
30046WAT     H190380   4.774   9.922   1.145
30046WAT     H290381   4.684   9.803   1.078
30047WAT      O90382   5.947   2.865   1.072
30047WAT     H190383   5.929   2.767   1.064
30047WAT     H290384   6.011   2.894   1.001
30048WAT      O90385   4.705   5.268   6.809
30048WAT     H190386   4.658   5.323   6.739
30048WAT     H290387   4.804   5.281   6.799
30049WAT      O90388   3.047   6.220   8.830
30049WAT     H190389   3.068   6.314   8.859
30049WAT     H290390   3.132   6.171   8.812
30050WAT      O90391   4.315   4.425   0.824
30050WAT     H190392   4.342   4.427   0.728
30050WAT     H290393   4.267   4.510   0.847
30051WAT      O90394   5.560   6.250   0.010
30051WAT     H190395   5.546   6.346  -0.012
30051WAT     H290396   5.655   6.225  -0.008
30052WAT      O90397   7.943   2.289   3.644
30052WAT     H190398   7.944   2.387   3.624
30052WAT     H290399   7.980   2.240   3.565
30053WAT      O90400   2.616   1.999   3.576
30053WAT     H190401   2.575   2.090   3.564
30053WAT     H290402   2.702   2.008   3.626
30054WAT      O90403   8.912   6.560   1.514
30054WAT     H190404   8.940   6.586   1.422
30054WAT     H290405   8.979   6.496   1.553
30055WAT      O90406   8.720   7.090   1.562
30055WAT     H190407   8.784   7.015   1.549
30055WAT     H290408   8.770   7.176   1.565
30056WAT      O90409   9.758   4.994   3.380
30056WAT     H190410   9.789   5.084   3.410
30056WAT     H290411   9.832   4.949   3.329
30057WAT      O90412   8.489   1.752   2.622
30057WAT     H190413   8.514   1.811   2.699
30057WAT     H290414   8.424   1.682   2.652
30058WAT      O90415   0.105   5.255   1.080
30058WAT     H190416   0.131   5.164   1.045
30058WAT     H290417   0.187   5.313   1.082
30059WAT      O90418   3.994   4.286   6.196
30059WAT     H190419   4.013   4.235   6.111
30059WAT     H290420   3.943   4.369   6.174
30060WAT      O90421   5.268   1.712   1.221
30060WAT     H190422   5.331   1.773   1.270
30060WAT     H290423   5.320   1.644   1.170
30061WAT      O90424   6.802   4.030   0.229
30061WAT     H190425   6.840   4.072   0.311
30061WAT     H290426   6.785   3.933   0.247
30062WAT      O90427   5.692   6.168   3.110
30062WAT     H190428   5.605   6.207   3.139
30062WAT     H290429   5.686   6.069   3.108
30063WAT      O90430   0.075   8.606   5.643
30063WAT     H190431   0.070   8.605   5.544
30063WAT     H290432   0.163   8.644   5.672
30064WAT      O90433   5.217   9.269   5.195
30064WAT     H190434   5.206   9.306   5.102
30064WAT     H290435   5.302   9.303   5.235
30065WAT      O90436   9.869   2.404   6.554
30065WAT     H190437   9.778   2.428   6.520
30065WAT     H290438   9.936   2.468   6.518
30066WAT      O90439   4.873   9.720   9.267
30066WAT     H190440   4.891   9.752   9.361
30066WAT     H290441   4.879   9.621   9.264
30067WAT      O90442   9.379   9.466   6.437
30067WAT     H190443   9.464   9.465   6.490
30067WAT     H290444   9.387   9.403   6.360
30068WAT      O90445   1.253   9.426   2.383
30068WAT     H190446   1.197   9.417   2.300
30068WAT     H290447   1.335   9.480   2.362
30069WAT      O90448   9.452   8.721   5.447
30069WAT     H190449   9.458   8.779   5.528
30069WAT     H290450   9.517   8.753   5.378
30070WAT      O90451   2.889   6.790   1.828
30070WAT     H190452   2.940   6.706   1.849
30070WAT     H290453   2.891   6.850   1.908
30071WAT      O90454   5.180   6.768   4.640
30071WAT     H190455   5.137   6.730   4.558
30071WAT     H290456   5.140   6.857   4.661
30072WAT      O90457   0.777   4.792   6.511
30072WAT     H190458   0.766   4.831   6.420
30072WAT     H290459   0.744   4.857   6.580
30073WAT      O90460   5.304   1.557   3.322
30073WAT     H190461   5.360   1.489   3.275
30073WAT     H290462   5.281   1.631   3.258
30074WAT      O90463   5.149   1.834   8.153
30074WAT     H190464   5.175   1.921   8.195
30074WAT     H290465   5.220   1.806   8.088
30075WAT      O90466   9.183   3.128   7.711
30075WAT     H190467   9.206   3.117   7.808
30075WAT     H290468   9.096   3.083   7.691
30076WAT      O90469   0.947   3.846   4.133
30076WAT     H190470   0.927   3.943   4.137
30076WAT     H290471   0.928   3.812   4.041
30077WAT      O90472   6.024   5.438   1.344
30077WAT     H190473   6.060   5.354   1.303
30077WAT     H290474   5.929   5.450   1.317
30078WAT      O90475   2.893   5.883   1.484
30078WAT     H190476   2.952   5.928   1.551
30078WAT     H290477   2.822   5.831   1.531
30079WAT      O90478   1.344   4.650   1.687
30079WAT     H190479   1.310   4.714   1.618
30079WAT     H290480   1.286   4.569   1.689
30080WAT      O90481   1.250   0.137   7.194
30080WAT     H190482   1.279   0.232   7.206
30080WAT     H290483   1.325   0.083   7.156
30081WAT      O90484   3.299   1.741   2.794
30081WAT     H190485   3.253   1.657   2.821
30081WAT     H290486   3.235   1.798   2.741
30082WAT      O90487   4.529   3.420   4.048
30082WAT     H190488   4.574   3.330   4.048
30082WAT     H290489   4.579   3.482   3.988
30083WAT      O90490   9.500   8.669   4.732
30083WAT     H190491   9.471   8.652   4.637
30083WAT     H290492   9.573   8.737   4.733
30084WAT      O90493   7.238   9.224   2.383
30084WAT     H190494   7.242   9.224   2.483
30084WAT     H290495   7.330   9.221   2.346
30085WAT      O90496   5.842   0.249   0.934
30085WAT     H190497   5.857   0.337   0.887
30085WAT     H290498   5.825   0.266   1.031
30086WAT      O90499   5.665   5.234   1.611
30086WAT     H190500   5.669   5.175   1.691
30086WAT     H290501   5.570   5.247   1.583
30087WAT      O90502   7.724   3.823   2.262
30087WAT     H190503   7.626   3.824   2.284
30087WAT     H290504   7.754   3.916   2.242
30088WAT      O90505   0.799   2.524   6.223
30088WAT     H190506   0.892   2.556   6.204
30088WAT     H290507   0.801   2.457   6.297
30089WAT      O90508   6.968   2.327   0.825
30089WAT     H190509   6.963   2.402   0.759
30089WAT     H290510   7.063   2.314   0.854
30090WAT      O90511   3.707   3.953   8.108
30090WAT     H190512   3.688   3.914   8.017
30090WAT     H290513   3.796   3.999   8.106
30091WAT      O90514   6.222   0.869   1.206
30091WAT     H190515   6.237   0.775   1.237
30091WAT     H290516   6.308   0.905   1.169
30092WAT      O90517   4.415   9.104   7.495
30092WAT     H190518   4.342   9.089   7.428
30092WAT     H290519   4.499   9.062   7.463
30093WAT      O90520   0.671   6.832   2.357
30093WAT     H190521   0.657   6.894   2.434
30093WAT     H290522   0.768   6.832   2.332
30094WAT      O90523   5.470   3.366   2.034
30094WAT     H190524   5.546   3.303   2.027
30094WAT     H290525   5.384   3.315   2.036
30095WAT      O90526   8.792   3.245   0.956
30095WAT     H190527   8.851   3.314   0.998
30095WAT     H290528   8.764   3.179   1.026
30096WAT      O90529   7.828   4.889   9.121
30096WAT     H190530   7.731   4.899   9.098
30096WAT     H290531   7.861   4.802   9.085
30097WAT      O90532   2.492   9.058   4.862
30097WAT     H190533   2.454   8.967   4.876
30097WAT     H290534   2.445   9.102   4.785
30098WAT      O90535   5.685   7.892   2.390
30098WAT     H190536   5.666   7.856   2.299
30098WAT     H290537   5.745   7.829   2.440
30099WAT      O90538   4.325   3.393   6.270
30099WAT     H190539   4.326   3.385   6.171
30099WAT     H290540   4.314   3.302   6.311
30100WAT      O90541   9.425   6.099   1.698
30100WAT     H190542   9.461   6.112   1.605
30100WAT     H290543   9.491   6.049   1.753
30101WAT      O90544   4.939   5.500   7.983
30101WAT     H190545   5.024   5.552   7.996
30101WAT     H290546   4.962   5.406   7.956
30102WAT      O90547   9.670   9.024   1.246
30102WAT     H190548   9.698   9.064   1.333
30102WAT     H290549   9.732   9.052   1.173
30103WAT      O90550   6.190   5.626   5.336
30103WAT     H190551   6.165   5.709   5.287
30103WAT     H290552   6.278   5.593   5.303
30104WAT      O90553   2.524   7.418   8.201
30104WAT     H190554   2.497   7.514   8.196
30104WAT     H290555   2.468   7.365   8.138
30105WAT      O90556   1.735   9.030   0.771
30105WAT     H190557   1.725   9.000   0.866
30105WAT     H290558   1.817   9.086   0.762
30106WAT      O90559   6.851   0.700   9.241
30106WAT     H190560   6.877   0.797   9.246
30106WAT     H290561   6.818   0.679   9.149
30107WAT      O90562   5.842   9.433   3.252
30107WAT     H190563   5.799   9.434   3.342
30107WAT     H290564   5.824   9.346   3.206
30108WAT      O90565   0.195   6.895   6.491
30108WAT     H190566   0.285   6.863   6.460
30108WAT     H290567   0.206   6.949   6.574
30109WAT      O90568   9.191   0.532   2.205
30109WAT     H190569   9.094   0.545   2.229
30109WAT     H290570   9.242   0.616   2.226
30110WAT      O90571   7.929   3.542   0.557
30110WAT     H190572   7.863   3.594   0.504
30110WAT     H290573   7.886   3.459   0.593
30111WAT      O90574   4.407   1.131   8.129
30111WAT     H190575   4.433   1.121   8.226
30111WAT     H290576   4.363   1.219   8.116
30112WAT      O90577   7.498   2.760   4.068
30112WAT     H190578   7.429   2.707   4.018
30112WAT     H290579   7.577   2.702   4.086
30113WAT      O90580   0.568   3.448   2.667
30113WAT     H190581   0.513   3.406   2.595
30113WAT     H290582   0.512   3.511   2.721
30114WAT      O90583   7.172   6.195   8.322
30114WAT     H190584   7.122   6.109   8.321
30114WAT     H290585   7.175   6.231   8.415
30115WAT      O90586   8.613   3.640   9.790
30115WAT     H190587   8.711   3.654   9.774
30115WAT     H290588   8.590   3.668   9.883
30116WAT      O90589   3.782   9.250   9.180
30116WAT     H190590   3.798   9.189   9.258
30116WAT     H290591   3.869   9.271   9.136
30117WAT      O90592   0.190   3.872   5.590
30117WAT     H190593   0.199   3.793   5.528
30117WAT     H290594   0.229   3.953   5.546
30118WAT      O90595   0.094   4.297   7.691
30118WAT     H190596   0.073   4.374   7.632
30118WAT     H290597   0.013   4.239   7.700
30119WAT      O90598   5.897   3.072   2.699
30119WAT     H190599   5.869   3.131   2.775
30119WAT     H290600   5.996   3.064   2.699
30120WAT      O90601   2.029   2.687   4.790
30120WAT     H190602   2.119   2.657   4.822
30120WAT     H290603   1.973   2.606   4.768
30121WAT      O90604   2.140   3.245   6.747
30121WAT     H190605   2.102   3.183   6.817
30121WAT     H290606   2.099   3.336   6.757
30122WAT      O90607   5.706   8.688   2.506
30122WAT     H190608   5.771   8.724   2.573
30122WAT     H290609   5.637   8.634   2.554
30123WAT      O90610   9.849   6.236   4.787
30123WAT     H190611   9.915   6.238   4.862
30123WAT     H290612   9.756   6.242   4.824
30124WAT      O90613   4.783   5.727   6.187
30124WAT     H190614   4.774   5.638   6.142
30124WAT     H290615   4.870   5.768   6.162
30125WAT      O90616   6.065   5.982   6.488
30125WAT     H190617   6.124   5.983   6.407
30125WAT     H290618   6.009   6.064   6.489
30126WAT      O90619   5.052   7.666   4.787
30126WAT     H190620   5.004   7.747   4.753
30126WAT     H290621   4.988   7.607   4.835
30127WAT      O90622   2.325   3.875   9.868
30127WAT     H190623   2.393   3.904   9.801
30127WAT     H290624   2.339   3.926   9.953
30128WAT      O90625   0.734   5.862   0.966
30128WAT     H190626   0.763   5.936   1.028
30128WAT     H290627   0.757   5.774   1.006
30129WAT      O90628   4.147   8.866   0.947
30129WAT     H190629   4.243   8.880   0.973
30129WAT     H290630   4.142   8.838   0.851
30130WAT      O90631   4.857   2.663   6.483
30130WAT     H190632   4.849   2.596   6.556
30130WAT     H290633   4.885   2.618   6.398
30131WAT      O90634   3.300   5.701   6.345
30131WAT     H190635   3.304   5.607   6.311
30131WAT     H290636   3.375   5.716   6.409
30132WAT      O90637   8.737   6.713   6.226
30132WAT     H190638   8.666   6.679   6.288
30132WAT     H290639   8.763   6.641   6.163
30133WAT      O90640   3.266   1.603   8.841
30133WAT     H190641   3.266   1.702   8.850
30133WAT     H290642   3.175   1.568   8.861
30134WAT      O90643   4.982   1.077   7.151
30134WAT     H190644   4.916   1.060   7.078
30134WAT     H290645   5.073   1.049   7.121
30135WAT      O90646   6.156   2.539   3.796
30135WAT     H190647   6.250   2.564   3.822
30135WAT     H290648   6.092   2.600   3.842
30136WAT      O90649   3.369   4.237   4.867
30136WAT     H190650   3.432   4.188   4.927
30136WAT     H290651   3.422   4.288   4.798
30137WAT      O90652   0.490   3.779   9.481
30137WAT     H190653   0.527   3.730   9.402
30137WAT     H290654   0.565   3.822   9.531
30138WAT      O90655   0.274   3.339   8.234
30138WAT     H190656   0.285   3.400   8.312
30138WAT     H290657   0.261   3.245   8.266
30139WAT      O90658   6.276   6.268   8.417
30139WAT     H190659   6.367   6.255   8.457
30139WAT     H290660   6.240   6.357   8.446
30140WAT      O90661   7.088   1.381   8.975
30140WAT     H190662   7.139   1.380   9.062
30140WAT     H290663   7.131   1.446   8.913
30141WAT      O90664   0.008   4.605   0.249
30141WAT     H190665   0.096   4.562   0.269
30141WAT     H290666   0.007   4.635   0.154
30142WAT      O90667   1.198   9.599   3.248
30142WAT     H190668   1.157   9.537   3.180
30142WAT     H290669   1.182   9.562   3.340
30143WAT      O90670   3.833   4.286   4.571
30143WAT     H190671   3.901   4.231   4.523
30143WAT     H290672   3.858   4.294   4.667
30144WAT      O90673   0.733   1.999   5.807
30144WAT     H190674   0.812   2.023   5.750
30144WAT     H290675   0.650   2.003   5.753
30145WAT      O90676   0.316   5.845   7.890
30145WAT     H190677   0.305   5.879   7.983
30145WAT     H290678   0.380   5.768   7.890
30146WAT      O90679   3.578   8.788   8.365
30146WAT     H190680   3.529   8.784   8.452
30146WAT     H290681   3.549   8.869   8.314
30147WAT      O90682   5.600   0.290   8.589
30147WAT     H190683   5.675   0.298   8.654
30147WAT     H290684   5.636   0.268   8.499
30148WAT      O90685   9.823   8.378   4.545
30148WAT     H190686   9.837   8.475   4.529
30148WAT     H290687   9.787   8.336   4.462
30149WAT      O90688   3.442   7.375   6.570
30149WAT     H190689   3.529   7.331   6.594
30149WAT     H290690   3.409   7.427   6.649
30150WAT      O90691   7.348   0.812   0.710
30150WAT     H190692   7.436   0.831   0.667
30150WAT     H290693   7.290   0.760   0.647
30151WAT      O90694   0.135   3.890   9.664
30151WAT     H190695   0.126   3.962   9.734
30151WAT     H290696   0.065   3.821   9.679
30152WAT      O90697   4.264   1.661   7.545
30152WAT     H190698   4.247   1.606   7.464
30152WAT     H290699   4.226   1.615   7.626
30153WAT      O90700   1.412   6.789   5.286
30153WAT     H190701   1.428   6.715   5.351
30153WAT     H290702   1.336   6.846   5.318
30154WAT      O90703   1.462   5.602   4.958
30154WAT     H190704   1.557   5.621   4.984
30154WAT     H290705   1.425   5.679   4.906
30155WAT      O90706   0.579   4.156   0.234
30155WAT     H190707   0.649   4.116   0.294
30155WAT     H290708   0.554   4.090   0.164
30156WAT      O90709   3.903   7.692   5.767
30156WAT     H190710   3.869   7.739   5.849
30156WAT     H290711   3.914   7.595   5.787
30157WAT      O90712   0.765   7.353   3.635
30157WAT     H190713   0.708   7.435   3.634
30157WAT     H290714   0.737   7.292   3.561
30158WAT      O90715   6.204   3.804   4.099
30158WAT     H190716   6.258   3.833   4.178
30158WAT     H290717   6.142   3.878   4.072
30159WAT      O90718   5.212   0.417   9.362
30159WAT     H190719   5.259   0.471   9.292
30159WAT     H290720   5.278   0.391   9.433
30160WAT      O90721   0.321   4.418   3.080
30160WAT     H190722   0.229   4.453   3.063
30160WAT     H290723   0.332   4.397   3.177
30161WAT      O90724   0.138   6.893   9.458
30161WAT     H190725   0.111   6.986   9.435
30161WAT     H290726   0.170   6.846   9.375
30162WAT      O90727   6.839   7.581   5.866
30162WAT     H190728   6.784   7.649   5.819
30162WAT     H290729   6.932   7.616   5.879
30163WAT      O90730   5.301   3.891   9.468
30163WAT     H190731   5.373   3.860   9.530
30163WAT     H290732   5.214   3.848   9.493
30164WAT      O90733   7.053   7.346   3.723
30164WAT     H190734   6.972   7.291   3.738
30164WAT     H290735   7.123   7.291   3.678
30165WAT      O90736   5.764   2.879   3.241
30165WAT     H190737   5.777   2.793   3.290
30165WAT     H290738   5.752   2.860   3.143
30166WAT      O90739   6.108   0.908   4.511
30166WAT     H190740   6.023   0.900   4.563
30166WAT     H290741   6.162   0.825   4.522
30167WAT      O90742   5.059   3.413   6.736
30167WAT     H190743   5.016   3.492   6.692
30167WAT     H290744   5.020   3.329   6.698
30168WAT      O90745   7.821   4.972   0.328
30168WAT     H190746   7.879   5.053   0.316
30168WAT     H290747   7.786   4.943   0.239
30169WAT      O90748   4.114   0.068   5.446
30169WAT     H190749   4.154   0.156   5.423
30169WAT     H290750   4.094   0.017   5.363
30170WAT      O90751   7.367   6.945   0.599
30170WAT     H190752   7.358   6.846   0.584
30170WAT     H290753   7.463   6.971   0.591
30171WAT      O90754   4.855   0.438   2.865
30171WAT     H190755   4.782   0.460   2.929
30171WAT     H290756   4.866   0.339   2.858
30172WAT      O90757   5.891   2.657   8.324
30172WAT     H190758   5.963   2.617   8.380
30172WAT     H290759   5.922   2.744   8.285
30173WAT      O90760   1.627   4.514   0.345
30173WAT     H190761   1.638   4.446   0.272
30173WAT     H290762   1.530   4.529   0.362
30174WAT      O90763   8.031   7.599   8.054
30174WAT     H190764   8.122   7.640   8.042
30174WAT     H290765   7.971   7.664   8.100
30175WAT      O90766   6.419   2.829   0.535
30175WAT     H190767   6.498   2.886   0.512
30175WAT     H290768   6.347   2.886   0.575
30176WAT      O90769   1.733   4.796   6.740
30176WAT     H190770   1.647   4.834   6.707
30176WAT     H290771   1.808   4.833   6.686
30177WAT      O90772   2.655   8.943   1.541
30177WAT     H190773   2.556   8.954   1.546
30177WAT     H290774   2.679   8.849   1.564
30178WAT      O90775   7.241   3.670   0.174
30178WAT     H190776   7.152   3.644   0.213
30178WAT     H290777   7.248   3.770   0.171
30179WAT      O90778   3.051   9.491   4.598
30179WAT     H190779   3.092   9.400   4.598
30179WAT     H290780   3.113   9.556   4.554
30180WAT      O90781   9.058   2.208   9.589
30180WAT     H190782   9.002   2.125   9.595
30180WAT     H290783   9.099   2.228   9.678
30181WAT      O90784   5.373   6.228   6.918
30181WAT     H190785   5.400   6.315   6.959
30181WAT     H290786   5.372   6.157   6.988
30182WAT      O90787   3.303   9.379   1.809
30182WAT     H190788   3.365   9.340   1.741
30182WAT     H290789   3.218   9.326   1.810
30183WAT      O90790   0.637   5.001   6.095
30183WAT     H190791   0.658   4.935   6.022
30183WAT     H290792   0.706   4.995   6.166
30184WAT      O90793   3.283   6.398   1.091
30184WAT     H190794   3.347   6.457   1.042
30184WAT     H290795   3.302   6.302   1.069
30185WAT      O90796   7.942   9.319   0.200
30185WAT     H190797   7.865   9.365   0.155
30185WAT     H290798   7.916   9.226   0.224
30186WAT      O90799   1.168   0.288   0.255
30186WAT     H190800   1.187   0.296   0.158
30186WAT     H290801   1.208   0.365   0.304
30187WAT      O90802   6.624   7.517   6.512
30187WAT     H190803   6.525   7.526   6.507
30187WAT     H290804   6.653   7.439   6.455
30188WAT      O90805   7.781   4.064   8.924
30188WAT     H190806   7.754   4.128   8.996
30188WAT     H290807   7.709   3.995   8.913
30189WAT      O90808   7.895   6.282   0.093
30189WAT     H190809   7.893   6.231   0.179
30189WAT     H290810   7.812   6.263   0.042
30190WAT      O90811   4.110   7.720   0.698
30190WAT     H190812   4.209   7.707   0.708
30190WAT     H290813   4.084   7.810   0.732
30191WAT      O90814   3.400   7.659   7.990
30191WAT     H190815   3.447   7.587   7.938
30191WAT     H290816   3.324   7.618   8.040
30192WAT      O90817   8.682   8.120   7.757
30192WAT     H190818   8.619   8.048   7.728
30192WAT     H290819   8.661   8.147   7.851
30193WAT      O90820   0.894   8.019   0.800
30193WAT     H190821   0.950   8.032   0.883
30193WAT     H290822   0.807   7.976   0.825
30194WAT      O90823   7.704   1.255   2.405
30194WAT     H190824   7.624   1.249   2.345
30194WAT     H290825   7.749   1.165   2.410
30195WAT      O90826   3.209   1.205   7.961
30195WAT     H190827   3.239   1.279   8.021
30195WAT     H290828   3.109   1.202   7.961
30196WAT      O90829   7.288   2.680   3.854
30196WAT     H190830   7.211   2.618   3.844
30196WAT     H290831   7.277   2.757   3.791
30197WAT      O90832   9.842   7.141   8.200
30197WAT     H190833   9.905   7.119   8.275
30197WAT     H290834   9.867   7.228   8.159
30198WAT      O90835   8.082   1.789   1.391
30198WAT     H190836   8.071   1.886   1.413
30198WAT     H290837   8.110   1.780   1.295
30199WAT      O90838   9.497   6.061   3.810
30199WAT     H190839   9.424   6.086   3.873
30199WAT     H290840   9.585   6.095   3.845
30200WAT      O90841   2.311   0.464   8.464
30200WAT     H190842   2.301   0.439   8.560
30200WAT     H290843   2.268   0.553   8.448
30201WAT      O90844   7.944   1.037   6.362
30201WAT     H190845   7.877   1.027   6.435
30201WAT     H290846   7.897   1.032   6.273
30202WAT      O90847   8.256   3.770   5.356
30202WAT     H190848   8.183   3.716   5.397
30202WAT     H290849   8.344   3.725   5.372
30203WAT      O90850   6.068   6.390   1.554
30203WAT     H190851   6.107   6.375   1.463
30203WAT     H290852   6.119   6.336   1.621
30204WAT      O90853   3.703   9.696   7.937
30204WAT     H190854   3.782   9.753   7.913
30204WAT     H290855   3.724   9.600   7.918
30205WAT      O90856   3.453   4.899   4.218
30205WAT     H190857   3.528   4.866   4.161
30205WAT     H290858   3.434   4.832   4.290
30206WAT      O90859   1.638   1.930   6.322
30206WAT     H190860   1.572   1.917   6.396
30206WAT     H290861   1.692   2.013   6.339
30207WAT      O90862   9.142   4.058   8.532
30207WAT     H190863   9.174   3.963   8.531
30207WAT     H290864   9.048   4.061   8.566
30208WAT      O90865   4.584   1.083   0.367
30208WAT     H190866   4.510   1.018   0.346
30208WAT     H290867   4.671   1.034   0.368
30209WAT      O90868   2.883   7.701   9.211
30209WAT     H190869   2.925   7.791   9.200
30209WAT     H290870   2.942   7.644   9.269
30210WAT      O90871   8.293   8.950   9.716
30210WAT     H190872   8.342   8.908   9.793
30210WAT     H290873   8.343   9.030   9.685
30211WAT      O90874   8.773   7.147   9.729
30211WAT     H190875   8.776   7.082   9.805
30211WAT     H290876   8.785   7.240   9.765
30212WAT      O90877   7.627   1.326   9.292
30212WAT     H190878   7.603   1.421   9.270
30212WAT     H290879   7.543   1.274   9.310
30213WAT      O90880   6.113   2.495   9.248
30213WAT     H190881   6.064   2.579   9.224
30213WAT     H290882   6.113   2.433   9.169
30214WAT      O90883   5.637   0.723   2.783
30214WAT     H190884   5.588   0.694   2.865
30214WAT     H290885   5.736   0.715   2.798
30215WAT      O90886   2.251   8.170   8.965
30215WAT     H190887   2.207   8.232   8.901
30215WAT     H290888   2.225   8.076   8.944
30216WAT      O90889   6.008   9.371   9.088
30216WAT     H190890   6.100   9.330   9.083
30216WAT     H290891   5.973   9.360   9.181
30217WAT      O90892   2.030   7.419   3.372
30217WAT     H190893   2.125   7.390   3.383
30217WAT     H290894   1.999   7.400   3.279
30218WAT      O90895   1.164   4.199   1.159
30218WAT     H190896   1.258   4.186   1.190
30218WAT     H290897   1.145   4.136   1.084
30219WAT      O90898   4.243   2.479   7.189
30219WAT     H190899   4.331   2.496   7.234
30219WAT     H290900   4.179   2.441   7.255
30220WAT      O90901   5.485   1.528   6.973
30220WAT     H190902   5.409   1.535   6.909
30220WAT     H290903   5.558   1.472   6.933
30221WAT      O90904   5.158   0.726   8.991
30221WAT     H190905   5.165   0.697   8.896
30221WAT     H290906   5.075   0.779   9.003
30222WAT      O90907   1.819   5.524   1.372
30222WAT     H190908   1.754   5.528   1.296
30222WAT     H290909   1.790   5.455   1.438
30223WAT      O90910   6.674   1.728   6.953
30223WAT     H190911   6.606   1.783   7.002
30223WAT     H290912   6.673   1.634   6.988
30224WAT      O90913   8.003   1.513   5.313
30224WAT     H190914   8.033   1.462   5.394
30224WAT     H290915   8.046   1.604   5.314
30225WAT      O90916   4.748   2.338   3.059
30225WAT     H190917   4.777   2.433   3.047
30225WAT     H290918   4.815   2.277   3.017
30226WAT      O90919   0.115   2.793   5.689
30226WAT     H190920   0.079   2.871   5.740
30226WAT     H290921   0.190   2.751   5.740
30227WAT      O90922   1.594   2.073   3.643
30227WAT     H190923   1.548   2.161   3.629
30227WAT     H290924   1.648   2.078   3.728
30228WAT      O90925   0.498   5.671   3.481
30228WAT     H190926   0.504   5.749   3.419
30228WAT     H290927   0.576   5.673   3.544
30229WAT      O90928   5.887   0.699   6.992
30229WAT     H190929   5.881   0.600   7.002
30229WAT     H290930   5.914   0.721   6.898
30230WAT      O90931   4.068   5.568   5.864
30230WAT     H190932   4.071   5.471   5.889
30230WAT     H290933   4.028   5.621   5.939
30231WAT      O90934   1.653   4.490   8.549
30231WAT     H190935   1.630   4.396   8.522
30231WAT     H290936   1.744   4.492   8.590
30232WAT      O90937   5.066   2.890   1.705
30232WAT     H190938   5.051   2.928   1.614
30232WAT     H290939   5.123   2.808   1.698
30233WAT      O90940   5.802   4.231   6.662
30233WAT     H190941   5.883   4.266   6.708
30233WAT     H290942   5.790   4.134   6.685
30234WAT      O90943   5.843   4.521   3.624
30234WAT     H190944   5.764   4.573   3.655
30234WAT     H290945   5.843   4.515   3.524
30235WAT      O90946   7.806   8.443   9.481
30235WAT     H190947   7.881   8.467   9.542
30235WAT     H290948   7.792   8.517   9.415
30236WAT      O90949   9.211   7.903   0.083
30236WAT     H190950   9.304   7.870   0.067
30236WAT     H290951   9.195   7.986   0.028
30237WAT      O90952   5.777   9.576   2.730
30237WAT     H190953   5.866   9.621   2.717
30237WAT     H290954   5.792   9.484   2.766
30238WAT      O90955   3.453   5.844   8.794
30238WAT     H190956   3.465   5.796   8.707
30238WAT     H290957   3.450   5.777   8.868
30239WAT      O90958   4.131   1.785   0.252
30239WAT     H190959   4.130   1.800   0.350
30239WAT     H290960   4.158   1.690   0.232
30240WAT      O90961   2.702   7.146   5.906
30240WAT     H190962   2.657   7.231   5.936
30240WAT     H290963   2.633   7.084   5.870
30241WAT      O90964   7.068   6.760   1.129
30241WAT     H190965   7.034   6.848   1.096
30241WAT     H290966   7.041   6.748   1.225
30242WAT      O90967   0.679   1.439   5.947
30242WAT     H190968   0.597   1.393   5.913
30242WAT     H290969   0.655   1.530   5.980
30243WAT      O90970   1.664   8.675   4.882
30243WAT     H190971   1.584   8.715   4.927
30243WAT     H290972   1.747   8.718   4.919
30244WAT      O90973   4.481   4.512   5.271
30244WAT     H190974   4.524   4.602   5.278
30244WAT     H290975   4.527   4.457   5.201
30245WAT      O90976   2.339   0.152   4.615
30245WAT     H190977   2.354   0.168   4.712
30245WAT     H290978   2.392   0.072   4.585
30246WAT      O90979   0.268   6.838   6.896
30246WAT     H190980   0.228   6.869   6.982
30246WAT     H290981   0.273   6.914   6.831
30247WAT      O90982   2.038   5.306   7.557
30247WAT     H190983   2.093   5.269   7.631
30247WAT     H290984   1.952   5.255   7.549
30248WAT      O90985   7.515   7.897   4.900
30248WAT     H190986   7.603   7.895   4.947
30248WAT     H290987   7.443   7.925   4.964
30249WAT      O90988   6.240   6.797   1.876
30249WAT     H190989   6.339   6.785   1.867
30249WAT     H290990   6.201   6.717   1.922
30250WAT      O90991   2.245   0.062   1.512
30250WAT     H190992   2.203   0.015   1.590
30250WAT     H290993   2.221   0.014   1.427
30251WAT      O90994   7.926   4.355   4.047
30251WAT     H190995   7.831   4.328   4.033
30251WAT     H290996   7.967   4.379   3.958
30252WAT      O90997   8.237   0.188   3.757
30252WAT     H190998   8.334   0.179   3.738
30252WAT     H290999   8.214   0.285   3.768
30253WAT      O91000   6.936   7.726   0.689
30253WAT     H191001   6.967   7.631   0.685
30253WAT     H291002   6.847   7.734   0.645
30254WAT      O91003   7.931   7.310   5.698
30254WAT     H191004   7.891   7.238   5.640
30254WAT     H291005   8.009   7.273   5.748
30255WAT      O91006   9.121   9.560   2.110
30255WAT     H191007   9.151   9.655   2.122
30255WAT     H291008   9.122   9.537   2.012
30256WAT      O91009   2.473   5.642   8.076
30256WAT     H191010   2.553   5.670   8.129
30256WAT     H291011   2.391   5.647   8.134
30257WAT      O91012   9.422   0.481   8.735
30257WAT     H191013   9.414   0.391   8.779
30257WAT     H291014   9.414   0.469   8.636
30258WAT      O91015   7.917   2.146   4.164
30258WAT     H191016   7.997   2.118   4.111
30258WAT     H291017   7.834   2.125   4.114
30259WAT      O91018   6.504   1.452   0.302
30259WAT     H191019   6.424   1.511   0.288
30259WAT     H291020   6.481   1.380   0.368
30260WAT      O91021   6.022   1.587   4.047
30260WAT     H191022   5.944   1.571   3.987
30260WAT     H291023   6.041   1.504   4.100
30261WAT      O91024   9.353   7.444   4.968
30261WAT     H191025   9.409   7.377   5.016
30261WAT     H291026   9.411   7.501   4.909
30262WAT      O91027   7.436   1.871   4.234
30262WAT     H191028   7.390   1.796   4.186
30262WAT     H291029   7.387   1.956   4.218
30263WAT      O91030   3.689   2.981   2.599
30263WAT     H191031   3.614   3.037   2.636
30263WAT     H291032   3.674   2.966   2.502
30264WAT      O91033   8.539   6.797   3.143
30264WAT     H191034   8.602   6.853   3.089
30264WAT     H291035   8.524   6.710   3.097
30265WAT      O91036   3.575   3.241   2.711
30265WAT     H191037   3.483   3.247   2.751
30265WAT     H291038   3.641   3.216   2.782
30266WAT      O91039   6.484   3.602   0.063
30266WAT     H191040   6.517   3.530   0.125
30266WAT     H291041   6.406   3.649   0.106
30267WAT      O91042   2.581   5.008   5.171
30267WAT     H191043   2.633   5.093   5.157
30267WAT     H291044   2.543   5.007   5.263
30268WAT      O91045   1.753   6.968   3.782
30268WAT     H191046   1.822   7.004   3.719
30268WAT     H291047   1.732   6.874   3.759
30269WAT      O91048   7.674   6.382   8.220
30269WAT     H191049   7.583   6.410   8.188
30269WAT     H291050   7.728   6.351   8.142
30270WAT      O91051   5.743   4.184   8.394
30270WAT     H191052   5.774   4.180   8.299
30270WAT     H291053   5.697   4.099   8.418
30271WAT      O91054   1.888   3.540   6.296
30271WAT     H191055   1.987   3.554   6.295
30271WAT     H291056   1.862   3.486   6.216
30272WAT      O91057   3.283   7.599   2.732
30272WAT     H191058   3.263   7.677   2.673
30272WAT     H291059   3.299   7.518   2.676
30273WAT      O91060   0.570   3.882   5.886
30273WAT     H191061   0.473   3.898   5.866
30273WAT     H291062   0.609   3.963   5.930
30274WAT      O91063   0.342   2.061   7.819
30274WAT     H191064   0.285   2.008   7.882
30274WAT     H291065   0.324   2.032   7.725
30275WAT      O91066   7.914   5.883   2.221
30275WAT     H191067   7.914   5.906   2.123
30275WAT     H291068   7.896   5.786   2.233
30276WAT      O91069   4.435   7.152   8.209
30276WAT     H191070   4.411   7.238   8.253
30276WAT     H291071   4.385   7.077   8.253
30277WAT      O91072   0.114   0.199   9.438
30277WAT     H191073   0.178   0.247   9.498
30277WAT     H291074   0.160   0.123   9.393
30278WAT      O91075   4.135   3.271   6.677
30278WAT     H191076   4.083   3.187   6.660
30278WAT     H291077   4.103   3.312   6.763
30279WAT      O91078   0.636   6.983   2.607
30279WAT     H191079   0.559   7.039   2.576
30279WAT     H291080   0.609   6.933   2.689
30280WAT      O91081   4.318   6.804   3.401
30280WAT     H191082   4.317   6.788   3.303
30280WAT     H291083   4.411   6.825   3.431
30281WAT      O91084   8.378   4.596   8.959
30281WAT     H191085   8.452   4.565   9.018
30281WAT     H291086   8.318   4.658   9.011
30282WAT      O91087   5.342   9.694   5.606
30282WAT     H191088   5.387   9.743   5.532
30282WAT     H291089   5.243   9.690   5.587
30283WAT      O91090   5.614   4.854   7.838
30283WAT     H191091   5.643   4.884   7.747
30283WAT     H291092   5.668   4.901   7.907
30284WAT      O91093   4.369   7.601   1.666
30284WAT     H191094   4.289   7.542   1.658
30284WAT     H291095   4.452   7.545   1.674
30285WAT      O91096   9.567   7.608   4.858
30285WAT     H191097   9.571   7.707   4.875
30285WAT     H291098   9.652   7.566   4.889
30286WAT      O91099   0.579   3.430   6.938
30286WAT     H191100   0.651   3.364   6.960
30286WAT     H291101   0.621   3.519   6.919
30287WAT      O91102   3.193   7.833   5.420
30287WAT     H191103   3.199   7.925   5.380
30287WAT     H291104   3.127   7.779   5.369
30288WAT      O91105   3.162   2.014   5.076
30288WAT     H191106   3.110   2.030   5.160
30288WAT     H291107   3.213   2.097   5.053
30289WAT      O91108   8.876   1.554   4.523
30289WAT     H191109   8.819   1.632   4.497
30289WAT     H291110   8.827   1.497   4.589
30290WAT      O91111   2.687   9.536   1.160
30290WAT     H191112   2.766   9.572   1.208
30290WAT     H291113   2.611   9.601   1.165
30291WAT      O91114   9.893   1.815   5.363
30291WAT     H191115   9.916   1.910   5.342
30291WAT     H291116   9.797   1.799   5.343
30292WAT      O91117   3.777   1.389   3.216
30292WAT     H191118   3.763   1.319   3.145
30292WAT     H291119   3.772   1.479   3.174
30293WAT      O91120   0.260   6.463   7.504
30293WAT     H191121   0.174   6.440   7.550
30293WAT     H291122   0.302   6.542   7.550
30294WAT      O91123   9.135   4.269   7.116
30294WAT     H191124   9.170   4.363   7.112
30294WAT     H291125   9.158   4.222   7.031
30295WAT      O91126   9.346   3.707   6.036
30295WAT     H191127   9.360   3.798   5.998
30295WAT     H291128   9.332   3.713   6.135
30296WAT      O91129   8.190   7.400   0.405
30296WAT     H191130   8.287   7.421   0.394
30296WAT     H291131   8.146   7.392   0.316
30297WAT      O91132   2.428   8.730   9.772
30297WAT     H191133   2.468   8.758   9.859
30297WAT     H291134   2.406   8.632   9.776
30298WAT      O91135   1.128   0.921   0.981
30298WAT     H191136   1.167   0.989   0.919
30298WAT     H291137   1.111   0.836   0.932
30299WAT      O91138   7.456   0.634   2.836
30299WAT     H191139   7.466   0.732   2.823
30299WAT     H291140   7.408   0.616   2.922
30300WAT      O91141   0.492   8.104   5.434
30300WAT     H191142   0.393   8.096   5.420
30300WAT     H291143   0.510   8.132   5.528
30301WAT      O91144   8.557   7.960   7.249
30301WAT     H191145   8.552   7.978   7.151
30301WAT     H291146   8.591   8.042   7.296
30302WAT      O91147   5.388   4.066   2.186
30302WAT     H191148   5.410   3.978   2.144
30302WAT     H291149   5.460   4.090   2.252
30303WAT      O91150   3.407   7.515   0.807
30303WAT     H191151   3.422   7.481   0.715
30303WAT     H291152   3.368   7.443   0.864
30304WAT      O91153   0.779   5.171   8.666
30304WAT     H191154   0.768   5.157   8.568
30304WAT     H291155   0.816   5.088   8.708
30305WAT      O91156   1.633   2.473   9.735
30305WAT     H191157   1.676   2.420   9.662
30305WAT     H291158   1.612   2.565   9.702
30306WAT      O91159   6.400   8.057   7.119
30306WAT     H191160   6.402   8.109   7.033
30306WAT     H291161   6.457   8.104   7.187
30307WAT      O91162   7.137   5.425   6.633
30307WAT     H191163   7.062   5.398   6.574
30307WAT     H291164   7.107   5.424   6.729
30308WAT      O91165   3.156   5.654   9.283
30308WAT     H191166   3.114   5.716   9.349
30308WAT     H291167   3.090   5.585   9.255
30309WAT      O91168   3.409   8.067   1.587
30309WAT     H191169   3.416   8.118   1.501
30309WAT     H291170   3.315   8.072   1.620
30310WAT      O91171   6.860   4.838   1.739
30310WAT     H191172   6.945   4.854   1.689
30310WAT     H291173   6.865   4.882   1.829
30311WAT      O91174   5.590   7.341   8.941
30311WAT     H191175   5.619   7.296   8.857
30311WAT     H291176   5.599   7.440   8.931
30312WAT      O91177   5.346   9.014   1.790
30312WAT     H191178   5.387   8.952   1.857
30312WAT     H291179   5.399   9.098   1.786
30313WAT      O91180   6.240   3.494   2.341
30313WAT     H191181   6.257   3.578   2.393
30313WAT     H291182   6.150   3.501   2.297
30314WAT      O91183   9.059   5.337   0.050
30314WAT     H191184   8.999   5.287  -0.013
30314WAT     H291185   9.069   5.285   0.134
30315WAT      O91186   9.325   4.315   3.957
30315WAT     H191187   9.319   4.226   4.002
30315WAT     H291188   9.346   4.303   3.860
30316WAT      O91189   6.837   7.391   2.533
30316WAT     H191190   6.758   7.448   2.514
30316WAT     H291191   6.841   7.371   2.631
30317WAT      O91192   2.467   5.793   0.501
30317WAT     H191193   2.407   5.781   0.422
30317WAT     H291194   2.563   5.792   0.472
30318WAT      O91195   6.278   5.494   3.258
30318WAT     H191196   6.284   5.572   3.196
30318WAT     H291197   6.192   5.445   3.244
30319WAT      O91198   8.006   5.933   9.373
30319WAT     H191199   8.014   5.923   9.472
30319WAT     H291200   7.925   5.987   9.351
30320WAT      O91201   4.538   6.165   9.880
30320WAT     H191202   4.527   6.074   9.919
30320WAT     H291203   4.524   6.234   9.951
30321WAT      O91204   3.297   0.062   3.917
30321WAT     H191205   3.287   0.072   4.016
30321WAT     H291206   3.209   0.082   3.872
30322WAT      O91207   1.660   5.463   6.617
30322WAT     H191208   1.666   5.457   6.517
30322WAT     H291209   1.591   5.399   6.650
30323WAT      O91210   1.919   7.668   7.909
30323WAT     H191211   1.867   7.676   7.824
30323WAT     H291212   2.006   7.621   7.891
30324WAT      O91213   3.172   0.422   8.437
30324WAT     H191214   3.264   0.463   8.441
30324WAT     H291215   3.178   0.329   8.401
30325WAT      O91216   8.670   1.746   7.686
30325WAT     H191217   8.721   1.718   7.767
30325WAT     H291218   8.649   1.844   7.692
30326WAT      O91219   8.401   9.426   0.262
30326WAT     H191220   8.489   9.395   0.227
30326WAT     H291221   8.374   9.370   0.341
30327WAT      O91222   7.756   4.753   7.186
30327WAT     H191223   7.751   4.733   7.283
30327WAT     H291224   7.732   4.672   7.133
30328WAT      O91225   4.046   4.167   7.203
30328WAT     H191226   4.047   4.216   7.290
30328WAT     H291227   3.981   4.091   7.208
30329WAT      O91228   2.313   2.092   5.355
30329WAT     H191229   2.247   2.020   5.376
30329WAT     H291230   2.359   2.071   5.269
30330WAT      O91231   7.824   7.578   2.705
30330WAT     H191232   7.782   7.549   2.619
30330WAT     H291233   7.867   7.668   2.692
30331WAT      O91234   6.714   4.761   7.657
30331WAT     H191235   6.731   4.757   7.558
30331WAT     H291236   6.616   4.774   7.672
30332WAT      O91237   6.282   7.568   8.469
30332WAT     H191238   6.212   7.497   8.470
30332WAT     H291239   6.253   7.643   8.409
30333WAT      O91240   6.414   5.173   5.905
30333WAT     H191241   6.343   5.241   5.923
30333WAT     H291242   6.399   5.092   5.963
30334WAT      O91243   1.762   7.555   6.962
30334WAT     H191244   1.849   7.604   6.950
30334WAT     H291245   1.777   7.473   7.018
30335WAT      O91246   3.960   2.005   0.489
30335WAT     H191247   3.891   1.995   0.418
30335WAT     H291248   3.943   2.089   0.541
30336WAT      O91249   6.581   0.108   2.507
30336WAT     H191250   6.515   0.094   2.433
30336WAT     H291251   6.643   0.182   2.482
30337WAT      O91252   3.730   0.519   8.733
30337WAT     H191253   3.744   0.468   8.648
30337WAT     H291254   3.755   0.615   8.720
30338WAT      O91255   1.897   6.833   6.312
30338WAT     H191256   1.820   6.840   6.248
30338WAT     H291257   1.862   6.809   6.403
30339WAT      O91258   9.636   2.023   5.341
30339WAT     H191259   9.621   1.979   5.429
30339WAT     H291260   9.552   2.067   5.310
30340WAT      O91261   4.616   0.045   4.464
30340WAT     H191262   4.653   0.120   4.409
30340WAT     H291263   4.677   0.026   4.540
30341WAT      O91264   7.177   9.548   6.970
30341WAT     H191265   7.085   9.565   7.007
30341WAT     H291266   7.176   9.464   6.917
30342WAT      O91267   1.526   6.333   3.284
30342WAT     H191268   1.612   6.383   3.277
30342WAT     H291269   1.544   6.235   3.293
30343WAT      O91270   0.891   8.851   7.843
30343WAT     H191271   0.835   8.932   7.826
30343WAT     H291272   0.842   8.770   7.812
30344WAT      O91273   0.016   1.144   9.113
30344WAT     H191274   0.098   1.184   9.073
30344WAT     H291275  -0.046   1.217   9.143
30345WAT      O91276   1.745   4.978   3.486
30345WAT     H191277   1.746   4.936   3.576
30345WAT     H291278   1.657   5.023   3.471
30346WAT      O91279   2.777   6.633   5.090
30346WAT     H191280   2.866   6.591   5.074
30346WAT     H291281   2.772   6.665   5.184
30347WAT      O91282   7.749   5.801   5.949
30347WAT     H191283   7.724   5.709   5.919
30347WAT     H291284   7.668   5.859   5.953
30348WAT      O91285   0.968   5.986   5.625
30348WAT     H191286   0.923   5.963   5.711
30348WAT     H291287   0.957   6.083   5.606
30349WAT      O91288   8.759   2.586   8.255
30349WAT     H191289   8.846   2.613   8.294
30349WAT     H291290   8.733   2.651   8.183
30350WAT      O91291   5.421   0.395   8.089
30350WAT     H191292   5.377   0.356   8.008
30350WAT     H291293   5.460   0.484   8.067
30351WAT      O91294   7.546   4.511   2.078
30351WAT     H191295   7.542   4.463   2.165
30351WAT     H291296   7.632   4.561   2.071
30352WAT      O91297   1.968   3.490   5.420
30352WAT     H191298   1.902   3.564   5.408
30352WAT     H291299   2.060   3.529   5.429
30353WAT      O91300   5.163   3.281   7.305
30353WAT     H191301   5.256   3.314   7.289
30353WAT     H291302   5.132   3.310   7.395
30354WAT      O91303   0.971   9.653   1.784
30354WAT     H191304   0.891   9.667   1.726
30354WAT     H291305   0.980   9.556   1.807
30355WAT      O91306   5.610   3.431   8.543
30355WAT     H191307   5.534   3.463   8.486
30355WAT     H291308   5.661   3.362   8.492
30356WAT      O91309   9.831   1.208   6.054
30356WAT     H191310   9.757   1.207   6.121
30356WAT     H291311   9.917   1.184   6.098
30357WAT      O91312   0.988   6.420   2.477
30357WAT     H191313   0.958   6.406   2.383
30357WAT     H291314   1.053   6.496   2.481
30358WAT      O91315   8.823   0.494   4.614
30358WAT     H191316   8.829   0.554   4.694
30358WAT     H291317   8.875   0.410   4.631
30359WAT      O91318   6.821   0.397   0.200
30359WAT     H191319   6.837   0.440   0.289
30359WAT     H291320   6.892   0.330   0.182
30360WAT      O91321   3.695   8.427   7.553
30360WAT     H191322   3.693   8.491   7.629
30360WAT     H291323   3.784   8.433   7.507
30361WAT      O91324   8.329   8.812   6.698
30361WAT     H191325   8.310   8.893   6.641
30361WAT     H291326   8.424   8.784   6.685
30362WAT      O91327   0.377   5.334   2.897
30362WAT     H191328   0.404   5.428   2.877
30362WAT     H291329   0.442   5.294   2.962
30363WAT      O91330   4.553   1.698   2.951
30363WAT     H191331   4.550   1.781   2.896
30363WAT     H291332   4.629   1.641   2.921
30364WAT      O91333   8.539   2.210   4.230
30364WAT     H191334   8.449   2.168   4.229
30364WAT     H291335   8.546   2.277   4.156
30365WAT      O91336   7.076   4.629   8.277
30365WAT     H191337   7.081   4.530   8.271
30365WAT     H291338   7.009   4.663   8.211
30366WAT      O91339   5.415   1.366   5.492
30366WAT     H191340   5.336   1.385   5.433
30366WAT     H291341   5.391   1.294   5.557
30367WAT      O91342   2.745   8.069   3.767
30367WAT     H191343   2.816   8.042   3.702
30367WAT     H291344   2.748   8.168   3.779
30368WAT      O91345   1.326   3.572   9.811
30368WAT     H191346   1.401   3.542   9.753
30368WAT     H291347   1.290   3.659   9.777
30369WAT      O91348   4.036   5.288   5.883
30369WAT     H191349   4.065   5.263   5.976
30369WAT     H291350   3.953   5.238   5.860
30370WAT      O91351   2.837   1.142   2.201
30370WAT     H191352   2.803   1.066   2.145
30370WAT     H291353   2.897   1.200   2.145
30371WAT      O91354   7.291   2.177   6.508
30371WAT     H191355   7.387   2.182   6.481
30371WAT     H291356   7.256   2.269   6.522
30372WAT      O91357   0.227   7.279   1.749
30372WAT     H191358   0.311   7.285   1.801
30372WAT     H291359   0.182   7.368   1.746
30373WAT      O91360   6.528   0.477   9.522
30373WAT     H191361   6.527   0.572   9.492
30373WAT     H291362   6.608   0.430   9.484
30374WAT      O91363   2.538   8.829   7.166
30374WAT     H191364   2.482   8.746   7.178
30374WAT     H291365   2.627   8.804   7.128
30375WAT      O91366   4.440   1.398   5.737
30375WAT     H191367   4.508   1.467   5.710
30375WAT     H291368   4.465   1.310   5.697
30376WAT      O91369   3.963   8.813   2.477
30376WAT     H191370   4.060   8.798   2.498
30376WAT     H291371   3.937   8.906   2.502
30377WAT      O91372   0.362   3.785   6.272
30377WAT     H191373   0.369   3.865   6.331
30377WAT     H291374   0.426   3.715   6.303
30378WAT      O91375   7.800   4.437   7.427
30378WAT     H191376   7.817   4.431   7.328
30378WAT     H291377   7.831   4.526   7.460
30379WAT      O91378   4.347   0.856   5.568
30379WAT     H191379   4.345   0.854   5.668
30379WAT     H291380   4.330   0.764   5.533
30380WAT      O91381   6.687   2.660   8.128
30380WAT     H191382   6.693   2.606   8.212
30380WAT     H291383   6.603   2.636   8.079
30381WAT      O91384   4.296   6.955   6.168
30381WAT     H191385   4.213   6.983   6.121
30381WAT     H291386   4.375   6.972   6.108
30382WAT      O91387   4.282   1.399   6.622
30382WAT     H191388   4.258   1.322   6.681
30382WAT     H291389   4.201   1.431   6.574
30383WAT      O91390   6.951   1.389   0.900
30383WAT     H191391   7.044   1.354   0.890
30383WAT     H291392   6.941   1.432   0.989
30384WAT      O91393   1.695   7.241   9.852
30384WAT     H191394   1.793   7.250   9.832
30384WAT     H291395   1.667   7.314   9.915
30385WAT      O91396   5.355   4.560   2.173
30385WAT     H191397   5.273   4.593   2.126
30385WAT     H291398   5.406   4.638   2.209
30386WAT      O91399   3.298   3.716   9.143
30386WAT     H191400   3.369   3.776   9.107
30386WAT     H291401   3.325   3.681   9.232
30387WAT      O91402   3.578   7.953   0.705
30387WAT     H191403   3.581   8.045   0.745
30387WAT     H291404   3.498   7.905   0.739
30388WAT      O91405   3.038   1.196   4.704
30388WAT     H191406   3.063   1.109   4.662
30388WAT     H291407   2.953   1.184   4.756
30389WAT      O91408   0.437   3.321   5.431
30389WAT     H191409   0.474   3.398   5.379
30389WAT     H291410   0.502   3.245   5.429
30390WAT      O91411   8.860   1.774   0.819
30390WAT     H191412   8.884   1.860   0.776
30390WAT     H291413   8.905   1.767   0.908
30391WAT      O91414   8.214   2.379   3.167
30391WAT     H191415   8.307   2.348   3.146
30391WAT     H291416   8.154   2.361   3.089
30392WAT      O91417   3.387   4.457   5.850
30392WAT     H191418   3.383   4.520   5.772
30392WAT     H291419   3.366   4.365   5.819
30393WAT      O91420   7.990   7.471   3.044
30393WAT     H191421   7.934   7.552   3.059
30393WAT     H291422   8.084   7.498   3.024
30394WAT      O91423   8.841   7.811   0.782
30394WAT     H191424   8.792   7.881   0.731
30394WAT     H291425   8.896   7.756   0.720
30395WAT      O91426   3.091   2.841   9.209
30395WAT     H191427   3.189   2.862   9.199
30395WAT     H291428   3.038   2.910   9.160
30396WAT      O91429   4.290   8.853   8.015
30396WAT     H191430   4.222   8.823   7.949
30396WAT     H291431   4.250   8.922   8.075
30397WAT      O91432   8.944   8.846   8.996
30397WAT     H191433   9.007   8.881   9.066
30397WAT     H291434   8.862   8.902   8.993
30398WAT      O91435   2.831   4.742   3.138
30398WAT     H191436   2.848   4.661   3.081
30398WAT     H291437   2.736   4.740   3.170
30399WAT      O91438   0.328   1.351   6.468
30399WAT     H191439   0.253   1.300   6.426
30399WAT     H291440   0.368   1.413   6.401
30400WAT      O91441   5.962   2.807   5.670
30400WAT     H191442   5.960   2.721   5.619
30400WAT     H291443   5.869   2.828   5.702
30401WAT      O91444   9.138   1.888   9.571
30401WAT     H191445   9.168   1.801   9.612
30401WAT     H291446   9.162   1.888   9.474
30402WAT      O91447   3.950   9.424   3.701
30402WAT     H191448   4.026   9.363   3.678
30402WAT     H291449   3.868   9.397   3.651
30403WAT      O91450   8.225   6.352   4.508
30403WAT     H191451   8.204   6.440   4.550
30403WAT     H291452   8.308   6.360   4.454
30404WAT      O91453   9.883   7.896   1.566
30404WAT     H191454   9.964   7.896   1.507
30404WAT     H291455   9.912   7.888   1.662
30405WAT      O91456   9.438   3.184   2.972
30405WAT     H191457   9.454   3.208   3.068
30405WAT     H291458   9.464   3.089   2.957
30406WAT      O91459   3.299   1.770   3.203
30406WAT     H191460   3.378   1.737   3.151
30406WAT     H291461   3.220   1.776   3.143
30407WAT      O91462   9.035   8.072   4.311
30407WAT     H191463   9.081   8.078   4.222
30407WAT     H291464   8.939   8.099   4.300
30408WAT      O91465   8.723   3.004   7.442
30408WAT     H191466   8.746   3.069   7.370
30408WAT     H291467   8.703   3.055   7.527
30409WAT      O91468   5.708   7.623   0.955
30409WAT     H191469   5.722   7.534   0.998
30409WAT     H291470   5.642   7.615   0.881
30410WAT      O91471   7.931   4.687   7.414
30410WAT     H191472   8.013   4.634   7.393
30410WAT     H291473   7.958   4.775   7.454
30411WAT      O91474   0.429   6.422   8.166
30411WAT     H191475   0.395   6.336   8.129
30411WAT     H291476   0.509   6.451   8.113
30412WAT      O91477   2.548   7.979   1.849
30412WAT     H191478   2.617   7.964   1.920
30412WAT     H291479   2.530   7.892   1.802
30413WAT      O91480   5.857   0.597   1.898
30413WAT     H191481   5.840   0.656   1.976
30413WAT     H291482   5.772   0.581   1.849
30414WAT      O91483   8.018   9.005   0.209
30414WAT     H191484   7.930   8.976   0.247
30414WAT     H291485   8.088   9.003   0.281
30415WAT      O91486   4.757   7.696   7.458
30415WAT     H191487   4.839   7.716   7.511
30415WAT     H291488   4.718   7.781   7.421
30416WAT      O91489   8.401   3.418   7.010
30416WAT     H191490   8.399   3.320   6.995
30416WAT     H291491   8.495   3.452   6.996
30417WAT      O91492   0.388   8.498   3.232
30417WAT     H191493   0.462   8.497   3.298
30417WAT     H291494   0.354   8.591   3.221
30418WAT      O91495   3.893   8.119   3.419
30418WAT     H191496   3.907   8.181   3.342
30418WAT     H291497   3.841   8.039   3.388
30419WAT      O91498   9.337   9.538   5.172
30419WAT     H191499   9.318   9.465   5.106
30419WAT     H291500   9.429   9.525   5.209
30420WAT      O91501   2.857   4.059   7.660
30420WAT     H191502   2.854   4.150   7.619
30420WAT     H291503   2.780   4.048   7.722
30421WAT      O91504   7.976   6.524   9.754
30421WAT     H191505   7.973   6.478   9.843
30421WAT     H291506   7.941   6.617   9.764
30422WAT      O91507   4.056   3.663   7.641
30422WAT     H191508   4.086   3.732   7.575
30422WAT     H291509   4.056   3.702   7.733
30423WAT      O91510   6.404   1.938   6.375
30423WAT     H191511   6.453   1.881   6.309
30423WAT     H291512   6.355   2.010   6.326
30424WAT      O91513   1.171   3.888   7.002
30424WAT     H191514   1.074   3.913   7.003
30424WAT     H291515   1.179   3.788   7.005
30425WAT      O91516   9.762   7.958   2.497
30425WAT     H191517   9.824   7.896   2.448
30425WAT     H291518   9.667   7.930   2.480
30426WAT      O91519   0.351   2.100   5.158
30426WAT     H191520   0.357   2.009   5.117
30426WAT     H291521   0.360   2.092   5.257
30427WAT      O91522   2.610   7.783   4.586
30427WAT     H191523   2.581   7.862   4.531
30427WAT     H291524   2.530   7.733   4.618
30428WAT      O91525   9.711   1.130   8.862
30428WAT     H191526   9.795   1.137   8.916
30428WAT     H291527   9.642   1.192   8.899
30429WAT      O91528   0.821   9.364   6.448
30429WAT     H191529   0.845   9.459   6.466
30429WAT     H291530   0.904   9.309   6.436
30430WAT      O91531   9.085   1.577   7.535
30430WAT     H191532   9.101   1.561   7.438
30430WAT     H291533   9.091   1.675   7.555
30431WAT      O91534   5.671   3.328   3.729
30431WAT     H191535   5.732   3.345   3.806
30431WAT     H291536   5.705   3.375   3.648
30432WAT      O91537   0.690   1.124   1.537
30432WAT     H191538   0.752   1.155   1.610
30432WAT     H291539   0.718   1.033   1.506
30433WAT      O91540   8.102   7.305   1.363
30433WAT     H191541   8.160   7.303   1.282
30433WAT     H291542   8.142   7.250   1.435
30434WAT      O91543   7.052   2.889   6.181
30434WAT     H191544   7.070   2.824   6.255
30434WAT     H291545   7.076   2.981   6.211
30435WAT      O91546   0.431   8.127   1.472
30435WAT     H191547   0.375   8.166   1.399
30435WAT     H291548   0.431   8.189   1.551
30436WAT      O91549   9.885   0.124   8.943
30436WAT     H191550   9.839   0.069   9.013
30436WAT     H291551   9.983   0.108   8.947
30437WAT      O91552   4.539   4.701   7.743
30437WAT     H191553   4.605   4.738   7.677
30437WAT     H291554   4.490   4.625   7.702
30438WAT      O91555   7.026   7.462   0.735
30438WAT     H191556   6.978   7.395   0.791
30438WAT     H291557   7.097   7.507   0.791
30439WAT      O91558   8.357   6.870   2.922
30439WAT     H191559   8.317   6.778   2.929
30439WAT     H291560   8.454   6.866   2.943
30440WAT      O91561   6.470   2.059   0.357
30440WAT     H191562   6.459   1.960   0.355
30440WAT     H291563   6.567   2.082   0.359
30441WAT      O91564   9.593   5.196   1.219
30441WAT     H191565   9.531   5.219   1.144
30441WAT     H291566   9.659   5.128   1.188
30442WAT      O91567   2.560   5.968   0.827
30442WAT     H191568   2.481   5.909   0.846
30442WAT     H291569   2.634   5.913   0.788
30443WAT      O91570   4.252   8.502   0.915
30443WAT     H191571   4.273   8.445   0.995
30443WAT     H291572   4.205   8.447   0.846
30444WAT      O91573   3.398   6.039   3.709
30444WAT     H191574   3.322   5.974   3.720
30444WAT     H291575   3.361   6.131   3.699
30445WAT      O91576   7.802   3.963   5.651
30445WAT     H191577   7.873   4.020   5.610
30445WAT     H291578   7.736   4.021   5.700
30446WAT      O91579   1.870   3.019   5.459
30446WAT     H191580   1.903   2.932   5.497
30446WAT     H291581   1.924   3.094   5.497
30447WAT      O91582   0.882   8.764   4.928
30447WAT     H191583   0.955   8.706   4.965
30447WAT     H291584   0.793   8.725   4.952
30448WAT      O91585   0.788   7.725   4.560
30448WAT     H191586   0.819   7.632   4.579
30448WAT     H291587   0.700   7.722   4.513
30449WAT      O91588   6.245   0.025   7.412
30449WAT     H191589   6.234   0.043   7.314
30449WAT     H291590   6.301  -0.057   7.424
30450WAT      O91591   5.483   7.850   6.504
30450WAT     H191592   5.539   7.895   6.573
30450WAT     H291593   5.407   7.909   6.479
30451WAT      O91594   2.468   9.141   9.567
30451WAT     H191595   2.466   9.098   9.657
30451WAT     H291596   2.497   9.075   9.498
30452WAT      O91597   7.760   4.285   0.471
30452WAT     H191598   7.709   4.279   0.557
30452WAT     H291599   7.734   4.208   0.412
30453WAT      O91600   0.287   6.353   1.349
30453WAT     H191601   0.208   6.310   1.392
30453WAT     H291602   0.280   6.344   1.250
30454WAT      O91603   0.312   8.257   1.265
30454WAT     H191604   0.371   8.282   1.189
30454WAT     H291605   0.268   8.338   1.303
30455WAT      O91606   5.806   3.922   4.020
30455WAT     H191607   5.813   3.905   4.118
30455WAT     H291608   5.875   3.867   3.971
30456WAT      O91609   9.437   0.724   2.912
30456WAT     H191610   9.348   0.756   2.877
30456WAT     H291611   9.505   0.795   2.899
30457WAT      O91612   5.774   2.150   4.695
30457WAT     H191613   5.799   2.201   4.777
30457WAT     H291614   5.678   2.169   4.673
30458WAT      O91615   1.266   7.630   6.567
30458WAT     H191616   1.352   7.665   6.602
30458WAT     H291617   1.283   7.551   6.508
30459WAT      O91618   6.737   3.956   3.901
30459WAT     H191619   6.743   4.029   3.832
30459WAT     H291620   6.732   3.867   3.855
30460WAT      O91621   2.214   3.881   3.678
30460WAT     H191622   2.295   3.891   3.620
30460WAT     H291623   2.210   3.956   3.743
30461WAT      O91624   5.702   2.726   8.018
30461WAT     H191625   5.608   2.712   8.047
30461WAT     H291626   5.736   2.643   7.972
30462WAT      O91627   1.811   6.671   8.362
30462WAT     H191628   1.747   6.747   8.376
30462WAT     H291629   1.777   6.591   8.412
30463WAT      O91630   2.877   7.107   1.619
30463WAT     H191631   2.790   7.136   1.659
30463WAT     H291632   2.862   7.073   1.526
30464WAT      O91633   0.770   1.462   7.489
30464WAT     H191634   0.750   1.499   7.398
30464WAT     H291635   0.721   1.376   7.502
30465WAT      O91636   9.803   5.263   3.440
30465WAT     H191637   9.763   5.330   3.377
30465WAT     H291638   9.791   5.294   3.534
30466WAT      O91639   6.472   7.818   2.343
30466WAT     H191640   6.463   7.857   2.252
30466WAT     H291641   6.567   7.824   2.374
30467WAT      O91642   8.772   2.880   3.158
30467WAT     H191643   8.716   2.914   3.234
30467WAT     H291644   8.715   2.824   3.098
30468WAT      O91645   4.816   2.988   0.379
30468WAT     H191646   4.815   3.077   0.424
30468WAT     H291647   4.883   2.929   0.423
30469WAT      O91648   3.428   3.113   3.131
30469WAT     H191649   3.487   3.172   3.186
30469WAT     H291650   3.442   3.017   3.157
30470WAT      O91651   0.723   8.237   7.776
30470WAT     H191652   0.732   8.207   7.871
30470WAT     H291653   0.654   8.309   7.770
30471WAT      O91654   0.960   6.145   2.543
30471WAT     H191655   0.864   6.120   2.538
30471WAT     H291656   0.969   6.244   2.547
30472WAT      O91657   6.772   6.181   0.795
30472WAT     H191658   6.682   6.224   0.805
30472WAT     H291659   6.843   6.250   0.810
30473WAT      O91660   2.970   1.443   5.836
30473WAT     H191661   2.909   1.408   5.765
30473WAT     H291662   2.916   1.470   5.916
30474WAT      O91663   9.002   7.495   7.260
30474WAT     H191664   8.959   7.438   7.331
30474WAT     H291665   8.967   7.588   7.267
30475WAT      O91666   8.984   5.637   6.993
30475WAT     H191667   8.953   5.595   7.079
30475WAT     H291668   9.081   5.618   6.980
30476WAT      O91669   5.920   5.045   0.756
30476WAT     H191670   5.896   4.948   0.764
30476WAT     H291671   5.906   5.075   0.661
30477WAT      O91672   4.533   9.753   3.504
30477WAT     H191673   4.602   9.706   3.449
30477WAT     H291674   4.450   9.764   3.451
30478WAT      O91675   9.121   9.080   6.226
30478WAT     H191676   9.145   9.014   6.297
30478WAT     H291677   9.158   9.050   6.138
30479WAT      O91678   7.582   3.184   4.730
30479WAT     H191679   7.617   3.101   4.686
30479WAT     H291680   7.557   3.163   4.824
30480WAT      O91681   6.361   0.768   4.724
30480WAT     H191682   6.287   0.747   4.788
30480WAT     H291683   6.438   0.807   4.774
30481WAT      O91684   8.138   3.645   2.487
30481WAT     H191685   8.159   3.599   2.573
30481WAT     H291686   8.041   3.669   2.484
30482WAT      O91687   4.604   2.447   0.946
30482WAT     H191688   4.579   2.474   0.853
30482WAT     H291689   4.531   2.473   1.009
30483WAT      O91690   1.046   9.103   7.608
30483WAT     H191691   1.007   9.109   7.516
30483WAT     H291692   1.108   9.024   7.613
30484WAT      O91693   7.821   1.995   4.581
30484WAT     H191694   7.762   1.925   4.540
30484WAT     H291695   7.842   2.065   4.513
30485WAT      O91696   9.523   8.421   0.423
30485WAT     H191697   9.430   8.450   0.446
30485WAT     H291698   9.537   8.426   0.324
30486WAT      O91699   2.479   2.551   8.205
30486WAT     H191700   2.445   2.465   8.242
30486WAT     H291701   2.496   2.541   8.108
30487WAT      O91702   4.015   8.902   6.057
30487WAT     H191703   4.048   8.923   5.965
30487WAT     H291704   3.916   8.918   6.062
30488WAT      O91705   9.078   2.043   0.371
30488WAT     H191706   9.082   2.135   0.412
30488WAT     H291707   9.039   2.049   0.280
30489WAT      O91708   7.788   1.763   1.178
30489WAT     H191709   7.851   1.840   1.184
30489WAT     H291710   7.836   1.678   1.198
30490WAT      O91711   4.329   8.293   2.851
30490WAT     H191712   4.302   8.366   2.914
30490WAT     H291713   4.428   8.284   2.850
30491WAT      O91714   3.289   6.428   4.537
30491WAT     H191715   3.294   6.524   4.567
30491WAT     H291716   3.382   6.394   4.521
30492WAT      O91717   5.068   5.922   3.216
30492WAT     H191718   5.016   5.950   3.297
30492WAT     H291719   5.037   5.974   3.137
30493WAT      O91720   1.821   1.271   2.881
30493WAT     H191721   1.760   1.337   2.838
30493WAT     H291722   1.814   1.183   2.833
30494WAT      O91723   6.402   6.600   3.681
30494WAT     H191724   6.364   6.686   3.715
30494WAT     H291725   6.480   6.619   3.621
30495WAT      O91726   3.589   7.934   3.594
30495WAT     H191727   3.510   7.982   3.555
30495WAT     H291728   3.656   7.917   3.521
30496WAT      O91729   1.766   5.794   5.299
30496WAT     H191730   1.757   5.699   5.329
30496WAT     H291731   1.679   5.841   5.312
30497WAT      O91732   4.856   2.342   8.888
30497WAT     H191733   4.817   2.289   8.813
30497WAT     H291734   4.874   2.281   8.966
30498WAT      O91735   2.937   0.086   8.716
30498WAT     H191736   3.002   0.115   8.786
30498WAT     H291737   2.857   0.044   8.759
30499WAT      O91738   6.413   3.746   0.639
30499WAT     H191739   6.320   3.714   0.659
30499WAT     H291740   6.480   3.681   0.675
30500WAT      O91741   1.201   1.106   3.373
30500WAT     H191742   1.133   1.048   3.329
30500WAT     H291743   1.293   1.074   3.349
30501WAT      O91744   1.498   0.359   0.706
30501WAT     H191745   1.469   0.302   0.629
30501WAT     H291746   1.574   0.418   0.677
30502WAT      O91747   5.465   3.894   3.526
30502WAT     H191748   5.540   3.833   3.503
30502WAT     H291749   5.388   3.841   3.560
30503WAT      O91750   1.651   3.015   3.375
30503WAT     H191751   1.667   3.012   3.474
30503WAT     H291752   1.591   3.093   3.354
30504WAT      O91753   1.465   2.181   7.515
30504WAT     H191754   1.378   2.139   7.489
30504WAT     H291755   1.532   2.109   7.536
30505WAT      O91756   0.999   2.130   0.162
30505WAT     H191757   1.086   2.094   0.195
30505WAT     H291758   0.930   2.120   0.234
30506WAT      O91759   1.443   1.419   6.978
30506WAT     H191760   1.475   1.329   6.950
30506WAT     H291761   1.344   1.426   6.962
30507WAT      O91762   0.004   4.556   4.960
30507WAT     H191763   0.101   4.540   4.940
30507WAT     H291764  -0.009   4.563   5.059
30508WAT      O91765   1.442   5.660   6.617
30508WAT     H191766   1.403   5.650   6.709
30508WAT     H291767   1.522   5.601   6.608
30509WAT      O91768   0.394   9.449   0.649
30509WAT     H191769   0.462   9.509   0.692
30509WAT     H291770   0.352   9.497   0.572
30510WAT      O91771   3.671   6.257   0.871
30510WAT     H191772   3.617   6.266   0.788
30510WAT     H291773   3.768   6.268   0.849
30511WAT      O91774   5.274   7.606   2.703
30511WAT     H191775   5.293   7.701   2.678
30511WAT     H291776   5.360   7.554   2.702
30512WAT      O91777   3.220   6.487   7.431
30512WAT     H191778   3.169   6.515   7.513
30512WAT     H291779   3.275   6.406   7.452
30513WAT      O91780   2.380   2.445   1.116
30513WAT     H191781   2.424   2.498   1.189
30513WAT     H291782   2.405   2.349   1.125
30514WAT      O91783   7.533   6.231   2.076
30514WAT     H191784   7.631   6.245   2.058
30514WAT     H291785   7.481   6.260   1.996
30515WAT      O91786   3.668   1.439   1.295
30515WAT     H191787   3.764   1.419   1.312
30515WAT     H291788   3.660   1.503   1.219
30516WAT      O91789   4.712   0.862   6.452
30516WAT     H191790   4.752   0.951   6.431
30516WAT     H291791   4.681   0.861   6.547
30517WAT      O91792   7.757   3.236   5.025
30517WAT     H191793   7.776   3.255   4.929
30517WAT     H291794   7.694   3.158   5.032
30518WAT      O91795   4.645   6.326   3.110
30518WAT     H191796   4.621   6.363   3.200
30518WAT     H291797   4.681   6.233   3.121
30519WAT      O91798   0.583   9.684   8.571
30519WAT     H191799   0.572   9.641   8.661
30519WAT     H291800   0.678   9.676   8.541
30520WAT      O91801   1.198   4.408   9.856
30520WAT     H191802   1.138   4.328   9.859
30520WAT     H291803   1.183   4.464   9.938
30521WAT      O91804   1.634   0.037   9.221
30521WAT     H191805   1.683   0.080   9.297
30521WAT     H291806   1.683  -0.046   9.193
30522WAT      O91807   0.771   5.157   8.385
30522WAT     H191808   0.792   5.068   8.343
30522WAT     H291809   0.686   5.193   8.346
30523WAT      O91810   0.908   8.799   2.117
30523WAT     H191811   1.006   8.782   2.118
30523WAT     H291812   0.876   8.809   2.023
30524WAT      O91813   2.055   1.661   7.729
30524WAT     H191814   2.026   1.728   7.660
30524WAT     H291815   1.977   1.604   7.754
30525WAT      O91816   1.102   5.665   7.032
30525WAT     H191817   1.083   5.746   6.977
30525WAT     H291818   1.049   5.669   7.117
30526WAT      O91819   5.669   1.846   8.935
30526WAT     H191820   5.708   1.797   9.013
30526WAT     H291821   5.736   1.848   8.860
30527WAT      O91822   3.826   3.802   5.481
30527WAT     H191823   3.727   3.784   5.485
30527WAT     H291824   3.862   3.770   5.393
30528WAT      O91825   1.548   1.549   4.988
30528WAT     H191826   1.527   1.636   4.944
30528WAT     H291827   1.532   1.556   5.087
30529WAT      O91828   6.541   5.417   2.950
30529WAT     H191829   6.589   5.505   2.954
30529WAT     H291830   6.443   5.433   2.953
30530WAT      O91831   4.457   3.331   3.240
30530WAT     H191832   4.504   3.257   3.289
30530WAT     H291833   4.524   3.389   3.195
30531WAT      O91834   6.431   0.969   4.998
30531WAT     H191835   6.446   0.872   5.012
30531WAT     H291836   6.489   1.002   4.923
30532WAT      O91837   4.264   9.524   6.084
30532WAT     H191838   4.331   9.582   6.038
30532WAT     H291839   4.255   9.437   6.035
30533WAT      O91840   7.998   2.200   7.385
30533WAT     H191841   8.032   2.242   7.469
30533WAT     H291842   7.940   2.122   7.407
30534WAT      O91843   9.601   6.744   2.424
30534WAT     H191844   9.569   6.768   2.516
30534WAT     H291845   9.698   6.763   2.416
30535WAT      O91846   6.485   1.963   8.636
30535WAT     H191847   6.484   2.062   8.648
30535WAT     H291848   6.391   1.928   8.631
30536WAT      O91849   1.477   0.258   9.803
30536WAT     H191850   1.484   0.258   9.703
30536WAT     H291851   1.528   0.335   9.840
30537WAT      O91852   1.539   0.053   5.089
30537WAT     H191853   1.628   0.045   5.132
30537WAT     H291854   1.468   0.055   5.159
30538WAT      O91855   5.570   0.058   1.733
30538WAT     H191856   5.507   0.021   1.665
30538WAT     H291857   5.601  -0.015   1.793
30539WAT      O91858   7.058   6.780   7.377
30539WAT     H191859   7.064   6.840   7.456
30539WAT     H291860   7.141   6.788   7.322
30540WAT      O91861   4.866   4.470   0.960
30540WAT     H191862   4.888   4.559   0.920
30540WAT     H291863   4.942   4.439   1.017
30541WAT      O91864   7.741   3.564   4.757
30541WAT     H191865   7.779   3.518   4.677
30541WAT     H291866   7.810   3.570   4.828
30542WAT      O91867   8.008   9.012   7.693
30542WAT     H191868   8.070   9.024   7.770
30542WAT     H291869   7.914   9.017   7.724
30543WAT      O91870   9.309   6.129   3.996
30543WAT     H191871   9.210   6.133   4.012
30543WAT     H291872   9.340   6.217   3.959
30544WAT      O91873   6.286   2.119   6.778
30544WAT     H191874   6.339   2.172   6.844
30544WAT     H291875   6.236   2.047   6.825
30545WAT      O91876   4.380   3.861   1.070
30545WAT     H191877   4.325   3.878   1.152
30545WAT     H291878   4.433   3.943   1.048
30546WAT      O91879   3.741   0.385   1.186
30546WAT     H191880   3.819   0.376   1.247
30546WAT     H291881   3.734   0.479   1.154
30547WAT      O91882   1.741   5.746   6.781
30547WAT     H191883   1.746   5.662   6.728
30547WAT     H291884   1.791   5.818   6.735
30548WAT      O91885   6.792   0.736   7.507
30548WAT     H191886   6.882   0.775   7.486
30548WAT     H291887   6.773   0.747   7.605
30549WAT      O91888   5.732   5.033   6.374
30549WAT     H191889   5.737   5.088   6.291
30549WAT     H291890   5.806   5.061   6.436
30550WAT      O91891   0.688   7.894   8.954
30550WAT     H191892   0.675   7.814   8.896
30550WAT     H291893   0.786   7.914   8.961
30551WAT      O91894   7.274   6.185   9.609
30551WAT     H191895   7.200   6.250   9.594
30551WAT     H291896   7.340   6.191   9.535
30552WAT      O91897   2.141   4.520   5.834
30552WAT     H191898   2.059   4.571   5.809
30552WAT     H291899   2.160   4.451   5.764
30553WAT      O91900   9.319   0.587   7.250
30553WAT     H191901   9.383   0.509   7.244
30553WAT     H291902   9.230   0.559   7.216
30554WAT      O91903   7.645   2.211   1.610
30554WAT     H191904   7.568   2.275   1.602
30554WAT     H291905   7.615   2.119   1.586
30555WAT      O91906   1.376   1.114   6.165
30555WAT     H191907   1.431   1.051   6.220
30555WAT     H291908   1.404   1.108   6.069
30556WAT      O91909   0.336   6.961   1.808
30556WAT     H191910   0.325   6.924   1.716
30556WAT     H291911   0.423   7.010   1.813
30557WAT      O91912   0.931   6.509   5.192
30557WAT     H191913   0.963   6.430   5.244
30557WAT     H291914   0.990   6.523   5.112
30558WAT      O91915   1.337   9.021   2.578
30558WAT     H191916   1.356   8.984   2.669
30558WAT     H291917   1.242   9.052   2.573
30559WAT      O91918   4.707   9.012   9.061
30559WAT     H191919   4.743   8.927   9.021
30559WAT     H291920   4.607   9.008   9.060
30560WAT      O91921   6.750   4.552   1.823
30560WAT     H191922   6.765   4.561   1.725
30560WAT     H291923   6.798   4.625   1.872
30561WAT      O91924   7.227   3.218   4.882
30561WAT     H191925   7.257   3.195   4.790
30561WAT     H291926   7.155   3.154   4.910
30562WAT      O91927   6.465   3.942   5.784
30562WAT     H191928   6.547   3.889   5.762
30562WAT     H291929   6.438   3.924   5.879
30563WAT      O91930   8.819   1.047   3.171
30563WAT     H191931   8.831   1.066   3.269
30563WAT     H291932   8.872   1.113   3.118
30564WAT      O91933   7.894   2.576   1.637
30564WAT     H191934   7.837   2.495   1.624
30564WAT     H291935   7.838   2.658   1.630
30565WAT      O91936   9.860   7.258   6.184
30565WAT     H191937   9.769   7.227   6.157
30565WAT     H291938   9.857   7.354   6.209
30566WAT      O91939   6.797   5.280   3.716
30566WAT     H191940   6.779   5.227   3.800
30566WAT     H291941   6.896   5.289   3.704
30567WAT      O91942   7.302   1.947   1.134
30567WAT     H191943   7.384   1.983   1.179
30567WAT     H291944   7.292   1.988   1.044
30568WAT      O91945   4.915   2.298   2.011
30568WAT     H191946   4.915   2.398   2.009
30568WAT     H291947   4.896   2.266   2.104
30569WAT      O91948   6.204   6.010   7.813
30569WAT     H191949   6.247   5.926   7.780
30569WAT     H291950   6.106   5.995   7.826
30570WAT      O91951   1.427   9.321   0.941
30570WAT     H191952   1.423   9.380   1.021
30570WAT     H291953   1.362   9.246   0.952
30571WAT      O91954   9.256   0.527   9.613
30571WAT     H191955   9.166   0.486   9.627
30571WAT     H291956   9.265   0.557   9.518
30572WAT      O91957   1.995   4.667   4.841
30572WAT     H191958   2.047   4.611   4.776
30572WAT     H291959   1.950   4.741   4.792
30573WAT      O91960   0.031   4.437   2.238
30573WAT     H191961   0.040   4.530   2.274
30573WAT     H291962   0.043   4.371   2.312
30574WAT      O91963   6.545   6.037   5.058
30574WAT     H191964   6.570   6.124   5.098
30574WAT     H291965   6.463   6.049   5.001
30575WAT      O91966   5.525   2.834   7.333
30575WAT     H191967   5.490   2.877   7.250
30575WAT     H291968   5.593   2.765   7.309
30576WAT      O91969   3.412   5.392   9.241
30576WAT     H191970   3.415   5.425   9.336
30576WAT     H291971   3.506   5.381   9.207
30577WAT      O91972   6.599   5.520   6.951
30577WAT     H191973   6.582   5.581   6.874
30577WAT     H291974   6.589   5.571   7.036
30578WAT      O91975   2.636   8.044   7.360
30578WAT     H191976   2.646   8.143   7.362
30578WAT     H291977   2.631   8.008   7.453
30579WAT      O91978   3.638   5.968   8.585
30579WAT     H191979   3.583   6.025   8.523
30579WAT     H291980   3.603   5.976   8.678
30580WAT      O91981   9.587   5.708   6.492
30580WAT     H191982   9.585   5.652   6.575
30580WAT     H291983   9.580   5.648   6.412
30581WAT      O91984   1.252   0.525   4.365
30581WAT     H191985   1.211   0.541   4.275
30581WAT     H291986   1.248   0.610   4.418
30582WAT      O91987   5.330   2.291   1.535
30582WAT     H191988   5.392   2.330   1.468
30582WAT     H291989   5.294   2.204   1.500
30583WAT      O91990   2.155   3.805   3.247
30583WAT     H191991   2.182   3.835   3.156
30583WAT     H291992   2.133   3.884   3.304
30584WAT      O91993   1.833   7.306   1.371
30584WAT     H191994   1.899   7.234   1.348
30584WAT     H291995   1.879   7.395   1.367
30585WAT      O91996   9.075   5.720   5.535
30585WAT     H191997   9.097   5.816   5.549
30585WAT     H291998   8.993   5.713   5.479
30586WAT      O91999   5.935   2.655   4.772
30586WAT     H192000   5.898   2.563   4.785
30586WAT     H292001   5.939   2.703   4.860
30587WAT      O92002   8.677   8.655   4.918
30587WAT     H192003   8.775   8.670   4.934
30587WAT     H292004   8.658   8.658   4.820
30588WAT      O92005   2.869   5.826   5.887
30588WAT     H192006   2.850   5.852   5.982
30588WAT     H292007   2.948   5.763   5.886
30589WAT      O92008   4.155   5.664   9.351
30589WAT     H192009   4.222   5.737   9.340
30589WAT     H292010   4.143   5.616   9.264
30590WAT      O92011   2.724   1.715   6.857
30590WAT     H192012   2.705   1.617   6.851
30590WAT     H292013   2.751   1.738   6.950
30591WAT      O92014   0.765   7.688   9.178
30591WAT     H192015   0.799   7.690   9.272
30591WAT     H292016   0.722   7.776   9.157
30592WAT      O92017   0.788   5.319   1.445
30592WAT     H192018   0.753   5.229   1.419
30592WAT     H292019   0.849   5.310   1.524
30593WAT      O92020   8.574   3.395   4.679
30593WAT     H192021   8.611   3.389   4.587
30593WAT     H292022   8.649   3.399   4.745
30594WAT      O92023   4.967   4.589   0.293
30594WAT     H192024   5.062   4.618   0.289
30594WAT     H292025   4.935   4.566   0.201
30595WAT      O92026   3.491   1.338   0.644
30595WAT     H192027   3.531   1.310   0.557
30595WAT     H292028   3.560   1.332   0.717
30596WAT      O92029   5.707   2.131   8.778
30596WAT     H192030   5.769   2.085   8.714
30596WAT     H292031   5.612   2.119   8.747
30597WAT      O92032   2.076   2.975   5.837
30597WAT     H192033   1.984   2.983   5.876
30597WAT     H292034   2.136   2.931   5.903
30598WAT      O92035   0.841   6.873   0.256
30598WAT     H192036   0.856   6.956   0.309
30598WAT     H292037   0.850   6.793   0.316
30599WAT      O92038   7.155   6.043   5.016
30599WAT     H192039   7.190   6.057   4.923
30599WAT     H292040   7.161   6.129   5.067
30600WAT      O92041   6.770   8.001   3.751
30600WAT     H192042   6.789   8.006   3.849
30600WAT     H292043   6.671   8.008   3.736
30601WAT      O92044   7.381   1.162   7.600
30601WAT     H192045   7.398   1.224   7.676
30601WAT     H292046   7.324   1.208   7.531
30602WAT      O92047   6.812   6.397   4.732
30602WAT     H192048   6.854   6.447   4.808
30602WAT     H292049   6.714   6.386   4.748
30603WAT      O92050   9.036   8.049   8.331
30603WAT     H192051   9.074   8.052   8.239
30603WAT     H292052   9.067   7.966   8.377
30604WAT      O92053   5.571   8.557   0.642
30604WAT     H192054   5.527   8.593   0.725
30604WAT     H292055   5.646   8.617   0.616
30605WAT      O92056   3.377   2.156   4.039
30605WAT     H192057   3.339   2.096   4.109
30605WAT     H292058   3.475   2.138   4.030
30606WAT      O92059   8.970   7.482   5.121
30606WAT     H192060   9.010   7.570   5.147
30606WAT     H292061   9.001   7.456   5.030
30607WAT      O92062   8.700   9.087   3.903
30607WAT     H192063   8.625   9.107   3.966
30607WAT     H292064   8.782   9.137   3.931
30608WAT      O92065   3.829   8.372   5.150
30608WAT     H192066   3.920   8.396   5.116
30608WAT     H292067   3.761   8.428   5.103
30609WAT      O92068   0.705   3.685   6.018
30609WAT     H192069   0.756   3.712   6.100
30609WAT     H292070   0.664   3.766   5.976
30610WAT      O92071   3.918   3.676   1.825
30610WAT     H192072   3.937   3.765   1.784
30610WAT     H292073   3.993   3.652   1.887
30611WAT      O92074   7.711   0.380   8.276
30611WAT     H192075   7.628   0.408   8.325
30611WAT     H292076   7.759   0.462   8.244
30612WAT      O92077   9.129   7.086   0.591
30612WAT     H192078   9.182   7.047   0.667
30612WAT     H292079   9.172   7.062   0.504
30613WAT      O92080   2.953   8.353   3.635
30613WAT     H192081   2.966   8.397   3.723
30613WAT     H292082   3.028   8.288   3.619
30614WAT      O92083   0.330   7.106   2.288
30614WAT     H192084   0.427   7.117   2.267
30614WAT     H292085   0.278   7.099   2.203
30615WAT      O92086   5.754   6.427   7.186
30615WAT     H192087   5.801   6.470   7.109
30615WAT     H292088   5.810   6.435   7.269
30616WAT      O92089   8.854   7.810   7.786
30616WAT     H192090   8.898   7.897   7.767
30616WAT     H292091   8.873   7.784   7.881
30617WAT      O92092   6.810   9.041   3.345
30617WAT     H192093   6.720   9.016   3.309
30617WAT     H292094   6.880   8.986   3.300
30618WAT      O92095   2.717   2.067   2.819
30618WAT     H192096   2.689   1.971   2.810
30618WAT     H292097   2.797   2.084   2.760
30619WAT      O92098   3.528   5.509   2.906
30619WAT     H192099   3.556   5.451   2.982
30619WAT     H292100   3.504   5.451   2.828
30620WAT      O92101   2.603   6.730   2.336
30620WAT     H192102   2.644   6.821   2.331
30620WAT     H292103   2.592   6.704   2.432
30621WAT      O92104   6.789   1.433   3.443
30621WAT     H192105   6.841   1.348   3.445
30621WAT     H292106   6.709   1.422   3.385
30622WAT      O92107   8.673   4.372   9.264
30622WAT     H192108   8.614   4.446   9.232
30622WAT     H292109   8.734   4.405   9.335
30623WAT      O92110   6.393   0.765   6.001
30623WAT     H192111   6.393   0.704   6.081
30623WAT     H292112   6.305   0.812   5.995
30624WAT      O92113   8.134   7.524   7.608
30624WAT     H192114   8.165   7.619   7.608
30624WAT     H292115   8.068   7.510   7.682
30625WAT      O92116   8.715   8.105   6.503
30625WAT     H192117   8.785   8.102   6.574
30625WAT     H292118   8.669   8.016   6.497
30626WAT      O92119   6.365   3.335   7.504
30626WAT     H192120   6.355   3.254   7.446
30626WAT     H292121   6.419   3.404   7.457
30627WAT      O92122   0.811   2.460   0.029
30627WAT     H192123   0.844   2.520  -0.044
30627WAT     H292124   0.753   2.389  -0.010
30628WAT      O92125   8.811   2.528   3.015
30628WAT     H192126   8.876   2.540   3.090
30628WAT     H292127   8.728   2.579   3.035
30629WAT      O92128   1.705   8.358   4.563
30629WAT     H192129   1.700   8.455   4.584
30629WAT     H292130   1.671   8.342   4.470
30630WAT      O92131   2.135   5.840   9.512
30630WAT     H192132   2.213   5.807   9.460
30630WAT     H292133   2.142   5.939   9.525
30631WAT      O92134   7.823   3.809   6.494
30631WAT     H192135   7.744   3.816   6.432
30631WAT     H292136   7.891   3.877   6.469
30632WAT      O92137   9.293   4.701   8.234
30632WAT     H192138   9.244   4.768   8.291
30632WAT     H292139   9.391   4.723   8.235
30633WAT      O92140   0.962   4.054   6.475
30633WAT     H192141   0.922   4.035   6.564
30633WAT     H292142   0.922   4.137   6.437
30634WAT      O92143   4.195   2.856   5.745
30634WAT     H192144   4.180   2.954   5.729
30634WAT     H292145   4.108   2.808   5.736
30635WAT      O92146   7.536   3.256   3.864
30635WAT     H192147   7.476   3.176   3.862
30635WAT     H292148   7.624   3.231   3.905
30636WAT      O92149   9.698   2.013   3.161
30636WAT     H192150   9.708   2.025   3.062
30636WAT     H292151   9.785   2.033   3.206
30637WAT      O92152   0.238   0.247   3.872
30637WAT     H192153   0.274   0.178   3.809
30637WAT     H292154   0.228   0.334   3.824
30638WAT      O92155   7.171   3.909   3.485
30638WAT     H192156   7.250   3.962   3.456
30638WAT     H292157   7.125   3.871   3.404
30639WAT      O92158   6.562   6.094   0.063
30639WAT     H192159   6.612   6.008   0.066
30639WAT     H292160   6.490   6.088  -0.006
30640WAT      O92161   0.154   1.315   5.434
30640WAT     H192162   0.203   1.338   5.350
30640WAT     H292163   0.211   1.258   5.492
30641WAT      O92164   5.153   8.828   7.123
30641WAT     H192165   5.133   8.734   7.149
30641WAT     H292166   5.109   8.848   7.035
30642WAT      O92167   6.382   4.105   9.888
30642WAT     H192168   6.470   4.134   9.926
30642WAT     H292169   6.398   4.039   9.815
30643WAT      O92170   2.412   3.412   6.650
30643WAT     H192171   2.444   3.461   6.568
30643WAT     H292172   2.377   3.322   6.623
30644WAT      O92173   8.194   7.902   7.876
30644WAT     H192174   8.214   7.851   7.960
30644WAT     H292175   8.263   7.974   7.864
30645WAT      O92176   0.665   4.661   2.931
30645WAT     H192177   0.682   4.737   2.869
30645WAT     H292178   0.680   4.692   3.025
30646WAT      O92179   0.968   7.886   9.586
30646WAT     H192180   0.955   7.978   9.548
30646WAT     H292181   0.906   7.822   9.542
30647WAT      O92182   7.804   0.243   0.523
30647WAT     H192183   7.845   0.160   0.560
30647WAT     H292184   7.867   0.320   0.535
30648WAT      O92185   0.612   3.097   2.476
30648WAT     H192186   0.539   3.164   2.468
30648WAT     H292187   0.700   3.144   2.481
30649WAT      O92188   6.139   0.954   3.458
30649WAT     H192189   6.199   0.893   3.511
30649WAT     H292190   6.188   1.039   3.439
30650WAT      O92191   2.227   3.598   3.432
30650WAT     H192192   2.134   3.565   3.452
30650WAT     H292193   2.222   3.669   3.362
30651WAT      O92194   6.179   1.719   0.790
30651WAT     H192195   6.251   1.737   0.857
30651WAT     H292196   6.104   1.670   0.833
30652WAT      O92197   1.949   1.123   7.785
30652WAT     H192198   2.023   1.081   7.732
30652WAT     H292199   1.882   1.162   7.722
30653WAT      O92200   7.425   2.370   1.889
30653WAT     H192201   7.497   2.303   1.906
30653WAT     H292202   7.397   2.365   1.793
30654WAT      O92203   5.068   4.750   8.600
30654WAT     H192204   5.121   4.682   8.649
30654WAT     H292205   4.991   4.706   8.553
30655WAT      O92206   7.383   0.639   6.556
30655WAT     H192207   7.365   0.727   6.513
30655WAT     H292208   7.322   0.570   6.518
30656WAT      O92209   4.755   8.572   7.470
30656WAT     H192210   4.703   8.492   7.440
30656WAT     H292211   4.777   8.563   7.567
30657WAT      O92212   3.068   4.377   0.485
30657WAT     H192213   3.092   4.300   0.426
30657WAT     H292214   3.027   4.450   0.431
30658WAT      O92215   4.891   5.026   0.127
30658WAT     H192216   4.823   4.955   0.112
30658WAT     H292217   4.906   5.076   0.042
30659WAT      O92218   2.945   5.165   6.978
30659WAT     H192219   2.924   5.078   6.934
30659WAT     H292220   2.891   5.175   7.061
30660WAT      O92221   6.310   1.814   6.598
30660WAT     H192222   6.334   1.865   6.516
30660WAT     H292223   6.391   1.770   6.635
30661WAT      O92224   5.129   9.592   4.143
30661WAT     H192225   5.132   9.528   4.066
30661WAT     H292226   5.204   9.573   4.206
30662WAT      O92227   1.310   6.692   7.787
30662WAT     H192228   1.348   6.721   7.875
30662WAT     H292229   1.322   6.766   7.721
30663WAT      O92230   4.822   6.187   9.842
30663WAT     H192231   4.831   6.233   9.754
30663WAT     H292232   4.730   6.151   9.852
30664WAT      O92233   8.387   7.551   7.292
30664WAT     H192234   8.300   7.596   7.308
30664WAT     H292235   8.390   7.465   7.343
30665WAT      O92236   2.730   4.139   2.254
30665WAT     H192237   2.820   4.180   2.268
30665WAT     H292238   2.659   4.207   2.268
30666WAT      O92239   2.947   1.263   3.196
30666WAT     H192240   3.044   1.285   3.182
30666WAT     H292241   2.934   1.164   3.184
30667WAT      O92242   5.967   1.998   9.193
30667WAT     H192243   5.920   2.075   9.151
30667WAT     H292244   5.906   1.918   9.195
30668WAT      O92245   8.383   6.686   5.237
30668WAT     H192246   8.398   6.595   5.275
30668WAT     H292247   8.292   6.690   5.196
30669WAT      O92248   8.340   9.099   1.370
30669WAT     H192249   8.435   9.103   1.400
30669WAT     H292250   8.318   9.006   1.341
30670WAT      O92251   5.515   7.533   6.483
30670WAT     H192252   5.539   7.630   6.489
30670WAT     H292253   5.427   7.523   6.437
30671WAT      O92254   7.405   7.816   0.083
30671WAT     H192255   7.436   7.799   0.176
30671WAT     H292256   7.403   7.729   0.032
30672WAT      O92257   3.308   9.148   7.462
30672WAT     H192258   3.397   9.153   7.417
30672WAT     H292259   3.261   9.236   7.453
30673WAT      O92260   6.059   7.327   2.592
30673WAT     H192261   6.040   7.371   2.680
30673WAT     H292262   6.107   7.392   2.533
30674WAT      O92263   6.760   4.474   7.751
30674WAT     H192264   6.752   4.571   7.728
30674WAT     H292265   6.855   4.452   7.770
30675WAT      O92266   9.306   6.614   6.645
30675WAT     H192267   9.306   6.648   6.551
30675WAT     H292268   9.368   6.669   6.701
30676WAT      O92269   6.275   2.879   6.357
30676WAT     H192270   6.178   2.888   6.378
30676WAT     H292271   6.294   2.921   6.268
30677WAT      O92272   2.830   6.788   0.585
30677WAT     H192273   2.847   6.767   0.489
30677WAT     H292274   2.840   6.705   0.640
30678WAT      O92275   9.046   3.358   9.723
30678WAT     H192276   8.964   3.327   9.772
30678WAT     H292277   9.057   3.304   9.639
30679WAT      O92278   8.733   7.434   4.361
30679WAT     H192279   8.671   7.415   4.437
30679WAT     H292280   8.764   7.347   4.321
30680WAT      O92281   9.455   1.699   4.040
30680WAT     H192282   9.363   1.679   4.074
30680WAT     H292283   9.458   1.680   3.941
30681WAT      O92284   9.374   8.336   7.998
30681WAT     H192285   9.410   8.279   7.924
30681WAT     H292286   9.382   8.287   8.084
30682WAT      O92287   3.038   2.360   0.698
30682WAT     H192288   3.066   2.348   0.603
30682WAT     H292289   2.969   2.432   0.703
30683WAT      O92290   3.499   1.510   8.035
30683WAT     H192291   3.513   1.463   8.123
30683WAT     H292292   3.532   1.451   7.961
30684WAT      O92293   2.891   1.907   2.569
30684WAT     H192294   2.905   2.006   2.576
30684WAT     H292295   2.809   1.889   2.513
30685WAT      O92296   8.950   2.316   2.489
30685WAT     H192297   8.937   2.314   2.390
30685WAT     H292298   9.039   2.358   2.510
30686WAT      O92299   0.548   6.237   3.263
30686WAT     H192300   0.584   6.267   3.351
30686WAT     H292301   0.478   6.301   3.232
30687WAT      O92302   1.537   8.986   7.984
30687WAT     H192303   1.588   8.945   8.060
30687WAT     H292304   1.581   8.962   7.897
30688WAT      O92305   5.570   0.077   3.913
30688WAT     H192306   5.510   0.127   3.851
30688WAT     H292307   5.526  -0.008   3.943
30689WAT      O92308   3.850   4.094   6.357
30689WAT     H192309   3.850   4.009   6.306
30689WAT     H292310   3.850   4.172   6.293
30690WAT      O92311   7.976   0.568   3.314
30690WAT     H192312   8.019   0.494   3.366
30690WAT     H292313   7.978   0.653   3.368
30691WAT      O92314   2.974   4.709   8.937
30691WAT     H192315   2.929   4.733   9.023
30691WAT     H292316   3.056   4.765   8.926
30692WAT      O92317   4.426   0.991   7.704
30692WAT     H192318   4.443   0.905   7.752
30692WAT     H292319   4.471   1.066   7.754
30693WAT      O92320   8.676   1.960   4.288
30693WAT     H192321   8.712   1.932   4.199
30693WAT     H292322   8.649   2.056   4.285
30694WAT      O92323   7.715   9.495   7.249
30694WAT     H192324   7.810   9.508   7.220
30694WAT     H292325   7.710   9.500   7.349
30695WAT      O92326   5.650   3.554   0.889
30695WAT     H192327   5.669   3.630   0.827
30695WAT     H292328   5.736   3.524   0.932
30696WAT      O92329   4.334   3.680   2.266
30696WAT     H192330   4.305   3.586   2.248
30696WAT     H292331   4.270   3.722   2.330
30697WAT      O92332   0.713   5.925   1.652
30697WAT     H192333   0.812   5.925   1.636
30697WAT     H292334   0.686   6.010   1.697
30698WAT      O92335   8.633   7.185   5.928
30698WAT     H192336   8.723   7.182   5.884
30698WAT     H292337   8.628   7.115   5.999
30699WAT      O92338   2.657   5.479   4.313
30699WAT     H192339   2.613   5.441   4.395
30699WAT     H292340   2.735   5.422   4.288
30700WAT      O92341   0.096   7.489   7.777
30700WAT     H192342   0.038   7.522   7.703
30700WAT     H292343   0.179   7.546   7.782
30701WAT      O92344   0.836   2.896   3.166
30701WAT     H192345   0.785   2.980   3.147
30701WAT     H292346   0.774   2.829   3.207
30702WAT      O92347   7.047   4.170   3.836
30702WAT     H192348   6.995   4.087   3.814
30702WAT     H292349   7.088   4.206   3.752
30703WAT      O92350   7.128   8.309   6.193
30703WAT     H192351   7.120   8.408   6.184
30703WAT     H292352   7.184   8.287   6.273
30704WAT      O92353   3.491   4.565   3.002
30704WAT     H192354   3.423   4.562   3.076
30704WAT     H292355   3.551   4.486   3.009
30705WAT      O92356   5.232   5.083   5.560
30705WAT     H192357   5.236   4.999   5.505
30705WAT     H292358   5.189   5.156   5.507
30706WAT      O92359   4.738   7.258   3.219
30706WAT     H192360   4.723   7.159   3.225
30706WAT     H292361   4.738   7.285   3.122
30707WAT      O92362   1.418   5.601   5.223
30707WAT     H192363   1.435   5.593   5.125
30707WAT     H292364   1.498   5.643   5.267
30708WAT      O92365   3.879   6.919   4.456
30708WAT     H192366   3.793   6.970   4.469
30708WAT     H292367   3.904   6.921   4.359
30709WAT      O92368   5.961   6.040   3.614
30709WAT     H192369   5.952   6.053   3.713
30709WAT     H292370   5.888   5.979   3.581
30710WAT      O92371   6.238   9.123   4.395
30710WAT     H192372   6.218   9.166   4.307
30710WAT     H292373   6.167   9.148   4.461
30711WAT      O92374   8.712   5.730   8.148
30711WAT     H192375   8.772   5.651   8.155
30711WAT     H292376   8.665   5.745   8.236
30712WAT      O92377   6.845   9.196   2.192
30712WAT     H192378   6.911   9.269   2.174
30712WAT     H292379   6.858   9.122   2.127
30713WAT      O92380   3.206   2.622   6.136
30713WAT     H192381   3.272   2.688   6.171
30713WAT     H292382   3.182   2.556   6.208
30714WAT      O92383   2.811   9.463   2.614
30714WAT     H192384   2.863   9.526   2.557
30714WAT     H292385   2.727   9.436   2.566
30715WAT      O92386   7.233   4.671   5.419
30715WAT     H192387   7.190   4.744   5.473
30715WAT     H292388   7.195   4.672   5.327
30716WAT      O92389   2.120   7.747   6.874
30716WAT     H192390   2.043   7.811   6.871
30716WAT     H292391   2.145   7.729   6.969
30717WAT      O92392   8.695   2.843   9.058
30717WAT     H192393   8.736   2.873   8.971
30717WAT     H292394   8.697   2.744   9.063
30718WAT      O92395   6.560   6.210   2.199
30718WAT     H192396   6.475   6.260   2.216
30718WAT     H292397   6.551   6.118   2.237
30719WAT      O92398   9.020   5.917   9.746
30719WAT     H192399   8.930   5.958   9.729
30719WAT     H292400   9.052   5.944   9.836
30720WAT      O92401   5.252   3.351   1.217
30720WAT     H192402   5.291   3.269   1.259
30720WAT     H292403   5.323   3.401   1.168
30721WAT      O92404   4.309   7.415   7.803
30721WAT     H192405   4.335   7.409   7.706
30721WAT     H292406   4.241   7.345   7.823
30722WAT      O92407   1.519   9.670   6.719
30722WAT     H192408   1.436   9.709   6.757
30722WAT     H292409   1.544   9.588   6.772
30723WAT      O92410   2.863   4.555   8.321
30723WAT     H192411   2.918   4.540   8.402
30723WAT     H292412   2.875   4.478   8.258
30724WAT      O92413   5.471   6.022   0.610
30724WAT     H192414   5.541   6.080   0.569
30724WAT     H292415   5.487   6.015   0.708
30725WAT      O92416   4.098   0.508   1.300
30725WAT     H192417   4.182   0.535   1.254
30725WAT     H292418   4.114   0.427   1.356
30726WAT      O92419   1.242   4.284   0.847
30726WAT     H192420   1.297   4.365   0.869
30726WAT     H292421   1.294   4.224   0.786
30727WAT      O92422   0.083   7.659   8.953
30727WAT     H192423   0.138   7.618   8.880
30727WAT     H292424  -0.013   7.655   8.927
30728WAT      O92425   3.097   4.500   0.059
30728WAT     H192426   3.057   4.419   0.017
30728WAT     H292427   3.184   4.476   0.102
30729WAT      O92428   1.562   4.009   6.091
30729WAT     H192429   1.574   4.108   6.084
30729WAT     H292430   1.477   3.983   6.047
30730WAT      O92431   4.249   2.689   0.624
30730WAT     H192432   4.214   2.619   0.687
30730WAT     H292433   4.300   2.645   0.551
30731WAT      O92434   1.594   8.577   1.418
30731WAT     H192435   1.532   8.567   1.340
30731WAT     H292436   1.687   8.555   1.389
30732WAT      O92437   2.877   9.375   0.742
30732WAT     H192438   2.849   9.445   0.808
30732WAT     H292439   2.967   9.399   0.704
30733WAT      O92440   1.169   6.958   5.343
30733WAT     H192441   1.172   6.933   5.440
30733WAT     H292442   1.074   6.979   5.318
30734WAT      O92443   6.785   0.002   0.722
30734WAT     H192444   6.744   0.078   0.774
30734WAT     H292445   6.713  -0.063   0.697
30735WAT      O92446   7.660   6.758   3.974
30735WAT     H192447   7.749   6.715   3.991
30735WAT     H292448   7.588   6.689   3.979
30736WAT      O92449   5.362   6.457   4.471
30736WAT     H192450   5.379   6.552   4.445
30736WAT     H292451   5.296   6.454   4.546
30737WAT      O92452   0.619   0.518   2.738
30737WAT     H192453   0.569   0.580   2.678
30737WAT     H292454   0.704   0.490   2.693
30738WAT      O92455   8.123   2.041   9.871
30738WAT     H192456   8.150   2.092   9.789
30738WAT     H292457   8.024   2.029   9.871
30739WAT      O92458   0.397   3.157   5.805
30739WAT     H192459   0.401   3.253   5.777
30739WAT     H292460   0.482   3.111   5.777
30740WAT      O92461   3.991   6.830   6.082
30740WAT     H192462   4.010   6.793   6.173
30740WAT     H292463   3.967   6.754   6.021
30741WAT      O92464   8.520   9.411   0.736
30741WAT     H192465   8.593   9.366   0.684
30741WAT     H292466   8.496   9.497   0.693
30742WAT      O92467   5.049   2.654   3.225
30742WAT     H192468   5.002   2.707   3.295
30742WAT     H292469   5.102   2.581   3.269
30743WAT      O92470   4.572   4.194   4.462
30743WAT     H192471   4.489   4.215   4.411
30743WAT     H292472   4.652   4.211   4.404
30744WAT      O92473   3.893   2.012   4.401
30744WAT     H192474   3.941   1.993   4.316
30744WAT     H292475   3.795   2.021   4.382
30745WAT      O92476   1.902   2.752   6.279
30745WAT     H192477   1.830   2.803   6.232
30745WAT     H292478   1.986   2.808   6.282
30746WAT      O92479   2.295   0.440   9.369
30746WAT     H192480   2.254   0.493   9.295
30746WAT     H292481   2.275   0.343   9.356
30747WAT      O92482   4.820   3.782   6.847
30747WAT     H192483   4.847   3.734   6.930
30747WAT     H292484   4.741   3.736   6.806
30748WAT      O92485   9.289   7.741   7.288
30748WAT     H192486   9.285   7.805   7.210
30748WAT     H292487   9.335   7.785   7.365
30749WAT      O92488   1.076   8.501   7.343
30749WAT     H192489   0.983   8.529   7.319
30749WAT     H292490   1.141   8.571   7.314
30750WAT      O92491   4.344   2.918   1.649
30750WAT     H192492   4.310   2.860   1.575
30750WAT     H292493   4.404   2.865   1.709
30751WAT      O92494   7.197   1.146   3.512
30751WAT     H192495   7.230   1.162   3.605
30751WAT     H292496   7.143   1.062   3.509
30752WAT      O92497   4.554   4.976   7.377
30752WAT     H192498   4.526   4.883   7.402
30752WAT     H292499   4.473   5.034   7.370
30753WAT      O92500   8.588   1.464   8.015
30753WAT     H192501   8.521   1.401   8.053
30753WAT     H292502   8.615   1.530   8.085
30754WAT      O92503   9.095   7.120   8.984
30754WAT     H192504   9.038   7.055   8.934
30754WAT     H292505   9.057   7.212   8.975
30755WAT      O92506   6.208   5.421   2.369
30755WAT     H192507   6.140   5.494   2.380
30755WAT     H292508   6.297   5.454   2.401
30756WAT      O92509   1.439   3.633   9.245
30756WAT     H192510   1.391   3.560   9.195
30756WAT     H292511   1.535   3.606   9.258
30757WAT      O92512   2.910   1.784   1.466
30757WAT     H192513   2.958   1.731   1.536
30757WAT     H292514   2.843   1.844   1.509
30758WAT      O92515   1.612   5.851   9.424
30758WAT     H192516   1.697   5.828   9.471
30758WAT     H292517   1.595   5.784   9.351
30759WAT      O92518   6.681   8.050   4.435
30759WAT     H192519   6.725   7.966   4.403
30759WAT     H292520   6.751   8.121   4.447
30760WAT      O92521   3.249   9.188   6.115
30760WAT     H192522   3.321   9.127   6.149
30760WAT     H292523   3.198   9.226   6.192
30761WAT      O92524   8.320   2.016   7.416
30761WAT     H192525   8.364   2.041   7.503
30761WAT     H292526   8.291   2.099   7.369
30762WAT      O92527   9.185   0.831   2.827
30762WAT     H192528   9.122   0.799   2.897
30762WAT     H292529   9.215   0.924   2.850
30763WAT      O92530   3.254   7.393   6.125
30763WAT     H192531   3.240   7.419   6.220
30763WAT     H292532   3.351   7.403   6.101
30764WAT      O92533   8.265   2.301   7.379
30764WAT     H192534   8.238   2.272   7.470
30764WAT     H292535   8.192   2.354   7.337
30765WAT      O92536   3.681   4.501   8.608
30765WAT     H192537   3.727   4.563   8.544
30765WAT     H292538   3.630   4.554   8.675
30766WAT      O92539   5.572   9.190   2.752
30766WAT     H192540   5.544   9.281   2.723
30766WAT     H292541   5.607   9.139   2.672
30767WAT      O92542   7.682   5.583   7.682
30767WAT     H192543   7.770   5.597   7.636
30767WAT     H292544   7.670   5.653   7.752
30768WAT      O92545   5.544   3.718   6.628
30768WAT     H192546   5.579   3.811   6.620
30768WAT     H292547   5.483   3.699   6.551
30769WAT      O92548   0.104   7.977   6.142
30769WAT     H192549   0.119   8.075   6.131
30769WAT     H292550   0.054   7.942   6.063
30770WAT      O92551   3.303   5.012   4.016
30770WAT     H192552   3.338   4.990   3.925
30770WAT     H292553   3.371   4.986   4.085
30771WAT      O92554   0.568   8.239   7.082
30771WAT     H192555   0.503   8.246   7.158
30771WAT     H292556   0.528   8.280   7.000
30772WAT      O92557   6.178   0.504   6.575
30772WAT     H192558   6.147   0.447   6.499
30772WAT     H292559   6.207   0.446   6.651
30773WAT      O92560   0.351   5.965   1.662
30773WAT     H192561   0.265   5.924   1.631
30773WAT     H292562   0.418   5.892   1.679
30774WAT      O92563   4.339   1.538   9.393
30774WAT     H192564   4.285   1.474   9.339
30774WAT     H292565   4.429   1.498   9.411
30775WAT      O92566   0.469   2.568   5.849
30775WAT     H192567   0.378   2.599   5.877
30775WAT     H292568   0.536   2.598   5.917
30776WAT      O92569   4.257   7.296   2.387
30776WAT     H192570   4.233   7.386   2.350
30776WAT     H292571   4.194   7.272   2.460
30777WAT      O92572   7.979   0.139   7.746
30777WAT     H192573   8.023   0.214   7.796
30777WAT     H292574   7.884   0.130   7.776
30778WAT      O92575   4.272   8.628   8.217
30778WAT     H192576   4.203   8.672   8.159
30778WAT     H292577   4.227   8.579   8.291
30779WAT      O92578   3.168   2.866   5.068
30779WAT     H192579   3.175   2.960   5.036
30779WAT     H292580   3.216   2.806   5.004
30780WAT      O92581   9.560   6.732   2.998
30780WAT     H192582   9.625   6.730   3.073
30780WAT     H292583   9.529   6.826   2.984
30781WAT      O92584   6.672   5.358   8.266
30781WAT     H192585   6.712   5.448   8.286
30781WAT     H292586   6.653   5.311   8.351
30782WAT      O92587   0.313   8.235   3.195
30782WAT     H192588   0.315   8.335   3.200
30782WAT     H292589   0.242   8.206   3.131
30783WAT      O92590   6.047   2.790   1.496
30783WAT     H192591   6.038   2.862   1.565
30783WAT     H292592   6.142   2.782   1.468
30784WAT      O92593   9.782   2.347   3.026
30784WAT     H192594   9.816   2.329   3.118
30784WAT     H292595   9.755   2.261   2.983
30785WAT      O92596   1.134   7.029   7.872
30785WAT     H192597   1.073   7.107   7.887
30785WAT     H292598   1.129   7.000   7.777
30786WAT      O92599   2.823   3.525   7.491
30786WAT     H192600   2.764   3.569   7.423
30786WAT     H292601   2.790   3.547   7.583
30787WAT      O92602   5.383   6.989   4.598
30787WAT     H192603   5.314   6.933   4.551
30787WAT     H292604   5.473   6.947   4.585
30788WAT      O92605   5.770   5.912   6.069
30788WAT     H192606   5.781   5.972   5.990
30788WAT     H292607   5.677   5.875   6.071
30789WAT      O92608   2.448   6.283   0.228
30789WAT     H192609   2.433   6.318   0.321
30789WAT     H292610   2.476   6.187   0.234
30790WAT      O92611   6.768   2.488   9.821
30790WAT     H192612   6.827   2.543   9.879
30790WAT     H292613   6.769   2.524   9.728
30791WAT      O92614   9.497   4.710   7.354
30791WAT     H192615   9.404   4.704   7.390
30791WAT     H292616   9.537   4.619   7.349
30792WAT      O92617   4.214   3.458   2.230
30792WAT     H192618   4.234   3.401   2.310
30792WAT     H292619   4.121   3.439   2.199
30793WAT      O92620   2.686   5.928   8.457
30793WAT     H192621   2.734   5.843   8.481
30793WAT     H292622   2.721   5.962   8.370
30794WAT      O92623   0.585   7.063   1.828
30794WAT     H192624   0.611   7.114   1.747
30794WAT     H292625   0.622   7.107   1.909
30795WAT      O92626   9.376   6.193   1.337
30795WAT     H192627   9.429   6.111   1.316
30795WAT     H292628   9.285   6.184   1.297
30796WAT      O92629   4.706   6.352   7.776
30796WAT     H192630   4.796   6.343   7.733
30796WAT     H292631   4.676   6.447   7.770
30797WAT      O92632   4.709   6.715   2.417
30797WAT     H192633   4.708   6.811   2.444
30797WAT     H292634   4.684   6.658   2.495
30798WAT      O92635   7.548   2.208   4.208
30798WAT     H192636   7.453   2.176   4.211
30798WAT     H292637   7.571   2.250   4.295
30799WAT      O92638   3.279   2.135   0.977
30799WAT     H192639   3.305   2.226   0.943
30799WAT     H292640   3.348   2.103   1.042
30800WAT      O92641   5.141   0.276   7.213
30800WAT     H192642   5.153   0.350   7.280
30800WAT     H292643   5.044   0.267   7.191
30801WAT      O92644   9.280   2.066   4.657
30801WAT     H192645   9.213   2.018   4.601
30801WAT     H292646   9.289   2.161   4.626
30802WAT      O92647   2.955   6.665   8.902
30802WAT     H192648   3.023   6.654   8.829
30802WAT     H292649   2.897   6.744   8.881
30803WAT      O92650   5.264   9.719   2.536
30803WAT     H192651   5.364   9.716   2.537
30803WAT     H292652   5.232   9.712   2.441
30804WAT      O92653   0.345   4.283   7.813
30804WAT     H192654   0.259   4.293   7.763
30804WAT     H292655   0.413   4.240   7.753
30805WAT      O92656   3.152   1.218   4.184
30805WAT     H192657   3.163   1.243   4.281
30805WAT     H292658   3.226   1.258   4.131
30806WAT      O92659   2.191   8.746   8.117
30806WAT     H192660   2.256   8.737   8.192
30806WAT     H292661   2.234   8.795   8.042
30807WAT      O92662   2.018   4.853   0.044
30807WAT     H192663   1.996   4.813   0.133
30807WAT     H292664   2.023   4.781  -0.025
30808WAT      O92665   9.266   8.273   7.601
30808WAT     H192666   9.316   8.219   7.668
30808WAT     H292667   9.252   8.366   7.637
30809WAT      O92668   2.707   0.151   2.077
30809WAT     H192669   2.615   0.116   2.058
30809WAT     H292670   2.746   0.189   1.993
30810WAT      O92671   4.142   2.717   4.052
30810WAT     H192672   4.132   2.808   4.093
30810WAT     H292673   4.210   2.720   3.980
30811WAT      O92674   5.034   9.252   3.595
30811WAT     H192675   5.133   9.249   3.586
30811WAT     H292676   5.009   9.311   3.672
30812WAT      O92677   4.301   8.598   9.659
30812WAT     H192678   4.212   8.552   9.658
30812WAT     H292679   4.368   8.541   9.612
30813WAT      O92680   8.614   7.883   9.115
30813WAT     H192681   8.609   7.794   9.070
30813WAT     H292682   8.652   7.950   9.051
30814WAT      O92683   0.649   1.882   5.353
30814WAT     H192684   0.679   1.914   5.264
30814WAT     H292685   0.694   1.794   5.374
30815WAT      O92686   1.805   6.071   1.565
30815WAT     H192687   1.853   6.004   1.624
30815WAT     H292688   1.749   6.022   1.499
30816WAT      O92689   5.257   3.585   0.754
30816WAT     H192690   5.158   3.581   0.770
30816WAT     H292691   5.301   3.510   0.802
30817WAT      O92692   0.047   4.434   0.629
30817WAT     H192693  -0.016   4.488   0.574
30817WAT     H292694   0.101   4.495   0.687
30818WAT      O92695   8.578   3.658   7.379
30818WAT     H192696   8.637   3.639   7.458
30818WAT     H292697   8.498   3.598   7.383
30819WAT      O92698   3.994   9.382   0.781
30819WAT     H192699   4.071   9.324   0.754
30819WAT     H292700   3.914   9.358   0.727
30820WAT      O92701   0.458   1.106   6.495
30820WAT     H192702   0.388   1.177   6.502
30820WAT     H292703   0.514   1.106   6.578
30821WAT      O92704   6.025   8.595   3.235
30821WAT     H192705   5.966   8.517   3.216
30821WAT     H292706   6.027   8.655   3.154
30822WAT      O92707   0.707   0.075   2.129
30822WAT     H192708   0.645   0.086   2.052
30822WAT     H292709   0.769  -0.002   2.111
30823WAT      O92710   8.360   5.511   1.333
30823WAT     H192711   8.368   5.537   1.237
30823WAT     H292712   8.382   5.414   1.344
30824WAT      O92713   4.333   0.877   8.093
30824WAT     H192714   4.260   0.873   8.026
30824WAT     H292715   4.361   0.972   8.107
30825WAT      O92716   8.987   6.225   8.222
30825WAT     H192717   9.029   6.316   8.216
30825WAT     H292718   8.960   6.207   8.316
30826WAT      O92719   3.776   5.526   0.833
30826WAT     H192720   3.858   5.582   0.837
30826WAT     H292721   3.744   5.519   0.739
30827WAT      O92722   8.811   0.889   9.851
30827WAT     H192723   8.869   0.968   9.831
30827WAT     H292724   8.822   0.863   9.947
30828WAT      O92725   8.819   8.394   4.157
30828WAT     H192726   8.735   8.386   4.102
30828WAT     H292727   8.888   8.331   4.122
30829WAT      O92728   0.274   0.164   8.618
30829WAT     H192729   0.357   0.159   8.561
30829WAT     H292730   0.300   0.192   8.711
30830WAT      O92731   6.003   5.228   0.021
30830WAT     H192732   5.959   5.201   0.107
30830WAT     H292733   6.075   5.294   0.039
30831WAT      O92734   0.897   6.403   0.428
30831WAT     H192735   0.852   6.352   0.501
30831WAT     H292736   0.960   6.343   0.379
30832WAT      O92737   0.328   4.910   1.938
30832WAT     H192738   0.334   4.877   1.844
30832WAT     H292739   0.329   5.010   1.939
30833WAT      O92740   1.769   4.763   3.699
30833WAT     H192741   1.717   4.826   3.757
30833WAT     H292742   1.866   4.770   3.720
30834WAT      O92743   9.118   8.513   8.837
30834WAT     H192744   9.153   8.567   8.913
30834WAT     H292745   9.180   8.523   8.759
30835WAT      O92746   1.130   5.784   2.377
30835WAT     H192747   1.156   5.846   2.303
30835WAT     H292748   1.141   5.689   2.346
30836WAT      O92749   3.406   6.887   5.128
30836WAT     H192750   3.428   6.901   5.225
30836WAT     H292751   3.480   6.924   5.071
30837WAT      O92752   1.497   2.338   3.901
30837WAT     H192753   1.445   2.267   3.855
30837WAT     H292754   1.561   2.297   3.966
30838WAT      O92755   0.127   9.607   2.471
30838WAT     H192756   0.206   9.629   2.413
30838WAT     H292757   0.132   9.660   2.556
30839WAT      O92758   8.892   5.475   3.359
30839WAT     H192759   8.970   5.419   3.390
30839WAT     H292760   8.926   5.557   3.315
30840WAT      O92761   2.682   9.692   2.147
30840WAT     H192762   2.718   9.786   2.150
30840WAT     H292763   2.604   9.684   2.208
30841WAT      O92764   0.327   1.106   5.559
30841WAT     H192765   0.400   1.083   5.494
30841WAT     H292766   0.365   1.165   5.631
30842WAT      O92767   9.308   6.442   4.619
30842WAT     H192768   9.306   6.541   4.618
30842WAT     H292769   9.297   6.407   4.525
30843WAT      O92770   3.917   0.376   8.312
30843WAT     H192771   3.858   0.369   8.232
30843WAT     H292772   3.979   0.454   8.301
30844WAT      O92773   9.478   7.887   6.936
30844WAT     H192774   9.480   7.985   6.952
30844WAT     H292775   9.386   7.852   6.954
30845WAT      O92776   9.405   5.499   2.015
30845WAT     H192777   9.370   5.557   2.089
30845WAT     H292778   9.340   5.425   1.997
30846WAT      O92779   5.959   8.005   8.760
30846WAT     H192780   5.991   7.957   8.678
30846WAT     H292781   6.030   8.069   8.791
30847WAT      O92782   5.346   6.739   2.220
30847WAT     H192783   5.293   6.756   2.302
30847WAT     H292784   5.439   6.713   2.245
30848WAT      O92785   8.205   2.035   0.828
30848WAT     H192786   8.162   2.070   0.745
30848WAT     H292787   8.272   2.101   0.862
30849WAT      O92788   6.996   8.816   1.070
30849WAT     H192789   6.949   8.778   0.990
30849WAT     H292790   7.093   8.830   1.049
30850WAT      O92791   2.785   1.147   4.767
30850WAT     H192792   2.732   1.105   4.693
30850WAT     H292793   2.725   1.165   4.845
30851WAT      O92794   0.305   0.046   7.501
30851WAT     H192795   0.383  -0.017   7.507
30851WAT     H292796   0.281   0.060   7.405
30852WAT      O92797   4.530   1.843   3.183
30852WAT     H192798   4.539   1.770   3.115
30852WAT     H292799   4.442   1.890   3.170
30853WAT      O92800   4.687   5.410   1.887
30853WAT     H192801   4.731   5.499   1.895
30853WAT     H292802   4.704   5.357   1.970
30854WAT      O92803   1.141   2.731   3.932
30854WAT     H192804   1.217   2.670   3.956
30854WAT     H292805   1.055   2.681   3.940
30855WAT      O92806   5.945   5.128   6.522
30855WAT     H192807   5.983   5.214   6.556
30855WAT     H292808   6.018   5.062   6.507
30856WAT      O92809   5.301   8.544   2.644
30856WAT     H192810   5.290   8.621   2.582
30856WAT     H292811   5.398   8.517   2.648
30857WAT      O92812   2.001   9.357   4.525
30857WAT     H192813   2.050   9.349   4.439
30857WAT     H292814   2.047   9.425   4.583
30858WAT      O92815   9.429   9.068   7.587
30858WAT     H192816   9.474   9.128   7.521
30858WAT     H292817   9.395   8.987   7.540
30859WAT      O92818   8.868   5.069   4.868
30859WAT     H192819   8.857   5.060   4.769
30859WAT     H292820   8.965   5.084   4.889
30860WAT      O92821   0.483   6.963   0.331
30860WAT     H192822   0.486   6.879   0.278
30860WAT     H292823   0.532   7.035   0.283
30861WAT      O92824   3.110   5.810   1.689
30861WAT     H192825   3.047   5.858   1.750
30861WAT     H292826   3.175   5.757   1.744
30862WAT      O92827   4.387   9.016   6.042
30862WAT     H192828   4.388   8.939   6.105
30862WAT     H292829   4.395   9.102   6.093
30863WAT      O92830   0.736   8.636   4.453
30863WAT     H192831   0.736   8.554   4.395
30863WAT     H292832   0.714   8.610   4.547
30864WAT      O92833   6.392   5.805   2.902
30864WAT     H192834   6.474   5.754   2.874
30864WAT     H292835   6.417   5.899   2.923
30865WAT      O92836   6.138   6.850   8.810
30865WAT     H192837   6.195   6.846   8.892
30865WAT     H292838   6.048   6.887   8.833
30866WAT      O92839   6.087   2.843   0.287
30866WAT     H192840   6.028   2.824   0.366
30866WAT     H292841   6.153   2.769   0.275
30867WAT      O92842   0.370   2.922   3.287
30867WAT     H192843   0.378   2.977   3.370
30867WAT     H292844   0.461   2.902   3.250
30868WAT      O92845   6.137   6.745   0.018
30868WAT     H192846   6.118   6.790   0.105
30868WAT     H292847   6.228   6.771  -0.013
30869WAT      O92848   6.475   6.673   5.770
30869WAT     H192849   6.502   6.623   5.688
30869WAT     H292850   6.522   6.761   5.773
30870WAT      O92851   9.668   8.721   7.530
30870WAT     H192852   9.663   8.767   7.619
30870WAT     H292853   9.762   8.691   7.514
30871WAT      O92854   8.946   1.290   3.084
30871WAT     H192855   8.972   1.349   3.160
30871WAT     H292856   8.881   1.339   3.025
30872WAT      O92857   7.168   7.921   0.109
30872WAT     H192858   7.163   8.006   0.161
30872WAT     H292859   7.263   7.902   0.085
30873WAT      O92860   4.224   8.382   3.368
30873WAT     H192861   4.240   8.288   3.397
30873WAT     H292862   4.245   8.444   3.444
30874WAT      O92863   0.776   4.448   9.772
30874WAT     H192864   0.766   4.513   9.697
30874WAT     H292865   0.831   4.370   9.742
30875WAT      O92866   9.810   6.099   5.534
30875WAT     H192867   9.743   6.123   5.464
30875WAT     H292868   9.767   6.039   5.601
30876WAT      O92869   1.455   9.455   2.067
30876WAT     H192870   1.459   9.409   1.978
30876WAT     H292871   1.543   9.447   2.113
30877WAT      O92872   8.291   0.220   0.008
30877WAT     H192873   8.204   0.215  -0.041
30877WAT     H292874   8.367   0.206  -0.056
30878WAT      O92875   6.696   2.307   5.707
30878WAT     H192876   6.673   2.398   5.671
30878WAT     H292877   6.731   2.250   5.633
30879WAT      O92878   6.248   6.897   1.602
30879WAT     H192879   6.212   6.891   1.695
30879WAT     H292880   6.218   6.817   1.550
30880WAT      O92881   3.193   3.646   5.531
30880WAT     H192882   3.281   3.599   5.541
30880WAT     H292883   3.152   3.661   5.621
30881WAT      O92884   0.320   4.158   1.026
30881WAT     H192885   0.231   4.160   1.071
30881WAT     H292886   0.335   4.245   0.979
30882WAT      O92887   5.105   2.375   7.371
30882WAT     H192888   5.102   2.458   7.315
30882WAT     H292889   5.045   2.306   7.331
30883WAT      O92890   1.353   6.289   1.344
30883WAT     H192891   1.427   6.223   1.353
30883WAT     H292892   1.326   6.297   1.248
30884WAT      O92893   2.601   6.417   5.105
30884WAT     H192894   2.658   6.493   5.073
30884WAT     H292895   2.530   6.451   5.166
30885WAT      O92896   0.492   4.539   2.014
30885WAT     H192897   0.591   4.533   2.003
30885WAT     H292898   0.471   4.608   2.084
30886WAT      O92899   3.827   6.139   2.114
30886WAT     H192900   3.797   6.218   2.061
30886WAT     H292901   3.777   6.135   2.200
30887WAT      O92902   1.613   8.718   4.236
30887WAT     H192903   1.668   8.766   4.305
30887WAT     H292904   1.669   8.703   4.154
30888WAT      O92905   8.313   9.131   1.923
30888WAT     H192906   8.243   9.069   1.957
30888WAT     H292907   8.367   9.085   1.853
30889WAT      O92908   2.135   2.023   6.736
30889WAT     H192909   2.211   2.063   6.685
30889WAT     H292910   2.153   2.030   6.834
30890WAT      O92911   6.951   1.216   3.262
30890WAT     H192912   6.896   1.239   3.182
30890WAT     H292913   7.044   1.195   3.234
30891WAT      O92914   6.062   7.004   2.834
30891WAT     H192915   6.062   7.050   2.745
30891WAT     H292916   6.071   6.906   2.820
30892WAT      O92917   6.287   8.770   1.975
30892WAT     H192918   6.213   8.708   2.000
30892WAT     H292919   6.341   8.729   1.901
30893WAT      O92920   2.112   3.863   8.415
30893WAT     H192921   2.094   3.936   8.481
30893WAT     H292922   2.205   3.871   8.380
30894WAT      O92923   6.548   9.810   5.064
30894WAT     H192924   6.502   9.791   4.977
30894WAT     H292925   6.519   9.900   5.097
30895WAT      O92926   5.798   1.551   7.773
30895WAT     H192927   5.795   1.647   7.744
30895WAT     H292928   5.805   1.547   7.873
30896WAT      O92929   4.426   7.631   8.608
30896WAT     H192930   4.479   7.553   8.574
30896WAT     H292931   4.489   7.703   8.639
30897WAT      O92932   3.205   0.038   8.046
30897WAT     H192933   3.162   0.116   8.001
30897WAT     H292934   3.302   0.035   8.020
30898WAT      O92935   6.307   0.074   8.759
30898WAT     H192936   6.399   0.113   8.763
30898WAT     H292937   6.272   0.063   8.852
30899WAT      O92938   1.615   2.023   8.518
30899WAT     H192939   1.611   2.122   8.503
30899WAT     H292940   1.674   1.981   8.449
30900WAT      O92941   3.566   3.276   6.013
30900WAT     H192942   3.528   3.263   6.105
30900WAT     H292943   3.644   3.215   6.001
30901WAT      O92944   0.484   8.719   9.759
30901WAT     H192945   0.566   8.766   9.725
30901WAT     H292946   0.420   8.787   9.796
30902WAT      O92947   7.945   3.153   4.122
30902WAT     H192948   7.921   3.151   4.219
30902WAT     H292949   7.988   3.241   4.100
30903WAT      O92950   6.922   0.055   3.930
30903WAT     H192951   6.884  -0.037   3.916
30903WAT     H292952   6.880   0.118   3.865
30904WAT      O92953   3.369   7.993   2.738
30904WAT     H192954   3.460   7.964   2.709
30904WAT     H292955   3.353   7.964   2.832
30905WAT      O92956   6.994   2.884   9.812
30905WAT     H192957   6.948   2.820   9.751
30905WAT     H292958   7.064   2.933   9.761
30906WAT      O92959   0.515   5.492   7.385
30906WAT     H192960   0.498   5.591   7.382
30906WAT     H292961   0.429   5.445   7.407
30907WAT      O92962   5.033   5.146   4.434
30907WAT     H192963   4.944   5.114   4.400
30907WAT     H292964   5.085   5.069   4.471
30908WAT      O92965   1.460   6.872   1.066
30908WAT     H192966   1.409   6.958   1.056
30908WAT     H292967   1.553   6.885   1.034
30909WAT      O92968   1.148   3.108   1.819
30909WAT     H192969   1.053   3.139   1.815
30909WAT     H292970   1.196   3.136   1.736
30910WAT      O92971   8.362   7.038   8.735
30910WAT     H192972   8.426   6.999   8.801
30910WAT     H292973   8.383   7.002   8.644
30911WAT      O92974   2.204   0.877   5.680
30911WAT     H192975   2.288   0.907   5.634
30911WAT     H292976   2.166   0.954   5.732
30912WAT      O92977   1.285   7.688   3.827
30912WAT     H192978   1.291   7.623   3.751
30912WAT     H292979   1.190   7.694   3.858
30913WAT      O92980   7.296   1.242   3.018
30913WAT     H192981   7.325   1.163   2.963
30913WAT     H292982   7.277   1.212   3.111
30914WAT      O92983   9.219   4.861   3.217
30914WAT     H192984   9.120   4.867   3.218
30914WAT     H292985   9.249   4.788   3.279
30915WAT      O92986   4.283   2.686   1.480
30915WAT     H192987   4.231   2.664   1.562
30915WAT     H292988   4.233   2.656   1.399
30916WAT      O92989   8.490   1.213   8.124
30916WAT     H192990   8.549   1.207   8.204
30916WAT     H292991   8.479   1.122   8.084
30917WAT      O92992   9.738   7.108   1.186
30917WAT     H192993   9.781   7.131   1.273
30917WAT     H292994   9.766   7.016   1.158
30918WAT      O92995   9.727   6.714   9.315
30918WAT     H192996   9.805   6.654   9.299
30918WAT     H292997   9.701   6.710   9.412
30919WAT      O92998   0.292   2.919   1.267
30919WAT     H192999   0.373   2.863   1.285
30919WAT     H293000   0.210   2.864   1.285
30920WAT      O93001   8.346   3.691   6.246
30920WAT     H193002   8.254   3.711   6.213
30920WAT     H293003   8.352   3.716   6.343
30921WAT      O93004   7.448   2.868   4.322
30921WAT     H193005   7.447   2.818   4.236
30921WAT     H293006   7.355   2.876   4.357
30922WAT      O93007   0.432   7.707   8.085
30922WAT     H193008   0.504   7.755   8.035
30922WAT     H293009   0.381   7.771   8.142
30923WAT      O93010   6.214   5.667   3.067
30923WAT     H193011   6.296   5.701   3.021
30923WAT     H293012   6.146   5.739   3.070
30924WAT      O93013   6.280   4.447   6.596
30924WAT     H193014   6.221   4.391   6.654
30924WAT     H293015   6.251   4.437   6.501
30925WAT      O93016   7.234   5.939   3.027
30925WAT     H193017   7.290   5.937   3.110
30925WAT     H293018   7.292   5.946   2.947
30926WAT      O93019   6.114   2.371   1.157
30926WAT     H193020   6.110   2.373   1.057
30926WAT     H293021   6.047   2.306   1.192
30927WAT      O93022   2.774   0.220   9.002
30927WAT     H193023   2.722   0.196   9.084
30927WAT     H293024   2.723   0.191   8.921
30928WAT      O93025   8.897   8.312   3.484
30928WAT     H193026   8.929   8.351   3.570
30928WAT     H293027   8.830   8.240   3.504
30929WAT      O93028   9.746   7.652   1.805
30929WAT     H193029   9.684   7.730   1.816
30929WAT     H293030   9.694   7.571   1.777
30930WAT      O93031   1.737   2.612   2.509
30930WAT     H193032   1.820   2.649   2.467
30930WAT     H293033   1.663   2.613   2.442
30931WAT      O93034   3.517   9.069   4.006
30931WAT     H193035   3.520   9.072   4.105
30931WAT     H293036   3.605   9.038   3.971
30932WAT      O93037   4.330   2.493   0.425
30932WAT     H193038   4.404   2.426   0.423
30932WAT     H293039   4.350   2.568   0.363
30933WAT      O93040   1.377   6.973   3.144
30933WAT     H193041   1.449   6.998   3.080
30933WAT     H293042   1.315   7.050   3.156
30934WAT      O93043   9.345   0.715   3.786
30934WAT     H193044   9.420   0.756   3.734
30934WAT     H293045   9.267   0.698   3.725
30935WAT      O93046   5.092   1.066   2.529
30935WAT     H193047   5.012   1.007   2.519
30935WAT     H293048   5.175   1.010   2.530
30936WAT      O93049   7.007   8.393   9.177
30936WAT     H193050   7.103   8.410   9.200
30936WAT     H293051   6.987   8.295   9.189
30937WAT      O93052   9.861   6.087   8.332
30937WAT     H193053   9.779   6.076   8.389
30937WAT     H293054   9.835   6.126   8.244
30938WAT      O93055   6.205   6.763   4.078
30938WAT     H193056   6.294   6.721   4.097
30938WAT     H293057   6.133   6.697   4.097
30939WAT      O93058   4.044   3.795   0.226
30939WAT     H193059   4.096   3.721   0.182
30939WAT     H293060   4.103   3.875   0.235
30940WAT      O93061   7.463   4.104   6.445
30940WAT     H193062   7.424   4.102   6.354
30940WAT     H293063   7.398   4.066   6.511
30941WAT      O93064   6.122   9.672   2.318
30941WAT     H193065   6.022   9.667   2.314
30941WAT     H293066   6.157   9.597   2.375
30942WAT      O93067   0.468   1.591   4.372
30942WAT     H193068   0.566   1.596   4.355
30942WAT     H293069   0.419   1.641   4.300
30943WAT      O93070   5.333   3.490   1.757
30943WAT     H193071   5.287   3.579   1.757
30943WAT     H293072   5.406   3.490   1.825
30944WAT      O93073   6.357   6.992   7.024
30944WAT     H193074   6.272   6.994   7.076
30944WAT     H293075   6.369   7.079   6.977
30945WAT      O93076   5.112   7.971   2.024
30945WAT     H193077   5.210   7.967   2.006
30945WAT     H293078   5.085   7.894   2.081
30946WAT      O93079   6.193   2.794   7.929
30946WAT     H193080   6.162   2.722   7.991
30946WAT     H293081   6.261   2.757   7.865
30947WAT      O93082   8.663   1.630   9.755
30947WAT     H193083   8.689   1.716   9.712
30947WAT     H293084   8.705   1.625   9.846
30948WAT      O93085   5.649   7.735   2.176
30948WAT     H193086   5.748   7.741   2.161
30948WAT     H293087   5.611   7.663   2.118
30949WAT      O93088   1.160   4.138   0.547
30949WAT     H193089   1.066   4.130   0.579
30949WAT     H293090   1.223   4.114   0.621
30950WAT      O93091   2.918   7.227   2.109
30950WAT     H193092   2.949   7.159   2.175
30950WAT     H293093   2.939   7.195   2.016
30951WAT      O93094   7.697   1.852   5.205
30951WAT     H193095   7.696   1.867   5.106
30951WAT     H293096   7.742   1.929   5.250
30952WAT      O93097   6.133   9.544   1.818
30952WAT     H193098   6.181   9.620   1.774
30952WAT     H293099   6.172   9.457   1.787
30953WAT      O93100   4.004   3.602   7.173
30953WAT     H193101   4.010   3.614   7.272
30953WAT     H293102   4.026   3.507   7.150
30954WAT      O93103   5.368   6.477   0.611
30954WAT     H193104   5.311   6.407   0.569
30954WAT     H293105   5.454   6.437   0.641
30955WAT      O93106   3.496   7.140   7.627
30955WAT     H193107   3.570   7.207   7.628
30955WAT     H293108   3.483   7.106   7.534
30956WAT      O93109   4.912   4.732   2.937
30956WAT     H193110   4.835   4.672   2.958
30956WAT     H293111   4.997   4.686   2.959
30957WAT      O93112   3.193   1.027   2.764
30957WAT     H193113   3.285   1.011   2.801
30957WAT     H293114   3.151   1.105   2.812
30958WAT      O93115   7.571   6.241   0.048
30958WAT     H193116   7.619   6.154   0.054
30958WAT     H293117   7.475   6.228   0.073
30959WAT      O93118   2.619   6.869   5.792
30959WAT     H193119   2.554   6.943   5.774
30959WAT     H293120   2.633   6.817   5.708
30960WAT      O93121   6.490   0.784   9.385
30960WAT     H193122   6.534   0.870   9.359
30960WAT     H293123   6.408   0.770   9.329
30961WAT      O93124   9.147   5.198   1.105
30961WAT     H193125   9.202   5.114   1.101
30961WAT     H293126   9.067   5.189   1.046
30962WAT      O93127   3.472   1.589   2.010
30962WAT     H193128   3.381   1.625   2.032
30962WAT     H293129   3.515   1.556   2.094
30963WAT      O93130   7.014   5.458   2.113
30963WAT     H193131   6.972   5.514   2.041
30963WAT     H293132   6.943   5.430   2.178
30964WAT      O93133   4.818   8.719   0.246
30964WAT     H193134   4.766   8.645   0.289
30964WAT     H293135   4.814   8.800   0.305
30965WAT      O93136   8.783   5.466   2.169
30965WAT     H193137   8.717   5.474   2.095
30965WAT     H293138   8.820   5.557   2.191
30966WAT      O93139   0.221   2.388   3.439
30966WAT     H193140   0.224   2.476   3.392
30966WAT     H293141   0.313   2.351   3.447
30967WAT      O93142   7.966   4.933   9.360
30967WAT     H193143   7.911   4.939   9.277
30967WAT     H293144   7.907   4.945   9.440
30968WAT      O93145   8.891   4.446   2.925
30968WAT     H193146   8.867   4.358   2.885
30968WAT     H293147   8.948   4.498   2.862
30969WAT      O93148   4.765   1.554   2.870
30969WAT     H193149   4.847   1.610   2.862
30969WAT     H293150   4.726   1.538   2.780
30970WAT      O93151   2.453   9.228   1.261
30970WAT     H193152   2.416   9.136   1.249
30970WAT     H293153   2.522   9.246   1.191
30971WAT      O93154   4.618   3.684   9.481
30971WAT     H193155   4.553   3.728   9.420
30971WAT     H293156   4.645   3.748   9.553
30972WAT      O93157   0.477   7.293   5.531
30972WAT     H193158   0.425   7.281   5.616
30972WAT     H293159   0.534   7.374   5.538
30973WAT      O93160   3.089   7.775   7.816
30973WAT     H193161   3.153   7.850   7.830
30973WAT     H293162   3.011   7.807   7.763
30974WAT      O93163   0.348   6.577   2.724
30974WAT     H193164   0.382   6.639   2.654
30974WAT     H293165   0.424   6.529   2.767
30975WAT      O93166   0.315   6.761   3.620
30975WAT     H193167   0.361   6.697   3.682
30975WAT     H293168   0.380   6.791   3.549
30976WAT      O93169   4.907   8.631   4.287
30976WAT     H193170   4.881   8.694   4.214
30976WAT     H293171   4.987   8.578   4.258
30977WAT      O93172   1.150   3.738   1.188
30977WAT     H193173   1.249   3.741   1.175
30977WAT     H293174   1.125   3.657   1.240
30978WAT      O93175   8.362   3.083   0.737
30978WAT     H193176   8.452   3.041   0.749
30978WAT     H293177   8.332   3.124   0.824
30979WAT      O93178   7.513   6.700   8.776
30979WAT     H193179   7.608   6.725   8.795
30979WAT     H293180   7.487   6.622   8.833
30980WAT      O93181   6.837   6.231   4.028
30980WAT     H193182   6.821   6.243   4.126
30980WAT     H293183   6.880   6.142   4.013
30981WAT      O93184   3.331   3.616   8.513
30981WAT     H193185   3.364   3.539   8.568
30981WAT     H293186   3.260   3.585   8.450
30982WAT      O93187   1.325   7.361   5.437
30982WAT     H193188   1.314   7.442   5.379
30982WAT     H293189   1.321   7.279   5.381
30983WAT      O93190   4.014   0.643   3.223
30983WAT     H193191   4.058   0.734   3.224
30983WAT     H293192   3.937   0.644   3.160
30984WAT      O93193   0.867   4.088   9.180
30984WAT     H193194   0.795   4.148   9.145
30984WAT     H293195   0.956   4.130   9.163
30985WAT      O93196   4.610   2.952   2.477
30985WAT     H193197   4.604   3.014   2.399
30985WAT     H293198   4.668   2.874   2.453
30986WAT      O93199   9.746   9.222   2.138
30986WAT     H193200   9.649   9.197   2.145
30986WAT     H293201   9.783   9.240   2.228
30987WAT      O93202   8.543   2.293   3.961
30987WAT     H193203   8.602   2.238   3.901
30987WAT     H293204   8.591   2.378   3.986
30988WAT      O93205   9.705   0.562   5.745
30988WAT     H193206   9.776   0.545   5.677
30988WAT     H293207   9.738   0.626   5.814
30989WAT      O93208   2.639   9.607   3.291
30989WAT     H193209   2.714   9.545   3.313
30989WAT     H293210   2.558   9.580   3.342
30990WAT      O93211   0.999   1.743   3.148
30990WAT     H193212   0.949   1.694   3.076
30990WAT     H293213   1.096   1.745   3.125
30991WAT      O93214   6.615   6.392   8.959
30991WAT     H193215   6.548   6.466   8.954
30991WAT     H293216   6.696   6.424   9.009
30992WAT      O93217   7.191   6.095   7.848
30992WAT     H193218   7.131   6.173   7.833
30992WAT     H293219   7.138   6.018   7.883
30993WAT      O93220   3.318   5.303   0.270
30993WAT     H193221   3.412   5.277   0.292
30993WAT     H293222   3.269   5.324   0.355
30994WAT      O93223   4.645   5.226   7.301
30994WAT     H193224   4.598   5.268   7.223
30994WAT     H293225   4.618   5.131   7.310
30995WAT      O93226   0.787   3.540   4.941
30995WAT     H193227   0.849   3.484   4.885
30995WAT     H293228   0.791   3.509   5.036
30996WAT      O93229   2.156   6.054   4.281
30996WAT     H193230   2.240   6.058   4.335
30996WAT     H293231   2.139   6.143   4.240
30997WAT      O93232   8.245   7.447   9.056
30997WAT     H193233   8.277   7.379   8.990
30997WAT     H293234   8.300   7.530   9.048
30998WAT      O93235   1.373   7.904   4.476
30998WAT     H193236   1.318   7.978   4.438
30998WAT     H293237   1.408   7.846   4.402
30999WAT      O93238   2.477   8.068   2.706
30999WAT     H193239   2.560   8.115   2.737
30999WAT     H293240   2.403   8.134   2.696
31000WAT      O93241   8.664   5.827   2.192
31000WAT     H193242   8.644   5.820   2.094
31000WAT     H293243   8.763   5.820   2.207
31001WAT      O93244   6.483   2.148   6.545
31001WAT     H193245   6.413   2.113   6.606
31001WAT     H293246   6.504   2.079   6.476
31002WAT      O93247   8.498   6.554   8.697
31002WAT     H193248   8.578   6.614   8.705
31002WAT     H293249   8.521   6.473   8.644
31003WAT      O93250   1.171   4.434   1.669
31003WAT     H193251   1.211   4.410   1.757
31003WAT     H293252   1.091   4.376   1.652
31004WAT      O93253   5.737   1.269   0.239
31004WAT     H193254   5.719   1.269   0.337
31004WAT     H293255   5.816   1.327   0.220
31005WAT      O93256   1.591   4.865   9.413
31005WAT     H193257   1.539   4.892   9.332
31005WAT     H293258   1.564   4.924   9.490
31006WAT      O93259   1.647   4.697   9.785
31006WAT     H193260   1.554   4.680   9.818
31006WAT     H293261   1.695   4.610   9.774
31007WAT      O93262   6.695   1.127   6.186
31007WAT     H193263   6.788   1.129   6.222
31007WAT     H293264   6.672   1.034   6.157
31008WAT      O93265   6.642   3.950   3.176
31008WAT     H193266   6.687   3.889   3.110
31008WAT     H293267   6.556   3.984   3.137
31009WAT      O93268   2.420   0.778   5.327
31009WAT     H193269   2.448   0.853   5.387
31009WAT     H293270   2.388   0.701   5.383
31010WAT      O93271   4.121   3.556   6.410
31010WAT     H193272   4.181   3.506   6.349
31010WAT     H293273   4.034   3.574   6.364
31011WAT      O93274   5.384   2.952   0.543
31011WAT     H193275   5.475   2.958   0.584
31011WAT     H293276   5.318   2.999   0.602
31012WAT      O93277   4.670   4.189   9.138
31012WAT     H193278   4.762   4.159   9.114
31012WAT     H293279   4.675   4.256   9.212
31013WAT      O93280   6.085   7.924   9.022
31013WAT     H193281   6.041   7.938   8.934
31013WAT     H293282   6.082   7.827   9.046
31014WAT      O93283   2.906   0.010   6.958
31014WAT     H193284   2.937  -0.052   7.029
31014WAT     H293285   2.829   0.064   6.992
31015WAT      O93286   4.434   8.645   8.529
31015WAT     H193287   4.462   8.591   8.450
31015WAT     H293288   4.337   8.669   8.520
31016WAT      O93289   2.382   1.262   1.875
31016WAT     H193290   2.460   1.225   1.923
31016WAT     H293291   2.304   1.200   1.884
31017WAT      O93292   3.218   5.953   9.608
31017WAT     H193293   3.305   5.969   9.654
31017WAT     H293294   3.218   5.999   9.520
31018WAT      O93295   2.483   1.737   9.847
31018WAT     H193296   2.537   1.821   9.855
31018WAT     H293297   2.406   1.740   9.911
31019WAT      O93298   4.596   4.557   8.995
31019WAT     H193299   4.686   4.597   9.010
31019WAT     H293300   4.570   4.503   9.075
31020WAT      O93301   3.657   6.149   1.394
31020WAT     H193302   3.667   6.153   1.294
31020WAT     H293303   3.744   6.172   1.437
31021WAT      O93304   3.248   0.429   7.581
31021WAT     H193305   3.152   0.432   7.606
31021WAT     H293306   3.293   0.355   7.631
31022WAT      O93307   8.161   5.056   1.803
31022WAT     H193308   8.150   5.140   1.857
31022WAT     H293309   8.220   4.992   1.853
31023WAT      O93310   6.724   8.670   3.649
31023WAT     H193311   6.732   8.698   3.554
31023WAT     H293312   6.728   8.570   3.654
31024WAT      O93313   1.331   3.230   2.644
31024WAT     H193314   1.248   3.205   2.595
31024WAT     H293315   1.410   3.183   2.605
31025WAT      O93316   0.731   6.712   3.226
31025WAT     H193317   0.649   6.765   3.207
31025WAT     H293318   0.812   6.765   3.200
31026WAT      O93319   4.963   8.242   1.013
31026WAT     H193320   5.039   8.247   1.078
31026WAT     H293321   4.998   8.225   0.921
31027WAT      O93322   7.452   2.879   8.899
31027WAT     H193323   7.376   2.944   8.907
31027WAT     H293324   7.469   2.861   8.802
31028WAT      O93325   3.949   9.839   7.569
31028WAT     H193326   3.899   9.766   7.616
31028WAT     H293327   3.886   9.913   7.545
31029WAT      O93328   7.468   8.429   2.743
31029WAT     H193329   7.450   8.516   2.697
31029WAT     H293330   7.553   8.436   2.795
31030WAT      O93331   1.670   3.630   4.007
31030WAT     H193332   1.573   3.607   4.001
31030WAT     H293333   1.700   3.672   3.921
31031WAT      O93334   8.697   4.888   5.299
31031WAT     H193335   8.739   4.899   5.209
31031WAT     H293336   8.751   4.823   5.353
31032WAT      O93337   1.674   0.981   1.941
31032WAT     H193338   1.691   0.883   1.947
31032WAT     H293339   1.722   1.027   2.016
31033WAT      O93340   1.569   6.794   2.412
31033WAT     H193341   1.558   6.816   2.509
31033WAT     H293342   1.647   6.845   2.375
31034WAT      O93343   2.484   0.370   5.449
31034WAT     H193344   2.521   0.449   5.497
31034WAT     H293345   2.403   0.398   5.396
31035WAT      O93346   0.850   7.879   2.302
31035WAT     H193347   0.821   7.908   2.394
31035WAT     H293348   0.948   7.894   2.293
31036WAT      O93349   3.824   8.579   7.107
31036WAT     H193350   3.742   8.522   7.117
31036WAT     H293351   3.858   8.572   7.014
31037WAT      O93352   1.505   7.398   3.889
31037WAT     H193353   1.502   7.302   3.859
31037WAT     H293354   1.439   7.411   3.962
31038WAT      O93355   1.072   8.617   5.263
31038WAT     H193356   1.071   8.615   5.163
31038WAT     H293357   1.060   8.711   5.295
31039WAT      O93358   4.508   7.879   2.642
31039WAT     H193359   4.514   7.870   2.542
31039WAT     H293360   4.415   7.858   2.671
31040WAT      O93361   2.390   6.835   1.015
31040WAT     H193362   2.335   6.826   0.931
31040WAT     H293363   2.369   6.759   1.077
31041WAT      O93364   5.191   0.939   3.619
31041WAT     H193365   5.114   0.969   3.563
31041WAT     H293366   5.249   1.017   3.642
31042WAT      O93367   5.508   6.059   5.728
31042WAT     H193368   5.463   6.019   5.808
31042WAT     H293369   5.473   6.016   5.645
31043WAT      O93370   9.828   3.243   4.568
31043WAT     H193371   9.750   3.263   4.627
31043WAT     H293372   9.913   3.261   4.618
31044WAT      O93373   0.580   5.668   8.980
31044WAT     H193374   0.513   5.741   8.993
31044WAT     H293375   0.621   5.676   8.889
31045WAT      O93376   9.546   8.803   4.436
31045WAT     H193377   9.451   8.798   4.467
31045WAT     H293378   9.573   8.899   4.427
31046WAT      O93379   8.233   7.083   3.090
31046WAT     H193380   8.154   7.080   3.152
31046WAT     H293381   8.246   6.993   3.048
31047WAT      O93382   1.928   1.800   3.519
31047WAT     H193383   1.946   1.739   3.442
31047WAT     H293384   1.863   1.756   3.582
31048WAT      O93385   1.653   3.231   1.842
31048WAT     H193386   1.706   3.156   1.882
31048WAT     H293387   1.679   3.241   1.746
31049WAT      O93388   8.926   4.616   8.074
31049WAT     H193389   8.863   4.612   7.997
31049WAT     H293390   9.015   4.580   8.046
31050WAT      O93391   1.672   1.157   9.886
31050WAT     H193392   1.713   1.247   9.876
31050WAT     H293393   1.598   1.146   9.819
31051WAT      O93394   5.870   0.494   1.412
31051WAT     H193395   5.932   0.507   1.490
31051WAT     H293396   5.789   0.444   1.443
31052WAT      O93397   6.485   7.887   5.184
31052WAT     H193398   6.453   7.982   5.180
31052WAT     H293399   6.521   7.860   5.094
31053WAT      O93400   2.366   7.892   4.126
31053WAT     H193401   2.290   7.939   4.172
31053WAT     H293402   2.331   7.837   4.051
31054WAT      O93403   3.152   8.565   3.986
31054WAT     H193404   3.105   8.604   3.907
31054WAT     H293405   3.116   8.474   4.005
31055WAT      O93406   5.942   7.629   1.487
31055WAT     H193407   5.944   7.581   1.399
31055WAT     H293408   6.034   7.627   1.528
31056WAT      O93409   4.093   0.243   0.176
31056WAT     H193410   4.114   0.314   0.109
31056WAT     H293411   4.167   0.176   0.178
31057WAT      O93412   8.823   6.509   3.680
31057WAT     H193413   8.786   6.590   3.725
31057WAT     H293414   8.819   6.521   3.581
31058WAT      O93415   7.017   3.142   8.911
31058WAT     H193416   6.975   3.186   8.991
31058WAT     H293417   6.947   3.095   8.859
31059WAT      O93418   6.260   5.451   2.935
31059WAT     H193419   6.228   5.477   2.844
31059WAT     H293420   6.230   5.518   3.002
31060WAT      O93421   0.844   3.976   1.561
31060WAT     H193422   0.920   3.991   1.499
31060WAT     H293423   0.799   4.063   1.581
31061WAT      O93424   8.424   5.510   3.555
31061WAT     H193425   8.436   5.584   3.489
31061WAT     H293426   8.508   5.456   3.560
31062WAT      O93427   4.376   5.520   0.349
31062WAT     H193428   4.315   5.530   0.428
31062WAT     H293429   4.466   5.558   0.371
31063WAT      O93430   5.588   4.699   3.599
31063WAT     H193431   5.645   4.696   3.517
31063WAT     H293432   5.492   4.688   3.574
31064WAT      O93433   9.285   6.163   5.331
31064WAT     H193434   9.382   6.144   5.314
31064WAT     H293435   9.278   6.238   5.397
31065WAT      O93436   3.547   5.461   2.560
31065WAT     H193437   3.504   5.530   2.501
31065WAT     H293438   3.596   5.395   2.504
31066WAT      O93439   0.515   6.680   5.130
31066WAT     H193440   0.534   6.610   5.061
31066WAT     H293441   0.425   6.664   5.170
31067WAT      O93442   9.228   0.771   1.513
31067WAT     H193443   9.169   0.744   1.589
31067WAT     H293444   9.280   0.692   1.480
31068WAT      O93445   5.597   6.490   2.438
31068WAT     H193446   5.606   6.586   2.412
31068WAT     H293447   5.502   6.472   2.465
31069WAT      O93448   0.667   0.343   0.049
31069WAT     H193449   0.629   0.396  -0.027
31069WAT     H293450   0.655   0.394   0.134
31070WAT      O93451   4.308   4.717   2.961
31070WAT     H193452   4.316   4.629   2.914
31070WAT     H293453   4.319   4.703   3.059
31071WAT      O93454   0.917   5.538   3.395
31071WAT     H193455   0.970   5.569   3.315
31071WAT     H293456   0.820   5.536   3.371
31072WAT      O93457   2.659   5.836   3.872
31072WAT     H193458   2.694   5.762   3.929
31072WAT     H293459   2.561   5.848   3.889
31073WAT      O93460   1.602   4.792   7.864
31073WAT     H193461   1.531   4.741   7.814
31073WAT     H293462   1.604   4.761   7.959
31074WAT      O93463   1.019   3.005   2.584
31074WAT     H193464   1.094   2.978   2.645
31074WAT     H293465   1.031   2.961   2.495
31075WAT      O93466   7.110   5.186   2.100
31075WAT     H193467   7.156   5.209   2.014
31075WAT     H293468   7.106   5.267   2.158
31076WAT      O93469   8.165   2.807   8.370
31076WAT     H193470   8.095   2.778   8.435
31076WAT     H293471   8.203   2.726   8.324
31077WAT      O93472   7.334   1.376   1.988
31077WAT     H193473   7.424   1.333   1.979
31077WAT     H293474   7.265   1.317   1.945
31078WAT      O93475   0.674   5.911   6.913
31078WAT     H193476   0.621   5.886   6.832
31078WAT     H293477   0.680   5.832   6.974
31079WAT      O93478   7.950   0.493   0.890
31079WAT     H193479   7.958   0.574   0.947
31079WAT     H293480   7.885   0.429   0.932
31080WAT      O93481   9.358   8.593   0.080
31080WAT     H193482   9.333   8.555  -0.010
31080WAT     H293483   9.318   8.684   0.091
31081WAT      O93484   9.699   5.619   2.890
31081WAT     H193485   9.769   5.563   2.935
31081WAT     H293486   9.634   5.652   2.959
31082WAT      O93487   6.549   8.603   6.847
31082WAT     H193488   6.465   8.561   6.882
31082WAT     H293489   6.529   8.698   6.820
31083WAT      O93490   4.440   6.516   4.573
31083WAT     H193491   4.451   6.484   4.667
31083WAT     H293492   4.345   6.538   4.555
31084WAT      O93493   6.326   6.442   8.884
31084WAT     H193494   6.337   6.469   8.979
31084WAT     H293495   6.386   6.498   8.826
31085WAT      O93496   4.904   6.346   1.489
31085WAT     H193497   4.858   6.267   1.448
31085WAT     H293498   4.852   6.429   1.468
31086WAT      O93499   4.310   2.267   6.395
31086WAT     H193500   4.368   2.246   6.316
31086WAT     H293501   4.238   2.330   6.367
31087WAT      O93502   3.635   3.693   6.105
31087WAT     H193503   3.561   3.666   6.167
31087WAT     H293504   3.633   3.636   6.023
31088WAT      O93505   0.478   7.421   9.449
31088WAT     H193506   0.383   7.433   9.421
31088WAT     H293507   0.508   7.327   9.430
31089WAT      O93508   3.974   3.434   2.129
31089WAT     H193509   3.917   3.394   2.201
31089WAT     H293510   3.918   3.494   2.072
31090WAT      O93511   3.034   7.795   8.344
31090WAT     H193512   3.088   7.865   8.298
31090WAT     H293513   2.962   7.838   8.398
31091WAT      O93514   8.206   0.348   0.258
31091WAT     H193515   8.220   0.305   0.169
31091WAT     H293516   8.192   0.277   0.327
31092WAT      O93517   0.439   1.282   3.946
31092WAT     H193518   0.527   1.250   3.910
31092WAT     H293519   0.444   1.287   4.046
31093WAT      O93520   6.739   9.295   6.009
31093WAT     H193521   6.811   9.332   6.067
31093WAT     H293522   6.675   9.367   5.985
31094WAT      O93523   0.064   7.509   1.103
31094WAT     H193524   0.086   7.602   1.135
31094WAT     H293525   0.141   7.449   1.121
31095WAT      O93526   6.505   0.368   6.644
31095WAT     H193527   6.471   0.276   6.626
31095WAT     H293528   6.566   0.397   6.569
31096WAT      O93529   3.322   4.086   1.093
31096WAT     H193530   3.389   4.084   1.167
31096WAT     H293531   3.361   4.047   1.010
31097WAT      O93532   5.675   7.317   4.758
31097WAT     H193533   5.661   7.289   4.854
31097WAT     H293534   5.588   7.346   4.719
31098WAT      O93535   6.678   8.617   6.580
31098WAT     H193536   6.638   8.628   6.490
31098WAT     H293537   6.613   8.645   6.650
31099WAT      O93538   0.742   9.378   5.559
31099WAT     H193539   0.686   9.460   5.555
31099WAT     H293540   0.787   9.373   5.648
31100WAT      O93541   9.529   0.522   0.652
31100WAT     H193542   9.517   0.576   0.568
31100WAT     H293543   9.566   0.581   0.724
31101WAT      O93544   5.533   9.331   8.697
31101WAT     H193545   5.604   9.272   8.736
31101WAT     H293546   5.573   9.389   8.626
31102WAT      O93547   0.972   6.241   0.040
31102WAT     H193548   1.014   6.161  -0.003
31102WAT     H293549   1.018   6.261   0.126
31103WAT      O93550   6.568   9.142   1.709
31103WAT     H193551   6.610   9.200   1.639
31103WAT     H293552   6.605   9.049   1.702
31104WAT      O93553   6.798   5.673   1.727
31104WAT     H193554   6.730   5.738   1.692
31104WAT     H293555   6.852   5.718   1.799
31105WAT      O93556   0.952   5.890   7.518
31105WAT     H193557   0.990   5.976   7.554
31105WAT     H293558   1.018   5.816   7.530
31106WAT      O93559   0.193   7.965   7.225
31106WAT     H193560   0.225   8.014   7.306
31106WAT     H293561   0.242   7.878   7.217
31107WAT      O93562   5.745   5.626   7.812
31107WAT     H193563   5.714   5.709   7.859
31107WAT     H293564   5.700   5.619   7.724
31108WAT      O93565   9.191   4.527   6.660
31108WAT     H193566   9.136   4.572   6.729
31108WAT     H293567   9.255   4.592   6.619
31109WAT      O93568   0.665   1.488   6.464
31109WAT     H193569   0.609   1.419   6.419
31109WAT     H293570   0.640   1.493   6.561
31110WAT      O93571   8.653   1.039   3.937
31110WAT     H193572   8.599   1.078   4.011
31110WAT     H293573   8.667   0.941   3.954
31111WAT      O93574   9.778   5.688   7.332
31111WAT     H193575   9.801   5.701   7.429
31111WAT     H293576   9.687   5.726   7.315
31112WAT      O93577   6.969   4.702   2.004
31112WAT     H193578   7.069   4.703   2.011
31112WAT     H293579   6.935   4.795   1.994
31113WAT      O93580   6.166   0.753   4.172
31113WAT     H193581   6.223   0.759   4.254
31113WAT     H293582   6.133   0.659   4.161
31114WAT      O93583   2.537   1.634   3.421
31114WAT     H193584   2.624   1.675   3.449
31114WAT     H293585   2.500   1.580   3.497
31115WAT      O93586   2.707   3.630   0.974
31115WAT     H193587   2.703   3.562   0.901
31115WAT     H293588   2.802   3.657   0.988
31116WAT      O93589   2.560   7.931   1.507
31116WAT     H193590   2.557   7.981   1.421
31116WAT     H293591   2.522   7.988   1.580
31117WAT      O93592   3.817   5.576   2.301
31117WAT     H193593   3.884   5.609   2.367
31117WAT     H293594   3.828   5.625   2.215
31118WAT      O93595   2.546   0.328   7.608
31118WAT     H193596   2.561   0.385   7.527
31118WAT     H293597   2.477   0.259   7.588
31119WAT      O93598   9.656   4.540   8.005
31119WAT     H193599   9.595   4.482   7.952
31119WAT     H293600   9.662   4.631   7.963
31120WAT      O93601   6.284   2.127   6.201
31120WAT     H193602   6.220   2.098   6.129
31120WAT     H293603   6.269   2.223   6.222
31121WAT      O93604   2.643   9.733   5.669
31121WAT     H193605   2.593   9.710   5.753
31121WAT     H293606   2.585   9.713   5.590
31122WAT      O93607   4.003   1.477   4.509
31122WAT     H193608   4.027   1.406   4.575
31122WAT     H293609   3.967   1.434   4.426
31123WAT      O93610   5.466   7.411   0.891
31123WAT     H193611   5.551   7.388   0.939
31123WAT     H293612   5.414   7.327   0.874
31124WAT      O93613   0.776   2.915   9.822
31124WAT     H193614   0.785   2.882   9.728
31124WAT     H293615   0.760   3.013   9.822
31125WAT      O93616   6.577   8.575   8.758
31125WAT     H193617   6.670   8.607   8.775
31125WAT     H293618   6.553   8.504   8.824
31126WAT      O93619   7.586   3.237   8.085
31126WAT     H193620   7.525   3.185   8.145
31126WAT     H293621   7.681   3.217   8.107
31127WAT      O93622   6.366   6.581   1.274
31127WAT     H193623   6.388   6.485   1.291
31127WAT     H293624   6.377   6.601   1.176
31128WAT      O93625   0.892   9.156   8.143
31128WAT     H193626   0.966   9.133   8.080
31128WAT     H293627   0.806   9.118   8.110
31129WAT      O93628   3.880   2.664   6.006
31129WAT     H193629   3.976   2.637   6.010
31129WAT     H293630   3.823   2.588   6.036
31130WAT      O93631   5.903   6.628   3.967
31130WAT     H193632   5.935   6.596   4.056
31130WAT     H293633   5.804   6.642   3.970
31131WAT      O93634   2.861   8.197   6.665
31131WAT     H193635   2.896   8.236   6.580
31131WAT     H293636   2.935   8.149   6.713
31132WAT      O93637   0.112   2.218   7.530
31132WAT     H193638   0.050   2.146   7.560
31132WAT     H293639   0.086   2.248   7.438
31133WAT      O93640   9.637   6.358   5.026
31133WAT     H193641   9.710   6.303   5.067
31133WAT     H293642   9.580   6.396   5.098
31134WAT      O93643   1.480   9.091   9.066
31134WAT     H193644   1.579   9.102   9.052
31134WAT     H293645   1.454   9.134   9.152
31135WAT      O93646   0.876   2.848   8.340
31135WAT     H193647   0.937   2.835   8.419
31135WAT     H293648   0.929   2.844   8.256
31136WAT      O93649   0.031   1.159   8.213
31136WAT     H193650  -0.038   1.209   8.159
31136WAT     H293651   0.080   1.223   8.272
31137WAT      O93652   7.781   6.611   8.462
31137WAT     H193653   7.864   6.666   8.466
31137WAT     H293654   7.714   6.648   8.527
31138WAT      O93655   1.880   4.345   6.801
31138WAT     H193656   1.852   4.249   6.808
31138WAT     H293657   1.814   4.403   6.848
31139WAT      O93658   4.704   2.029   1.228
31139WAT     H193659   4.639   2.001   1.157
31139WAT     H293660   4.689   1.974   1.310
31140WAT      O93661   4.720   8.699   9.881
31140WAT     H193662   4.723   8.784   9.829
31140WAT     H293663   4.763   8.712   9.970
31141WAT      O93664   4.240   6.308   0.022
31141WAT     H193665   4.144   6.333   0.029
31141WAT     H293666   4.281   6.353  -0.058
31142WAT      O93667   8.627   4.786   9.411
31142WAT     H193668   8.582   4.861   9.361
31142WAT     H293669   8.719   4.774   9.375
31143WAT      O93670   8.361   4.171   2.563
31143WAT     H193671   8.285   4.118   2.601
31143WAT     H293672   8.391   4.129   2.477
31144WAT      O93673   4.564   9.777   0.920
31144WAT     H193674   4.493   9.792   0.988
31144WAT     H293675   4.583   9.862   0.870
31145WAT      O93676   6.948   1.158   3.763
31145WAT     H193677   6.988   1.206   3.685
31145WAT     H293678   6.854   1.189   3.777
31146WAT      O93679   9.698   8.204   0.617
31146WAT     H193680   9.749   8.147   0.681
31146WAT     H293681   9.762   8.249   0.554
31147WAT      O93682   7.246   2.256   3.554
31147WAT     H193683   7.316   2.247   3.625
31147WAT     H293684   7.251   2.347   3.512
31148WAT      O93685   3.717   6.641   7.594
31148WAT     H193686   3.777   6.601   7.663
31148WAT     H293687   3.693   6.735   7.621
31149WAT      O93688   7.239   2.481   6.821
31149WAT     H193689   7.331   2.447   6.801
31149WAT     H293690   7.235   2.514   6.915
31150WAT      O93691   5.313   7.220   2.699
31150WAT     H193692   5.363   7.300   2.666
31150WAT     H293693   5.243   7.249   2.765
31151WAT      O93694   9.868   0.858   6.176
31151WAT     H193695   9.961   0.869   6.212
31151WAT     H293696   9.806   0.838   6.251
31152WAT      O93697   1.917   1.905   8.470
31152WAT     H193698   1.920   1.911   8.569
31152WAT     H293699   1.979   1.973   8.430
31153WAT      O93700   7.800   9.373   7.941
31153WAT     H193701   7.778   9.282   7.978
31153WAT     H293702   7.809   9.438   8.016
31154WAT      O93703   0.168   4.527   7.960
31154WAT     H193704   0.209   4.457   7.901
31154WAT     H293705   0.141   4.485   8.047
31155WAT      O93706   4.200   2.265   7.653
31155WAT     H193707   4.240   2.314   7.730
31155WAT     H293708   4.269   2.204   7.614
31156WAT      O93709   1.547   2.044   6.655
31156WAT     H193710   1.585   2.070   6.743
31156WAT     H293711   1.602   1.970   6.616
31157WAT      O93712   6.373   1.015   0.597
31157WAT     H193713   6.344   0.969   0.680
31157WAT     H293714   6.320   0.980   0.519
31158WAT      O93715   7.919   1.745   3.705
31158WAT     H193716   7.977   1.707   3.633
31158WAT     H293717   7.975   1.764   3.786
31159WAT      O93718   2.770   1.050   0.008
31159WAT     H193719   2.793   1.032   0.103
31159WAT     H293720   2.722   1.137   0.001
31160WAT      O93721   1.651   7.573   9.322
31160WAT     H193722   1.614   7.587   9.414
31160WAT     H293723   1.731   7.513   9.327
31161WAT      O93724   3.765   3.241   0.330
31161WAT     H193725   3.799   3.227   0.237
31161WAT     H293726   3.666   3.257   0.328
31162WAT      O93727   8.447   7.578   3.682
31162WAT     H193728   8.442   7.552   3.778
31162WAT     H293729   8.418   7.673   3.671
31163WAT      O93730   6.957   9.724   3.347
31163WAT     H193731   6.868   9.741   3.389
31163WAT     H293732   7.029   9.742   3.414
31164WAT      O93733   9.332   2.306   1.892
31164WAT     H193734   9.250   2.321   1.836
31164WAT     H293735   9.323   2.356   1.978
31165WAT      O93736   7.607   8.938   2.288
31165WAT     H193737   7.626   8.865   2.223
31165WAT     H293738   7.689   8.958   2.341
31166WAT      O93739   9.125   1.003   6.898
31166WAT     H193740   9.115   1.085   6.842
31166WAT     H293741   9.222   0.985   6.913
31167WAT      O93742   2.101   9.438   0.575
31167WAT     H193743   2.009   9.432   0.613
31167WAT     H293744   2.169   9.417   0.645
31168WAT      O93745   9.183   5.797   3.647
31168WAT     H193746   9.134   5.714   3.675
31168WAT     H293747   9.139   5.835   3.566
31169WAT      O93748   4.436   3.617   7.757
31169WAT     H193749   4.515   3.586   7.704
31169WAT     H293750   4.353   3.578   7.719
31170WAT      O93751   5.739   9.551   2.114
31170WAT     H193752   5.815   9.513   2.062
31170WAT     H293753   5.772   9.584   2.203
31171WAT      O93754   7.548   4.647   8.817
31171WAT     H193755   7.490   4.682   8.744
31171WAT     H293756   7.623   4.710   8.835
31172WAT      O93757   5.614   9.520   8.488
31172WAT     H193758   5.703   9.527   8.442
31172WAT     H293759   5.545   9.487   8.423
31173WAT      O93760   6.849   3.146   2.254
31173WAT     H193761   6.856   3.048   2.237
31173WAT     H293762   6.808   3.190   2.174
31174WAT      O93763   9.140   3.777   3.161
31174WAT     H193764   9.180   3.834   3.232
31174WAT     H293765   9.068   3.719   3.200
31175WAT      O93766   0.713   9.065   7.653
31175WAT     H193767   0.747   9.151   7.689
31175WAT     H293768   0.779   9.028   7.587
31176WAT      O93769   6.399   6.752   0.149
31176WAT     H193770   6.486   6.800   0.157
31176WAT     H293771   6.330   6.801   0.203
31177WAT      O93772   9.652   4.599   4.419
31177WAT     H193773   9.632   4.643   4.331
31177WAT     H293774   9.751   4.601   4.435
31178WAT      O93775   4.934   6.909   0.962
31178WAT     H193776   4.835   6.894   0.968
31178WAT     H293777   4.975   6.835   0.909
31179WAT      O93778   1.308   7.207   0.817
31179WAT     H193779   1.329   7.193   0.914
31179WAT     H293780   1.224   7.158   0.794
31180WAT      O93781   6.266   9.782   8.476
31180WAT     H193782   6.347   9.794   8.534
31180WAT     H293783   6.185   9.774   8.534
31181WAT      O93784   8.596   7.070   3.403
31181WAT     H193785   8.661   7.142   3.375
31181WAT     H293786   8.503   7.103   3.389
31182WAT      O93787   8.035   6.028   1.122
31182WAT     H193788   7.999   6.116   1.091
31182WAT     H293789   8.134   6.033   1.131
31183WAT      O93790   7.458   7.432   8.841
31183WAT     H193791   7.456   7.487   8.757
31183WAT     H293792   7.365   7.418   8.874
31184WAT      O93793   3.774   2.788   1.672
31184WAT     H193794   3.678   2.810   1.651
31184WAT     H293795   3.791   2.692   1.651
31185WAT      O93796   2.196   3.721   1.194
31185WAT     H193797   2.141   3.682   1.120
31185WAT     H293798   2.186   3.821   1.194
31186WAT      O93799   8.403   6.401   8.304
31186WAT     H193800   8.403   6.394   8.204
31186WAT     H293801   8.472   6.468   8.333
31187WAT      O93802   3.658   6.911   4.284
31187WAT     H193803   3.714   6.920   4.201
31187WAT     H293804   3.562   6.924   4.261
31188WAT      O93805   9.819   2.622   8.480
31188WAT     H193806   9.771   2.555   8.537
31188WAT     H293807   9.828   2.708   8.530
31189WAT      O93808   3.468   1.977   6.469
31189WAT     H193809   3.547   1.944   6.521
31189WAT     H293810   3.500   2.044   6.402
31190WAT      O93811   3.020   2.203   7.847
31190WAT     H193812   2.985   2.296   7.856
31190WAT     H293813   3.120   2.205   7.848
31191WAT      O93814   3.405   1.310   6.614
31191WAT     H193815   3.397   1.212   6.633
31191WAT     H293816   3.363   1.330   6.525
31192WAT      O93817   7.122   3.224   9.747
31192WAT     H193818   7.024   3.230   9.726
31192WAT     H293819   7.152   3.307   9.794
31193WAT      O93820   5.332   5.365   9.602
31193WAT     H193821   5.321   5.438   9.670
31193WAT     H293822   5.337   5.405   9.511
31194WAT      O93823   6.142   4.691   5.720
31194WAT     H193824   6.086   4.739   5.652
31194WAT     H293825   6.083   4.661   5.795
31195WAT      O93826   1.801   6.142   0.037
31195WAT     H193827   1.792   6.055   0.085
31195WAT     H293828   1.743   6.140  -0.045
31196WAT      O93829   5.040   1.766   9.436
31196WAT     H193830   4.952   1.727   9.465
31196WAT     H293831   5.084   1.811   9.513
31197WAT      O93832   2.443   3.646   1.334
31197WAT     H193833   2.358   3.680   1.293
31197WAT     H293834   2.421   3.587   1.412
31198WAT      O93835   8.840   8.720   5.416
31198WAT     H193836   8.877   8.685   5.330
31198WAT     H293837   8.772   8.791   5.396
31199WAT      O93838   0.933   8.908   2.406
31199WAT     H193839   0.957   8.831   2.465
31199WAT     H293840   0.866   8.966   2.453
31200WAT      O93841   0.347   3.052   2.852
31200WAT     H193842   0.307   3.097   2.772
31200WAT     H293843   0.431   3.005   2.825
31201WAT      O93844   0.432   9.632   6.574
31201WAT     H193845   0.509   9.686   6.607
31201WAT     H293846   0.458   9.535   6.571
31202WAT      O93847   3.435   2.756   8.423
31202WAT     H193848   3.397   2.827   8.363
31202WAT     H293849   3.380   2.751   8.507
31203WAT      O93850   3.639   8.344   0.974
31203WAT     H193851   3.717   8.371   0.917
31203WAT     H293852   3.621   8.415   1.042
31204WAT      O93853   2.983   5.415   2.975
31204WAT     H193854   2.990   5.481   2.900
31204WAT     H293855   3.046   5.339   2.958
31205WAT      O93856   2.972   5.363   6.206
31205WAT     H193857   2.981   5.299   6.130
31205WAT     H293858   3.004   5.320   6.290
31206WAT      O93859   5.488   5.906   2.864
31206WAT     H193860   5.436   5.822   2.849
31206WAT     H293861   5.545   5.896   2.945
31207WAT      O93862   9.348   3.151   2.496
31207WAT     H193863   9.316   3.124   2.587
31207WAT     H293864   9.424   3.216   2.506
31208WAT      O93865   6.798   9.365   2.702
31208WAT     H193866   6.859   9.412   2.766
31208WAT     H293867   6.739   9.433   2.658
31209WAT      O93868   5.954   0.554   9.053
31209WAT     H193869   5.874   0.555   8.993
31209WAT     H293870   5.934   0.607   9.136
31210WAT      O93871   5.587   6.519   8.124
31210WAT     H193872   5.606   6.535   8.220
31210WAT     H293873   5.521   6.586   8.090
31211WAT      O93874   3.513   9.208   0.268
31211WAT     H193875   3.549   9.227   0.177
31211WAT     H293876   3.577   9.152   0.319
31212WAT      O93877   1.904   4.733   9.122
31212WAT     H193878   1.882   4.713   9.217
31212WAT     H293879   1.979   4.799   9.118
31213WAT      O93880   3.565   3.612   4.455
31213WAT     H193881   3.641   3.665   4.492
31213WAT     H293882   3.552   3.636   4.359
31214WAT      O93883   9.168   1.021   0.993
31214WAT     H193884   9.169   1.095   0.926
31214WAT     H293885   9.192   0.935   0.949
31215WAT      O93886   8.391   3.342   8.674
31215WAT     H193887   8.349   3.414   8.619
31215WAT     H293888   8.460   3.382   8.735
31216WAT      O93889   5.585   2.740   8.583
31216WAT     H193890   5.676   2.777   8.568
31216WAT     H293891   5.519   2.815   8.591
31217WAT      O93892   1.083   0.417   8.300
31217WAT     H193893   1.016   0.456   8.237
31217WAT     H293894   1.131   0.341   8.256
31218WAT      O93895   5.118   5.754   4.576
31218WAT     H193896   5.036   5.807   4.600
31218WAT     H293897   5.091   5.673   4.523
31219WAT      O93898   6.906   3.285   9.599
31219WAT     H193899   6.816   3.321   9.623
31219WAT     H293900   6.945   3.340   9.525
31220WAT      O93901   9.461   2.196   1.354
31220WAT     H193902   9.478   2.098   1.350
31220WAT     H293903   9.502   2.234   1.437
31221WAT      O93904   2.926   7.731   7.178
31221WAT     H193905   2.872   7.815   7.176
31221WAT     H293906   3.023   7.753   7.164
31222WAT      O93907   4.993   5.920   1.331
31222WAT     H193908   4.978   5.824   1.353
31222WAT     H293909   5.078   5.930   1.279
31223WAT      O93910   6.834   4.074   7.672
31223WAT     H193911   6.747   4.119   7.695
31223WAT     H293912   6.894   4.075   7.752
31224WAT      O93913   0.491   5.477   4.545
31224WAT     H193914   0.489   5.379   4.527
31224WAT     H293915   0.457   5.527   4.466
31225WAT      O93916   9.675   0.308   8.255
31225WAT     H193917   9.623   0.394   8.250
31225WAT     H293918   9.611   0.232   8.269
31226WAT      O93919   1.690   4.248   4.465
31226WAT     H193920   1.670   4.263   4.561
31226WAT     H293921   1.607   4.260   4.410
31227WAT      O93922   1.143   3.498   7.807
31227WAT     H193923   1.208   3.486   7.732
31227WAT     H293924   1.086   3.416   7.816
31228WAT      O93925   9.745   0.710   0.937
31228WAT     H193926   9.710   0.748   1.023
31228WAT     H293927   9.843   0.695   0.945
31229WAT      O93928   7.434   4.415   1.189
31229WAT     H193929   7.344   4.383   1.157
31229WAT     H293930   7.487   4.336   1.222
31230WAT      O93931   3.292   5.908   6.175
31230WAT     H193932   3.296   5.820   6.222
31230WAT     H293933   3.365   5.967   6.209
31231WAT      O93934   6.549   8.624   4.979
31231WAT     H193935   6.550   8.581   5.069
31231WAT     H293936   6.635   8.673   4.965
31232WAT      O93937   5.529   1.245   5.233
31232WAT     H193938   5.487   1.193   5.307
31232WAT     H293939   5.569   1.181   5.166
31233WAT      O93940   9.044   6.177   4.068
31233WAT     H193941   9.042   6.277   4.067
31233WAT     H293942   8.960   6.141   4.028
31234WAT      O93943   4.735   3.155   7.444
31234WAT     H193944   4.721   3.225   7.375
31234WAT     H293945   4.677   3.076   7.424
31235WAT      O93946   1.623   7.666   0.760
31235WAT     H193947   1.582   7.618   0.837
31235WAT     H293948   1.720   7.643   0.753
31236WAT      O93949   0.495   2.501   6.250
31236WAT     H193950   0.560   2.556   6.198
31236WAT     H293951   0.517   2.506   6.347
31237WAT      O93952   4.934   1.008   7.411
31237WAT     H193953   4.929   1.010   7.311
31237WAT     H293954   4.857   1.060   7.449
31238WAT      O93955   2.406   0.598   4.742
31238WAT     H193956   2.359   0.681   4.773
31238WAT     H293957   2.337   0.528   4.721
31239WAT      O93958   5.780   2.451   0.590
31239WAT     H193959   5.721   2.532   0.584
31239WAT     H293960   5.838   2.446   0.509
31240WAT      O93961   4.928   7.754   2.733
31240WAT     H193962   5.009   7.714   2.777
31240WAT     H293963   4.955   7.795   2.646
31241WAT      O93964   0.417   4.184   9.663
31241WAT     H193965   0.499   4.237   9.683
31241WAT     H293966   0.403   4.180   9.564
31242WAT      O93967   9.395   2.227   3.826
31242WAT     H193968   9.461   2.219   3.752
31242WAT     H293969   9.308   2.187   3.797
31243WAT      O93970   3.729   9.620   0.638
31243WAT     H193971   3.746   9.549   0.706
31243WAT     H293972   3.644   9.669   0.661
31244WAT      O93973   3.258   0.259   9.483
31244WAT     H193974   3.259   0.319   9.563
31244WAT     H293975   3.282   0.166   9.512
31245WAT      O93976   8.728   9.191   0.614
31245WAT     H193977   8.669   9.118   0.581
31245WAT     H293978   8.729   9.190   0.714
31246WAT      O93979   7.079   5.002   8.047
31246WAT     H193980   7.008   5.054   8.095
31246WAT     H293981   7.062   4.904   8.060
31247WAT      O93982   4.799   9.071   7.163
31247WAT     H193983   4.732   9.066   7.237
31247WAT     H293984   4.891   9.062   7.202
31248WAT      O93985   3.451   0.145   4.338
31248WAT     H193986   3.392   0.082   4.287
31248WAT     H293987   3.456   0.117   4.434
31249WAT      O93988   5.658   1.239   8.110
31249WAT     H193989   5.614   1.277   8.191
31249WAT     H293990   5.706   1.155   8.134
31250WAT      O93991   1.170   2.671   9.376
31250WAT     H193992   1.205   2.712   9.460
31250WAT     H293993   1.238   2.678   9.303
31251WAT      O93994   3.533   1.336   7.162
31251WAT     H193995   3.512   1.304   7.069
31251WAT     H293996   3.499   1.270   7.228
31252WAT      O93997   8.277   2.268   5.598
31252WAT     H193998   8.177   2.271   5.598
31252WAT     H293999   8.313   2.361   5.611
31253WAT      O94000   2.447   8.215   1.590
31253WAT     H194001   2.356   8.203   1.629
31253WAT     H294002   2.453   8.303   1.544
31254WAT      O94003   1.603   5.171   1.993
31254WAT     H194004   1.613   5.183   2.092
31254WAT     H294005   1.554   5.085   1.975
31255WAT      O94006   4.940   8.354   5.401
31255WAT     H194007   4.919   8.292   5.476
31255WAT     H294008   4.886   8.329   5.320
31256WAT      O94009   8.377   7.354   2.994
31256WAT     H194010   8.343   7.347   3.088
31256WAT     H294011   8.359   7.269   2.946
31257WAT      O94012   5.666   9.512   9.633
31257WAT     H194013   5.636   9.428   9.677
31257WAT     H294014   5.597   9.542   9.567
31258WAT      O94015   7.853   9.509   3.987
31258WAT     H194016   7.775   9.570   3.978
31258WAT     H294017   7.936   9.563   4.003
31259WAT      O94018   9.742   0.997   0.658
31259WAT     H194019   9.835   1.006   0.694
31259WAT     H294020   9.709   1.088   0.630
31260WAT      O94021   9.237   4.639   5.076
31260WAT     H194022   9.285   4.633   5.164
31260WAT     H294023   9.143   4.670   5.091
31261WAT      O94024   4.091   0.822   7.980
31261WAT     H194025   4.006   0.809   8.031
31261WAT     H294026   4.082   0.780   7.890
31262WAT      O94027   3.291   0.205   2.832
31262WAT     H194028   3.325   0.170   2.745
31262WAT     H294029   3.358   0.268   2.871
31263WAT      O94030   1.611   1.439   6.341
31263WAT     H194031   1.631   1.532   6.371
31263WAT     H294032   1.687   1.404   6.286
31264WAT      O94033   8.892   5.861   4.376
31264WAT     H194034   8.860   5.943   4.423
31264WAT     H294035   8.958   5.886   4.306
31265WAT      O94036   3.517   2.156   7.343
31265WAT     H194037   3.527   2.255   7.354
31265WAT     H294038   3.420   2.132   7.347
31266WAT      O94039   5.265   4.421   0.591
31266WAT     H194040   5.249   4.507   0.641
31266WAT     H294041   5.363   4.399   0.594
31267WAT      O94042   6.678   6.351   5.724
31267WAT     H194043   6.651   6.268   5.674
31267WAT     H294044   6.741   6.405   5.668
31268WAT      O94045   5.619   1.043   2.357
31268WAT     H194046   5.605   0.947   2.334
31268WAT     H294047   5.696   1.079   2.303
31269WAT      O94048   8.126   9.815   3.855
31269WAT     H194049   8.100   9.736   3.800
31269WAT     H294050   8.176   9.880   3.799
31270WAT      O94051   1.083   1.973   0.509
31270WAT     H194052   1.017   1.912   0.553
31270WAT     H294053   1.148   2.007   0.577
31271WAT      O94054   0.749   4.426   5.689
31271WAT     H194055   0.782   4.370   5.765
31271WAT     H294056   0.710   4.367   5.619
31272WAT      O94057   0.124   9.118   8.055
31272WAT     H194058   0.190   9.046   8.079
31272WAT     H294059   0.035   9.076   8.041
31273WAT      O94060   2.185   3.019   3.675
31273WAT     H194061   2.173   2.930   3.719
31273WAT     H294062   2.244   3.008   3.595
31274WAT      O94063   2.731   3.588   3.678
31274WAT     H194064   2.686   3.499   3.682
31274WAT     H294065   2.760   3.606   3.584
31275WAT      O94066   1.385   0.721   0.257
31275WAT     H194067   1.482   0.706   0.278
31275WAT     H294068   1.348   0.791   0.319
31276WAT      O94069   7.287   5.360   0.271
31276WAT     H194070   7.205   5.331   0.222
31276WAT     H294071   7.330   5.281   0.315
31277WAT      O94072   2.766   1.810   5.568
31277WAT     H194073   2.747   1.792   5.472
31277WAT     H294074   2.728   1.899   5.594
31278WAT      O94075   7.268   3.721   5.721
31278WAT     H194076   7.206   3.755   5.792
31278WAT     H294077   7.217   3.663   5.657
31279WAT      O94078   5.085   3.720   9.600
31279WAT     H194079   5.019   3.656   9.639
31279WAT     H294080   5.072   3.810   9.640
31280WAT      O94081   4.812   1.516   4.807
31280WAT     H194082   4.777   1.504   4.900
31280WAT     H294083   4.739   1.549   4.748
31281WAT      O94084   5.144   3.590   0.198
31281WAT     H194085   5.185   3.601   0.288
31281WAT     H294086   5.216   3.590   0.128
31282WAT      O94087   8.903   3.319   9.317
31282WAT     H194088   8.873   3.247   9.254
31282WAT     H294089   8.893   3.408   9.272
31283WAT      O94090   9.473   9.242   5.468
31283WAT     H194091   9.543   9.235   5.398
31283WAT     H294092   9.383   9.227   5.427
31284WAT      O94093   1.913   9.101   5.060
31284WAT     H194094   1.935   9.148   4.974
31284WAT     H294095   1.820   9.064   5.055
31285WAT      O94096   2.824   6.952   8.850
31285WAT     H194097   2.903   7.007   8.824
31285WAT     H294098   2.773   6.998   8.923
31286WAT      O94099   2.888   4.320   3.429
31286WAT     H194100   2.834   4.355   3.352
31286WAT     H294101   2.982   4.355   3.422
31287WAT      O94102   6.961   9.704   7.419
31287WAT     H194103   7.012   9.779   7.463
31287WAT     H294104   6.864   9.727   7.415
31288WAT      O94105   9.765   2.329   8.927
31288WAT     H194106   9.789   2.383   9.008
31288WAT     H294107   9.783   2.383   8.845
31289WAT      O94108   2.931   9.137   1.574
31289WAT     H194109   2.902   9.125   1.479
31289WAT     H294110   2.954   9.048   1.613
31290WAT      O94111   2.955   7.907   8.827
31290WAT     H194112   3.007   7.988   8.851
31290WAT     H294113   2.887   7.888   8.897
31291WAT      O94114   2.260   5.920   6.851
31291WAT     H194115   2.315   5.843   6.820
31291WAT     H294116   2.318   6.001   6.861
31292WAT      O94117   6.113   8.842   4.899
31292WAT     H194118   6.058   8.779   4.844
31292WAT     H294119   6.079   8.843   4.993
31293WAT      O94120   4.077   8.474   3.620
31293WAT     H194121   4.033   8.426   3.696
31293WAT     H294122   4.172   8.494   3.643
31294WAT      O94123   0.823   1.303   8.429
31294WAT     H194124   0.788   1.305   8.523
31294WAT     H294125   0.756   1.259   8.369
31295WAT      O94126   5.005   7.633   0.862
31295WAT     H194127   5.093   7.599   0.896
31295WAT     H294128   4.943   7.556   0.847
31296WAT      O94129   3.805   5.231   7.208
31296WAT     H194130   3.846   5.198   7.123
31296WAT     H294131   3.795   5.154   7.272
31297WAT      O94132   3.077   6.614   8.665
31297WAT     H194133   2.997   6.630   8.606
31297WAT     H294134   3.146   6.563   8.614
31298WAT      O94135   1.077   0.428   7.308
31298WAT     H194136   1.067   0.525   7.329
31298WAT     H294137   1.155   0.414   7.247
31299WAT      O94138   8.109   7.603   1.060
31299WAT     H194139   8.017   7.639   1.043
31299WAT     H294140   8.134   7.622   1.155
31300WAT      O94141   9.428   9.122   1.219
31300WAT     H194142   9.369   9.047   1.249
31300WAT     H294143   9.524   9.096   1.230
31301WAT      O94144   6.405   2.049   4.780
31301WAT     H194145   6.476   2.118   4.772
31301WAT     H294146   6.386   2.031   4.877
31302WAT      O94147   0.373   3.719   7.843
31302WAT     H194148   0.324   3.684   7.923
31302WAT     H294149   0.434   3.793   7.872
31303WAT      O94150   8.241   7.410   1.932
31303WAT     H194151   8.213   7.330   1.878
31303WAT     H294152   8.340   7.423   1.922
31304WAT      O94153   2.905   5.430   8.179
31304WAT     H194154   2.966   5.485   8.236
31304WAT     H294155   2.850   5.371   8.238
31305WAT      O94156   8.161   6.981   5.568
31305WAT     H194157   8.240   6.926   5.540
31305WAT     H294158   8.137   7.044   5.494
31306WAT      O94159   8.410   0.736   7.320
31306WAT     H194160   8.366   0.815   7.277
31306WAT     H294161   8.416   0.661   7.254
31307WAT      O94162   2.350   2.997   9.853
31307WAT     H194163   2.269   2.938   9.862
31307WAT     H294164   2.422   2.965   9.915
31308WAT      O94165   1.326   7.857   0.595
31308WAT     H194166   1.258   7.858   0.522
31308WAT     H294167   1.306   7.782   0.659
31309WAT      O94168   9.277   8.603   8.600
31309WAT     H194169   9.324   8.676   8.648
31309WAT     H294170   9.230   8.640   8.520
31310WAT      O94171   9.046   2.460   6.022
31310WAT     H194172   8.959   2.410   6.029
31310WAT     H294173   9.122   2.398   6.038
31311WAT      O94174   1.483   1.720   9.655
31311WAT     H194175   1.402   1.662   9.667
31311WAT     H294176   1.481   1.794   9.722
31312WAT      O94177   5.575   8.353   6.056
31312WAT     H194178   5.617   8.444   6.050
31312WAT     H294179   5.606   8.307   6.139
31313WAT      O94180   5.778   2.426   8.214
31313WAT     H194181   5.710   2.433   8.287
31313WAT     H294182   5.848   2.497   8.227
31314WAT      O94183   0.940   9.691   6.431
31314WAT     H194184   0.969   9.786   6.439
31314WAT     H294185   1.008   9.632   6.475
31315WAT      O94186   3.662   2.710   7.074
31315WAT     H194187   3.663   2.611   7.064
31315WAT     H294188   3.613   2.734   7.158
31316WAT      O94189   8.405   4.238   9.332
31316WAT     H194190   8.406   4.302   9.409
31316WAT     H294191   8.494   4.241   9.286
31317WAT      O94192   8.740   3.579   1.762
31317WAT     H194193   8.728   3.652   1.695
31317WAT     H294194   8.814   3.518   1.734
31318WAT      O94195   9.312   5.356   6.566
31318WAT     H194196   9.287   5.453   6.562
31318WAT     H294197   9.410   5.346   6.546
31319WAT      O94198   2.760   5.184   5.085
31319WAT     H194199   2.773   5.114   5.014
31319WAT     H294200   2.849   5.219   5.113
31320WAT      O94201   8.211   3.967   0.724
31320WAT     H194202   8.160   4.046   0.690
31320WAT     H294203   8.251   3.917   0.647
31321WAT      O94204   9.471   3.034   2.031
31321WAT     H194205   9.553   2.989   2.066
31321WAT     H294206   9.390   3.000   2.080
31322WAT      O94207   1.471   7.325   5.831
31322WAT     H194208   1.526   7.329   5.915
31322WAT     H294209   1.522   7.365   5.755
31323WAT      O94210   1.640   0.367   7.998
31323WAT     H194211   1.681   0.437   8.056
31323WAT     H294212   1.684   0.279   8.016
31324WAT      O94213   2.753   0.823   1.609
31324WAT     H194214   2.712   0.908   1.640
31324WAT     H294215   2.766   0.761   1.687
31325WAT      O94216   2.868   5.111   3.735
31325WAT     H194217   2.965   5.089   3.736
31325WAT     H294218   2.827   5.087   3.823
31326WAT      O94219   6.848   0.108   6.635
31326WAT     H194220   6.865   0.014   6.603
31326WAT     H294221   6.768   0.145   6.588
31327WAT      O94222   1.825   4.201   0.897
31327WAT     H194223   1.730   4.216   0.874
31327WAT     H294224   1.880   4.280   0.869
31328WAT      O94225   1.419   8.188   4.707
31328WAT     H194226   1.505   8.171   4.659
31328WAT     H294227   1.365   8.103   4.710
31329WAT      O94228   3.945   8.628   5.440
31329WAT     H194229   4.043   8.630   5.462
31329WAT     H294230   3.933   8.641   5.342
31330WAT      O94231   1.061   1.227   7.374
31330WAT     H194232   1.020   1.189   7.291
31330WAT     H294233   1.120   1.304   7.351
31331WAT      O94234   1.204   0.373   2.502
31331WAT     H194235   1.258   0.375   2.586
31331WAT     H294236   1.200   0.465   2.463
31332WAT      O94237   8.711   6.988   4.687
31332WAT     H194238   8.746   6.946   4.603
31332WAT     H294239   8.729   7.086   4.685
31333WAT      O94240   2.368   7.216   2.359
31333WAT     H194241   2.380   7.276   2.280
31333WAT     H294242   2.373   7.270   2.443
31334WAT      O94243   8.571   4.516   1.861
31334WAT     H194244   8.542   4.428   1.898
31334WAT     H294245   8.652   4.548   1.910
31335WAT      O94246   1.151   8.719   1.964
31335WAT     H194247   1.199   8.803   1.991
31335WAT     H294248   1.211   8.641   1.977
31336WAT      O94249   3.991   0.608   8.982
31336WAT     H194250   3.923   0.629   9.052
31336WAT     H294251   3.985   0.512   8.957
31337WAT      O94252   0.908   5.203   4.792
31337WAT     H194253   0.911   5.203   4.692
31337WAT     H294254   0.814   5.190   4.822
31338WAT      O94255   6.872   4.260   9.528
31338WAT     H194256   6.947   4.245   9.464
31338WAT     H294257   6.905   4.316   9.605
31339WAT      O94258   8.442   4.736   8.390
31339WAT     H194259   8.490   4.673   8.452
31339WAT     H294260   8.448   4.701   8.297
31340WAT      O94261   4.263   5.681   3.827
31340WAT     H194262   4.353   5.639   3.837
31340WAT     H294263   4.204   5.650   3.901
31341WAT      O94264   8.797   2.133   1.228
31341WAT     H194265   8.869   2.148   1.162
31341WAT     H294266   8.728   2.071   1.189
31342WAT      O94267   7.034   8.606   4.425
31342WAT     H194268   7.011   8.536   4.357
31342WAT     H294269   7.129   8.594   4.455
31343WAT      O94270   1.658   9.578   4.621
31343WAT     H194271   1.686   9.533   4.537
31343WAT     H294272   1.572   9.627   4.605
31344WAT      O94273   6.637   4.510   9.487
31344WAT     H194274   6.684   4.439   9.541
31344WAT     H294275   6.563   4.549   9.541
31345WAT      O94276   5.952   1.361   4.598
31345WAT     H194277   5.999   1.298   4.537
31345WAT     H294278   5.881   1.313   4.649
31346WAT      O94279   3.196   8.583   9.596
31346WAT     H194280   3.211   8.592   9.497
31346WAT     H294281   3.126   8.648   9.625
31347WAT      O94282   3.193   8.417   5.248
31347WAT     H194283   3.258   8.482   5.288
31347WAT     H294284   3.140   8.462   5.176
31348WAT      O94285   1.892   9.392   6.509
31348WAT     H194286   1.846   9.478   6.489
31348WAT     H294287   1.967   9.408   6.573
31349WAT      O94288   4.984   8.644   2.439
31349WAT     H194289   5.037   8.728   2.428
31349WAT     H294290   5.007   8.580   2.366
31350WAT      O94291   6.354   3.111   6.869
31350WAT     H194292   6.273   3.156   6.833
31350WAT     H294293   6.355   3.016   6.839
31351WAT      O94294   1.761   4.542   8.954
31351WAT     H194295   1.795   4.603   9.025
31351WAT     H294296   1.822   4.545   8.875
31352WAT      O94297   3.114   0.162   5.797
31352WAT     H194298   3.070   0.109   5.870
31352WAT     H294299   3.050   0.230   5.762
31353WAT      O94300   2.990   9.354   8.431
31353WAT     H194301   3.078   9.307   8.418
31353WAT     H294302   3.006   9.441   8.479
31354WAT      O94303   3.279   2.222   6.621
31354WAT     H194304   3.375   2.224   6.647
31354WAT     H294305   3.232   2.149   6.670
31355WAT      O94306   6.445   0.137   5.488
31355WAT     H194307   6.504   0.216   5.475
31355WAT     H294308   6.494   0.066   5.539
31356WAT      O94309   1.255   7.792   9.397
31356WAT     H194310   1.164   7.832   9.408
31356WAT     H294311   1.324   7.863   9.412
31357WAT      O94312   5.170   7.171   7.578
31357WAT     H194313   5.237   7.117   7.629
31357WAT     H294314   5.119   7.230   7.641
31358WAT      O94315   8.194   9.295   6.210
31358WAT     H194316   8.194   9.278   6.112
31358WAT     H294317   8.100   9.304   6.242
31359WAT      O94318   2.682   9.263   7.057
31359WAT     H194319   2.709   9.241   7.151
31359WAT     H294320   2.676   9.178   7.004
31360WAT      O94321   7.907   7.927   7.883
31360WAT     H194322   7.997   7.904   7.845
31360WAT     H294323   7.919   7.970   7.972
31361WAT      O94324   7.835   7.959   3.702
31361WAT     H194325   7.800   7.917   3.786
31361WAT     H294326   7.925   7.921   3.681
31362WAT      O94327   5.287   1.995   0.101
31362WAT     H194328   5.285   2.078   0.045
31362WAT     H294329   5.379   1.954   0.096
31363WAT      O94330   1.451   4.113   7.687
31363WAT     H194331   1.405   4.032   7.725
31363WAT     H294332   1.542   4.088   7.654
31364WAT      O94333   8.095   5.546   7.627
31364WAT     H194334   8.190   5.551   7.657
31364WAT     H294335   8.040   5.612   7.679
31365WAT      O94336   5.074   9.023   9.035
31365WAT     H194337   5.014   9.055   8.962
31365WAT     H294338   5.153   9.083   9.043
31366WAT      O94339   4.353   4.616   5.640
31366WAT     H194340   4.313   4.689   5.696
31366WAT     H294341   4.447   4.599   5.670
31367WAT      O94342   5.766   4.688   1.130
31367WAT     H194343   5.670   4.707   1.152
31367WAT     H294344   5.808   4.770   1.090
31368WAT      O94345   9.366   9.006   2.132
31368WAT     H194346   9.375   9.103   2.153
31368WAT     H294347   9.438   8.955   2.178
31369WAT      O94348   2.529   5.324   3.273
31369WAT     H194349   2.606   5.280   3.319
31369WAT     H294350   2.557   5.415   3.242
31370WAT      O94351   8.339   1.153   4.069
31370WAT     H194352   8.309   1.090   3.997
31370WAT     H294353   8.279   1.145   4.148
31371WAT      O94354   9.261   1.522   9.130
31371WAT     H194355   9.289   1.426   9.121
31371WAT     H294356   9.339   1.577   9.159
31372WAT      O94357   4.661   3.167   4.033
31372WAT     H194358   4.644   3.071   4.054
31372WAT     H294359   4.759   3.185   4.034
31373WAT      O94360   0.522   4.396   8.280
31373WAT     H194361   0.597   4.438   8.330
31373WAT     H294362   0.554   4.368   8.190
31374WAT      O94363   6.969   7.248   8.072
31374WAT     H194364   6.893   7.313   8.072
31374WAT     H294365   7.016   7.253   8.161
31375WAT      O94366   3.602   0.695   2.025
31375WAT     H194367   3.618   0.601   2.054
31375WAT     H294368   3.556   0.696   1.937
31376WAT      O94369   9.452   3.284   3.938
31376WAT     H194370   9.540   3.290   3.891
31376WAT     H294371   9.433   3.189   3.962
31377WAT      O94372   7.029   5.176   2.472
31377WAT     H194373   6.993   5.187   2.565
31377WAT     H294374   7.013   5.083   2.441
31378WAT      O94375   0.075   1.504   6.531
31378WAT     H194376   0.111   1.558   6.607
31378WAT     H294377   0.151   1.455   6.487
31379WAT      O94378   7.269   9.030   8.262
31379WAT     H194379   7.303   9.011   8.170
31379WAT     H294380   7.327   9.099   8.305
31380WAT      O94381   5.045   1.395   9.117
31380WAT     H194382   5.071   1.299   9.101
31380WAT     H294383   5.125   1.453   9.106
31381WAT      O94384   2.117   4.977   1.586
31381WAT     H194385   2.172   4.978   1.503
31381WAT     H294386   2.129   4.890   1.634
31382WAT      O94387   4.320   8.843   2.509
31382WAT     H194388   4.283   8.883   2.593
31382WAT     H294389   4.415   8.813   2.525
31383WAT      O94390   3.068   7.234   0.292
31383WAT     H194391   3.140   7.303   0.298
31383WAT     H294392   3.108   7.145   0.273
31384WAT      O94393   7.391   8.340   2.420
31384WAT     H194394   7.485   8.315   2.398
31384WAT     H294395   7.365   8.300   2.507
31385WAT      O94396   0.688   8.105   8.013
31385WAT     H194397   0.713   8.037   8.083
31385WAT     H294398   0.704   8.197   8.049
31386WAT      O94399   4.151   4.397   3.269
31386WAT     H194400   4.186   4.490   3.281
31386WAT     H294401   4.135   4.356   3.358
31387WAT      O94402   0.929   3.510   0.247
31387WAT     H194403   0.903   3.413   0.251
31387WAT     H294404   0.973   3.529   0.160
31388WAT      O94405   6.733   2.105   0.385
31388WAT     H194406   6.812   2.158   0.356
31388WAT     H294407   6.760   2.010   0.401
31389WAT      O94408   9.593   3.514   1.411
31389WAT     H194409   9.685   3.512   1.371
31389WAT     H294410   9.591   3.456   1.492
31390WAT      O94411   9.616   3.188   8.921
31390WAT     H194412   9.581   3.182   9.014
31390WAT     H294413   9.578   3.268   8.875
31391WAT      O94414   8.136   5.503   7.372
31391WAT     H194415   8.100   5.517   7.465
31391WAT     H294416   8.234   5.484   7.377
31392WAT      O94417   4.346   3.033   2.708
31392WAT     H194418   4.404   2.952   2.706
31392WAT     H294419   4.298   3.042   2.621
31393WAT      O94420   2.875   8.273   0.923
31393WAT     H194421   2.925   8.214   0.859
31393WAT     H294422   2.902   8.252   1.017
31394WAT      O94423   9.269   0.024   6.129
31394WAT     H194424   9.236   0.116   6.148
31394WAT     H294425   9.275   0.011   6.030
31395WAT      O94426   2.342   8.332   0.171
31395WAT     H194427   2.373   8.237   0.160
31395WAT     H294428   2.386   8.372   0.252
31396WAT      O94429   3.002   0.293   9.390
31396WAT     H194430   2.996   0.384   9.433
31396WAT     H294431   3.090   0.252   9.412
31397WAT      O94432   1.519   3.793   4.575
31397WAT     H194433   1.565   3.713   4.536
31397WAT     H294434   1.423   3.793   4.548
31398WAT      O94435   4.277   9.487   2.187
31398WAT     H194436   4.194   9.467   2.238
31398WAT     H294437   4.291   9.586   2.183
31399WAT      O94438   5.426   2.956   8.550
31399WAT     H194439   5.378   2.922   8.469
31399WAT     H294440   5.385   3.042   8.580
31400WAT      O94441   1.199   1.037   8.349
31400WAT     H194442   1.197   0.985   8.264
31400WAT     H294443   1.105   1.050   8.383
31401WAT      O94444   2.134   2.118   1.623
31401WAT     H194445   2.222   2.083   1.654
31401WAT     H294446   2.146   2.210   1.586
31402WAT      O94447   6.614   3.566   0.710
31402WAT     H194448   6.700   3.602   0.673
31402WAT     H294449   6.634   3.490   0.772
31403WAT      O94450   3.451   9.093   9.419
31403WAT     H194451   3.482   9.163   9.482
31403WAT     H294452   3.451   9.004   9.465
31404WAT      O94453   7.329   8.916   8.023
31404WAT     H194454   7.315   8.817   8.025
31404WAT     H294455   7.305   8.951   7.932
31405WAT      O94456   2.632   6.160   9.309
31405WAT     H194457   2.584   6.134   9.392
31405WAT     H294458   2.677   6.080   9.270
31406WAT      O94459   1.743   9.051   2.595
31406WAT     H194460   1.809   9.126   2.592
31406WAT     H294461   1.747   8.999   2.510
31407WAT      O94462   0.297   2.525   1.062
31407WAT     H194463   0.265   2.449   1.005
31407WAT     H294464   0.306   2.495   1.157
31408WAT      O94465   3.397   1.919   1.676
31408WAT     H194466   3.444   1.883   1.756
31408WAT     H294467   3.464   1.945   1.606
31409WAT      O94468   8.254   1.274   4.933
31409WAT     H194469   8.165   1.317   4.921
31409WAT     H294470   8.244   1.174   4.931
31410WAT      O94471   2.451   0.653   6.088
31410WAT     H194472   2.420   0.661   6.183
31410WAT     H294473   2.372   0.660   6.026
31411WAT      O94474   7.091   7.885   1.926
31411WAT     H194475   7.022   7.951   1.898
31411WAT     H294476   7.111   7.897   2.023
31412WAT      O94477   7.887   1.250   1.408
31412WAT     H194478   7.912   1.346   1.421
31412WAT     H294479   7.823   1.222   1.479
31413WAT      O94480   3.137   2.791   9.760
31413WAT     H194481   3.069   2.722   9.783
31413WAT     H294482   3.212   2.748   9.709
31414WAT      O94483   3.910   8.261   5.401
31414WAT     H194484   3.875   8.318   5.326
31414WAT     H294485   3.986   8.205   5.368
31415WAT      O94486   0.084   7.291   0.804
31415WAT     H194487   0.044   7.218   0.749
31415WAT     H294488   0.014   7.359   0.827
31416WAT      O94489   4.846   0.439   7.326
31416WAT     H194490   4.774   0.442   7.396
31416WAT     H294491   4.841   0.352   7.278
31417WAT      O94492   1.953   2.992   2.549
31417WAT     H194493   1.938   3.058   2.476
31417WAT     H294494   2.027   2.930   2.522
31418WAT      O94495   0.171   1.156   9.655
31418WAT     H194496   0.230   1.168   9.575
31418WAT     H294497   0.129   1.243   9.678
31419WAT      O94498   9.057   4.064   4.922
31419WAT     H194499   9.090   4.100   4.834
31419WAT     H294500   8.977   4.116   4.952
31420WAT      O94501   2.080   2.856   7.395
31420WAT     H194502   2.092   2.886   7.300
31420WAT     H294503   2.069   2.936   7.454
31421WAT      O94504   5.798   2.602   2.423
31421WAT     H194505   5.873   2.654   2.384
31421WAT     H294506   5.722   2.663   2.444
31422WAT      O94507   3.328   7.839   1.079
31422WAT     H194508   3.327   7.938   1.091
31422WAT     H294509   3.380   7.797   1.154
31423WAT      O94510   0.443   3.313   6.164
31423WAT     H194511   0.372   3.275   6.105
31423WAT     H294512   0.494   3.383   6.115
31424WAT      O94513   2.445   2.078   6.325
31424WAT     H194514   2.515   2.008   6.336
31424WAT     H294515   2.482   2.167   6.352
31425WAT      O94516   0.701   4.209   6.772
31425WAT     H194517   0.786   4.253   6.801
31425WAT     H294518   0.723   4.128   6.717
31426WAT      O94519   9.733   7.507   3.726
31426WAT     H194520   9.695   7.527   3.816
31426WAT     H294521   9.666   7.458   3.671
31427WAT      O94522   0.636   7.177   8.398
31427WAT     H194523   0.552   7.209   8.442
31427WAT     H294524   0.695   7.135   8.467
31428WAT      O94525   2.458   8.418   0.824
31428WAT     H194526   2.490   8.323   0.823
31428WAT     H294527   2.495   8.465   0.743
31429WAT      O94528   5.378   0.130   6.172
31429WAT     H194529   5.325   0.136   6.257
31429WAT     H294530   5.370   0.216   6.122
31430WAT      O94531   4.916   3.752   2.532
31430WAT     H194532   4.841   3.688   2.517
31430WAT     H294533   4.883   3.829   2.586
31431WAT      O94534   6.821   0.958   8.305
31431WAT     H194535   6.887   0.885   8.286
31431WAT     H294536   6.859   1.046   8.276
31432WAT      O94537   4.648   3.217   8.433
31432WAT     H194538   4.680   3.122   8.437
31432WAT     H294539   4.708   3.275   8.489
31433WAT      O94540   2.159   9.760   8.114
31433WAT     H194541   2.231   9.713   8.165
31433WAT     H294542   2.076   9.764   8.169
31434WAT      O94543   7.742   2.311   3.403
31434WAT     H194544   7.837   2.284   3.418
31434WAT     H294545   7.738   2.384   3.334
31435WAT      O94546   2.205   4.914   2.754
31435WAT     H194547   2.266   4.992   2.771
31435WAT     H294548   2.250   4.851   2.690
31436WAT      O94549   3.672   3.277   9.366
31436WAT     H194550   3.601   3.211   9.341
31436WAT     H294551   3.756   3.228   9.390
31437WAT      O94552   6.240   7.887   7.275
31437WAT     H194553   6.287   7.957   7.220
31437WAT     H294554   6.274   7.890   7.369
31438WAT      O94555   2.831   0.623   2.919
31438WAT     H194556   2.888   0.620   3.001
31438WAT     H294557   2.833   0.534   2.874
31439WAT      O94558   5.635   9.277   2.168
31439WAT     H194559   5.661   9.373   2.176
31439WAT     H294560   5.536   9.269   2.171
31440WAT      O94561   4.017   1.707   6.676
31440WAT     H194562   4.063   1.771   6.738
31440WAT     H294563   3.973   1.635   6.729
31441WAT      O94564   3.093   6.334   3.730
31441WAT     H194565   3.120   6.430   3.722
31441WAT     H294566   3.019   6.326   3.798
31442WAT      O94567   4.702   1.460   8.609
31442WAT     H194568   4.688   1.542   8.665
31442WAT     H294569   4.775   1.476   8.544
31443WAT      O94570   4.038   6.029   3.385
31443WAT     H194571   4.064   6.099   3.451
31443WAT     H294572   3.938   6.029   3.374
31444WAT      O94573   1.298   4.000   1.431
31444WAT     H194574   1.349   4.027   1.349
31444WAT     H294575   1.209   4.045   1.431
31445WAT      O94576   7.503   5.990   0.983
31445WAT     H194577   7.561   5.981   1.064
31445WAT     H294578   7.458   6.079   0.984
31446WAT      O94579   5.402   6.213   1.807
31446WAT     H194580   5.333   6.249   1.744
31446WAT     H294581   5.485   6.189   1.757
31447WAT      O94582   7.274   7.742   2.652
31447WAT     H194583   7.270   7.829   2.604
31447WAT     H294584   7.229   7.752   2.741
31448WAT      O94585   0.504   7.194   3.902
31448WAT     H194586   0.597   7.163   3.919
31448WAT     H294587   0.485   7.190   3.803
31449WAT      O94588   8.550   9.704   5.312
31449WAT     H194589   8.507   9.614   5.317
31449WAT     H294590   8.643   9.699   5.348
31450WAT      O94591   8.070   0.651   1.720
31450WAT     H194592   8.159   0.620   1.755
31450WAT     H294593   8.047   0.600   1.637
31451WAT      O94594   2.363   0.036   9.533
31451WAT     H194595   2.458   0.029   9.504
31451WAT     H294596   2.318  -0.052   9.522
31452WAT      O94597   3.650   5.929   3.660
31452WAT     H194598   3.557   5.958   3.638
31452WAT     H294599   3.702   5.918   3.575
31453WAT      O94600   4.745   8.910   9.713
31453WAT     H194601   4.842   8.924   9.692
31453WAT     H294602   4.697   8.998   9.708
31454WAT      O94603   1.546   0.592   9.451
31454WAT     H194604   1.467   0.554   9.498
31454WAT     H294605   1.594   0.656   9.512
31455WAT      O94606   6.645   7.534   6.063
31455WAT     H194607   6.611   7.614   6.112
31455WAT     H294608   6.723   7.561   6.006
31456WAT      O94609   4.912   3.848   3.772
31456WAT     H194610   4.821   3.834   3.732
31456WAT     H294611   4.924   3.945   3.792
31457WAT      O94612   7.937   8.658   7.980
31457WAT     H194613   7.971   8.564   7.986
31457WAT     H294614   8.015   8.721   7.973
31458WAT      O94615   7.912   4.186   8.065
31458WAT     H194616   8.002   4.177   8.109
31458WAT     H294617   7.873   4.095   8.050
31459WAT      O94618   6.228   8.594   2.262
31459WAT     H194619   6.286   8.671   2.235
31459WAT     H294620   6.285   8.521   2.299
31460WAT      O94621   5.913   3.757   5.869
31460WAT     H194622   5.936   3.683   5.932
31460WAT     H294623   5.836   3.729   5.812
31461WAT      O94624   1.355   0.378   7.598
31461WAT     H194625   1.271   0.431   7.612
31461WAT     H294626   1.340   0.284   7.626
31462WAT      O94627   0.949   4.876   5.537
31462WAT     H194628   0.869   4.880   5.477
31462WAT     H294629   0.990   4.785   5.531
31463WAT      O94630   4.969   0.067   6.717
31463WAT     H194631   4.889   0.007   6.723
31463WAT     H294632   5.048   0.021   6.759
31464WAT      O94633   6.309   0.305   1.917
31464WAT     H194634   6.406   0.330   1.909
31464WAT     H294635   6.301   0.205   1.920
31465WAT      O94636   4.129   4.784   4.552
31465WAT     H194637   4.172   4.870   4.525
31465WAT     H294638   4.043   4.803   4.600
31466WAT      O94639   8.181   1.051   8.977
31466WAT     H194640   8.126   0.999   8.912
31466WAT     H294641   8.272   1.009   8.985
31467WAT      O94642   9.452   0.125   3.540
31467WAT     H194643   9.475   0.191   3.612
31467WAT     H294644   9.463   0.032   3.576
31468WAT      O94645   2.759   2.063   4.322
31468WAT     H194646   2.726   2.030   4.233
31468WAT     H294647   2.737   2.160   4.331
31469WAT      O94648   1.975   0.785   9.779
31469WAT     H194649   2.010   0.745   9.864
31469WAT     H294650   1.943   0.878   9.796
31470WAT      O94651   7.275   2.088   9.791
31470WAT     H194652   7.366   2.063   9.758
31470WAT     H294653   7.270   2.072   9.890
31471WAT      O94654   8.541   2.738   6.312
31471WAT     H194655   8.495   2.671   6.369
31471WAT     H294656   8.575   2.813   6.368
31472WAT      O94657   2.703   8.953   9.744
31472WAT     H194658   2.622   8.989   9.790
31472WAT     H294659   2.676   8.887   9.675
31473WAT      O94660   7.594   2.238   5.036
31473WAT     H194661   7.519   2.253   5.101
31473WAT     H294662   7.569   2.166   4.972
31474WAT      O94663   0.260   1.632   7.849
31474WAT     H194664   0.211   1.709   7.811
31474WAT     H294665   0.307   1.660   7.933
31475WAT      O94666   2.948   2.701   0.381
31475WAT     H194667   3.036   2.658   0.400
31475WAT     H294668   2.882   2.632   0.352
31476WAT      O94669   5.413   8.911   5.500
31476WAT     H194670   5.334   8.972   5.514
31476WAT     H294671   5.497   8.963   5.516
31477WAT      O94672   8.398   7.797   1.301
31477WAT     H194673   8.446   7.739   1.367
31477WAT     H294674   8.302   7.805   1.329
31478WAT      O94675   4.868   0.633   8.462
31478WAT     H194676   4.967   0.629   8.450
31478WAT     H294677   4.845   0.618   8.558
31479WAT      O94678   9.075   2.954   1.774
31479WAT     H194679   9.076   2.856   1.756
31479WAT     H294680   9.097   2.970   1.871
31480WAT      O94681   2.986   8.666   3.280
31480WAT     H194682   2.921   8.669   3.356
31480WAT     H294683   2.948   8.718   3.203
31481WAT      O94684   4.300   1.137   3.976
31481WAT     H194685   4.297   1.120   3.878
31481WAT     H294686   4.226   1.088   4.021
31482WAT      O94687   9.857   2.751   2.606
31482WAT     H194688   9.879   2.656   2.624
31482WAT     H294689   9.810   2.791   2.685
31483WAT      O94690   7.552   1.549   9.538
31483WAT     H194691   7.635   1.502   9.569
31483WAT     H294692   7.566   1.584   9.445
31484WAT      O94693   0.778   7.230   3.973
31484WAT     H194694   0.797   7.137   4.003
31484WAT     H294695   0.810   7.242   3.879
31485WAT      O94696   9.502   6.997   3.001
31485WAT     H194697   9.508   7.056   3.081
31485WAT     H294698   9.505   7.054   2.918
31486WAT      O94699   8.310   2.304   0.919
31486WAT     H194700   8.408   2.291   0.938
31486WAT     H294701   8.299   2.349   0.831
31487WAT      O94702   2.840   1.488   6.187
31487WAT     H194703   2.862   1.556   6.257
31487WAT     H294704   2.842   1.532   6.097
31488WAT      O94705   1.797   1.382   5.409
31488WAT     H194706   1.776   1.358   5.504
31488WAT     H294707   1.885   1.428   5.404
31489WAT      O94708   2.147   7.245   5.644
31489WAT     H194709   2.191   7.186   5.577
31489WAT     H294710   2.156   7.204   5.735
31490WAT      O94711   5.805   1.034   0.153
31490WAT     H194712   5.767   0.979   0.226
31490WAT     H294713   5.808   1.130   0.182
31491WAT      O94714   9.687   7.469   6.323
31491WAT     H194715   9.663   7.545   6.385
31491WAT     H294716   9.743   7.505   6.248
31492WAT      O94717   4.814   8.531   7.730
31492WAT     H194718   4.874   8.590   7.784
31492WAT     H294719   4.759   8.474   7.791
31493WAT      O94720   2.870   3.578   4.421
31493WAT     H194721   2.833   3.519   4.350
31493WAT     H294722   2.969   3.587   4.409
31494WAT      O94723   5.019   7.828   5.180
31494WAT     H194724   5.073   7.749   5.211
31494WAT     H294725   4.988   7.880   5.260
31495WAT      O94726   3.981   2.880   5.375
31495WAT     H194727   3.942   2.878   5.283
31495WAT     H294728   4.044   2.957   5.383
31496WAT      O94729   0.107   7.223   2.849
31496WAT     H194730   0.136   7.146   2.791
31496WAT     H294731   0.164   7.225   2.931
31497WAT      O94732   5.824   9.205   7.383
31497WAT     H194733   5.897   9.249   7.435
31497WAT     H294734   5.751   9.176   7.445
31498WAT      O94735   3.808   5.740   8.870
31498WAT     H194736   3.846   5.810   8.930
31498WAT     H294737   3.859   5.654   8.881
31499WAT      O94738   1.728   6.422   0.422
31499WAT     H194739   1.758   6.438   0.328
31499WAT     H294740   1.702   6.327   0.433
31500WAT      O94741   1.301   7.656   4.847
31500WAT     H194742   1.332   7.563   4.867
31500WAT     H294743   1.219   7.677   4.900
31501WAT      O94744   3.287   2.236   4.972
31501WAT     H194745   3.289   2.187   4.884
31501WAT     H294746   3.215   2.305   4.970
31502WAT      O94747   4.739   2.809   2.228
31502WAT     H194748   4.691   2.721   2.228
31502WAT     H294749   4.738   2.848   2.136
31503WAT      O94750   2.388   4.566   4.415
31503WAT     H194751   2.318   4.497   4.434
31503WAT     H294752   2.475   4.536   4.454
31504WAT      O94753   7.873   5.240   9.682
31504WAT     H194754   7.867   5.281   9.591
31504WAT     H294755   7.968   5.216   9.702
31505WAT      O94756   0.258   8.979   5.928
31505WAT     H194757   0.263   8.937   6.019
31505WAT     H294758   0.169   9.022   5.916
31506WAT      O94759   7.274   4.184   0.582
31506WAT     H194760   7.180   4.201   0.611
31506WAT     H294761   7.323   4.134   0.654
31507WAT      O94762   7.680   3.477   7.639
31507WAT     H194763   7.637   3.557   7.598
31507WAT     H294764   7.714   3.501   7.730
31508WAT      O94765   9.667   3.565   5.495
31508WAT     H194766   9.580   3.552   5.544
31508WAT     H294767   9.651   3.620   5.414
31509WAT      O94768   7.086   4.088   5.264
31509WAT     H194769   7.102   4.066   5.360
31509WAT     H294770   7.141   4.026   5.207
31510WAT      O94771   1.819   5.310   4.027
31510WAT     H194772   1.751   5.381   4.008
31510WAT     H294773   1.772   5.222   4.035
31511WAT      O94774   0.125   8.141   9.636
31511WAT     H194775   0.113   8.231   9.594
31511WAT     H294776   0.073   8.137   9.722
31512WAT      O94777   6.861   8.917   6.425
31512WAT     H194778   6.906   8.851   6.485
31512WAT     H294779   6.777   8.950   6.468
31513WAT      O94780   4.410   6.773   4.928
31513WAT     H194781   4.327   6.786   4.983
31513WAT     H294782   4.488   6.760   4.989
31514WAT      O94783   2.022   8.044   1.421
31514WAT     H194784   2.099   8.007   1.473
31514WAT     H294785   1.990   7.976   1.356
31515WAT      O94786   5.966   2.197   6.992
31515WAT     H194787   5.982   2.256   6.913
31515WAT     H294788   6.048   2.194   7.049
31516WAT      O94789   7.562   0.683   0.040
31516WAT     H194790   7.622   0.731  -0.024
31516WAT     H294791   7.582   0.713   0.133
31517WAT      O94792   4.621   1.798   9.411
31517WAT     H194793   4.613   1.698   9.406
31517WAT     H294794   4.669   1.832   9.331
31518WAT      O94795   4.071   3.694   2.640
31518WAT     H194796   4.170   3.705   2.631
31518WAT     H294797   4.025   3.767   2.590
31519WAT      O94798   1.975   7.619   8.559
31519WAT     H194799   1.905   7.676   8.603
31519WAT     H294800   2.001   7.661   8.471
31520WAT      O94801   9.096   9.070   4.396
31520WAT     H194802   9.159   9.003   4.436
31520WAT     H294803   9.121   9.085   4.300
31521WAT      O94804   6.643   9.088   7.418
31521WAT     H194805   6.640   9.140   7.504
31521WAT     H294806   6.554   9.093   7.373
31522WAT      O94807   0.201   6.714   1.175
31522WAT     H194808   0.128   6.782   1.180
31522WAT     H294809   0.279   6.752   1.125
31523WAT      O94810   9.604   4.977   8.047
31523WAT     H194811   9.603   4.913   7.970
31523WAT     H294812   9.561   5.063   8.020
31524WAT      O94813   8.763   0.914   9.084
31524WAT     H194814   8.822   0.992   9.066
31524WAT     H294815   8.775   0.883   9.178
31525WAT      O94816   6.908   8.337   0.133
31525WAT     H194817   6.991   8.289   0.161
31525WAT     H294818   6.884   8.311   0.040
31526WAT      O94819   5.720   7.339   7.166
31526WAT     H194820   5.814   7.313   7.187
31526WAT     H294821   5.657   7.269   7.202
31527WAT      O94822   8.664   3.099   4.438
31527WAT     H194823   8.683   3.196   4.453
31527WAT     H294824   8.718   3.067   4.360
31528WAT      O94825   6.648   0.656   9.754
31528WAT     H194826   6.647   0.566   9.797
31528WAT     H294827   6.706   0.653   9.673
31529WAT      O94828   3.047   8.307   7.499
31529WAT     H194829   3.008   8.397   7.517
31529WAT     H294830   3.124   8.316   7.436
31530WAT      O94831   7.185   6.452   8.568
31530WAT     H194832   7.280   6.425   8.549
31530WAT     H294833   7.153   6.402   8.649
31531WAT      O94834   8.069   9.419   2.040
31531WAT     H194835   8.091   9.514   2.021
31531WAT     H294836   8.020   9.379   1.962
31532WAT      O94837   9.334   8.937   3.775
31532WAT     H194838   9.278   8.883   3.838
31532WAT     H294839   9.363   8.880   3.698
31533WAT      O94840   8.549   9.409   6.619
31533WAT     H194841   8.603   9.346   6.562
31533WAT     H294842   8.456   9.414   6.583
31534WAT      O94843   1.637   6.870   9.491
31534WAT     H194844   1.620   6.907   9.400
31534WAT     H294845   1.732   6.885   9.516
31535WAT      O94846   9.527   6.364   5.782
31535WAT     H194847   9.488   6.366   5.874
31535WAT     H294848   9.620   6.330   5.786
31536WAT      O94849   1.240   3.830   3.374
31536WAT     H194850   1.257   3.927   3.356
31536WAT     H294851   1.270   3.808   3.467
31537WAT      O94852   6.910   1.370   5.816
31537WAT     H194853   6.832   1.342   5.871
31537WAT     H294854   6.994   1.359   5.868
31538WAT      O94855   3.358   4.933   2.441
31538WAT     H194856   3.328   4.844   2.408
31538WAT     H294857   3.400   4.923   2.531
31539WAT      O94858   6.555   6.398   2.017
31539WAT     H194859   6.502   6.471   2.061
31539WAT     H294860   6.572   6.325   2.084
31540WAT      O94861   6.613   2.450   5.997
31540WAT     H194862   6.710   2.459   6.019
31540WAT     H294863   6.596   2.360   5.956
31541WAT      O94864   5.673   6.330   8.936
31541WAT     H194865   5.697   6.426   8.952
31541WAT     H294866   5.598   6.325   8.870
31542WAT      O94867   1.896   4.325   6.525
31542WAT     H194868   1.891   4.276   6.611
31542WAT     H294869   1.971   4.391   6.528
31543WAT      O94870   9.559   0.280   3.731
31543WAT     H194871   9.657   0.298   3.739
31543WAT     H294872   9.511   0.329   3.804
31544WAT      O94873   0.587   0.238   5.491
31544WAT     H194874   0.561   0.227   5.395
31544WAT     H294875   0.645   0.319   5.501
31545WAT      O94876   6.221   7.477   5.147
31545WAT     H194877   6.162   7.412   5.196
31545WAT     H294878   6.267   7.537   5.213
31546WAT      O94879   0.905   5.467   0.908
31546WAT     H194880   0.850   5.531   0.961
31546WAT     H294881   0.942   5.396   0.968
31547WAT      O94882   6.121   3.431   6.856
31547WAT     H194883   6.209   3.479   6.862
31547WAT     H294884   6.099   3.391   6.945
31548WAT      O94885   6.668   3.732   5.407
31548WAT     H194886   6.683   3.768   5.315
31548WAT     H294887   6.571   3.737   5.429
31549WAT      O94888   8.240   8.306   0.278
31549WAT     H194889   8.230   8.210   0.252
31549WAT     H294890   8.155   8.338   0.320
31550WAT      O94891   7.597   0.414   5.939
31550WAT     H194892   7.528   0.419   5.867
31550WAT     H294893   7.620   0.506   5.971
31551WAT      O94894   2.364   3.488   0.714
31551WAT     H194895   2.429   3.564   0.708
31551WAT     H294896   2.333   3.478   0.809
31552WAT      O94897   4.238   7.193   5.266
31552WAT     H194898   4.196   7.148   5.188
31552WAT     H294899   4.209   7.148   5.350
31553WAT      O94900   5.339   6.306   3.880
31553WAT     H194901   5.438   6.306   3.890
31553WAT     H294902   5.296   6.287   3.968
31554WAT      O94903   0.279   1.101   1.936
31554WAT     H194904   0.188   1.133   1.907
31554WAT     H294905   0.314   1.161   2.007
31555WAT      O94906   4.330   6.741   7.342
31555WAT     H194907   4.288   6.653   7.318
31555WAT     H294908   4.424   6.726   7.372
31556WAT      O94909   0.650   7.486   5.465
31556WAT     H194910   0.645   7.544   5.547
31556WAT     H294911   0.743   7.490   5.428
31557WAT      O94912   7.186   6.112   1.928
31557WAT     H194913   7.157   6.108   2.024
31557WAT     H294914   7.107   6.095   1.869
31558WAT      O94915   3.145   8.598   1.217
31558WAT     H194916   3.229   8.561   1.179
31558WAT     H294917   3.086   8.523   1.248
31559WAT      O94918   1.451   6.665   5.840
31559WAT     H194919   1.486   6.605   5.767
31559WAT     H294920   1.498   6.753   5.837
31560WAT      O94921   4.872   9.694   4.083
31560WAT     H194922   4.831   9.614   4.040
31560WAT     H294923   4.963   9.670   4.117
31561WAT      O94924   2.525   2.406   3.982
31561WAT     H194925   2.605   2.378   3.930
31561WAT     H294926   2.547   2.487   4.037
31562WAT      O94927   0.205   1.935   3.027
31562WAT     H194928   0.171   2.008   2.967
31562WAT     H294929   0.233   1.974   3.114
31563WAT      O94930   3.286   8.127   0.817
31563WAT     H194931   3.291   8.109   0.916
31563WAT     H294932   3.350   8.200   0.793
31564WAT      O94933   1.929   8.369   7.650
31564WAT     H194934   1.897   8.445   7.594
31564WAT     H294935   1.934   8.397   7.745
31565WAT      O94936   5.560   4.057   0.383
31565WAT     H194937   5.613   4.141   0.391
31565WAT     H294938   5.496   4.050   0.460
31566WAT      O94939   6.057   0.170   9.147
31566WAT     H194940   6.085   0.113   9.070
31566WAT     H294941   5.978   0.224   9.121
31567WAT      O94942   9.756   1.807   3.367
31567WAT     H194943   9.730   1.827   3.273
31567WAT     H294944   9.769   1.709   3.378
31568WAT      O94945   0.197   0.525   2.928
31568WAT     H194946   0.247   0.584   2.992
31568WAT     H294947   0.099   0.542   2.935
31569WAT      O94948   2.415   3.075   6.981
31569WAT     H194949   2.420   3.024   7.067
31569WAT     H294950   2.456   3.165   6.994
31570WAT      O94951   3.905   4.477   4.232
31570WAT     H194952   3.964   4.526   4.167
31570WAT     H294953   3.825   4.532   4.253
31571WAT      O94954   6.018   1.454   8.572
31571WAT     H194955   6.001   1.367   8.526
31571WAT     H294956   6.015   1.528   8.505
31572WAT      O94957   8.392   4.403   6.624
31572WAT     H194958   8.439   4.350   6.553
31572WAT     H294959   8.450   4.481   6.650
31573WAT      O94960   9.790   4.976   3.788
31573WAT     H194961   9.865   5.032   3.824
31573WAT     H294962   9.827   4.910   3.722
31574WAT      O94963   7.367   5.518   1.768
31574WAT     H194964   7.365   5.505   1.669
31574WAT     H294965   7.315   5.599   1.793
31575WAT      O94966   5.847   1.978   6.545
31575WAT     H194967   5.910   2.019   6.479
31575WAT     H294968   5.890   1.978   6.636
31576WAT      O94969   8.445   2.797   8.242
31576WAT     H194970   8.461   2.736   8.319
31576WAT     H294971   8.524   2.795   8.181
31577WAT      O94972   4.468   7.142   0.856
31577WAT     H194973   4.538   7.152   0.927
31577WAT     H294974   4.408   7.065   0.878
31578WAT      O94975   1.286   9.240   4.959
31578WAT     H194976   1.299   9.243   5.058
31578WAT     H294977   1.196   9.202   4.937
31579WAT      O94978   1.883   2.617   8.038
31579WAT     H194979   1.940   2.672   8.100
31579WAT     H294980   1.932   2.533   8.016
31580WAT      O94981   5.576   1.500   1.126
31580WAT     H194982   5.606   1.464   1.037
31580WAT     H294983   5.479   1.478   1.140
31581WAT      O94984   0.150   7.424   9.091
31581WAT     H194985   0.121   7.507   9.044
31581WAT     H294986   0.084   7.351   9.073
31582WAT      O94987   3.852   7.658   0.133
31582WAT     H194988   3.940   7.668   0.180
31582WAT     H294989   3.839   7.735   0.070
31583WAT      O94990   7.226   0.272   9.730
31583WAT     H194991   7.221   0.367   9.700
31583WAT     H294992   7.300   0.226   9.682
31584WAT      O94993   1.621   7.039   2.997
31584WAT     H194994   1.670   6.989   2.926
31584WAT     H294995   1.606   7.133   2.968
31585WAT      O94996   2.115   6.834   7.224
31585WAT     H194997   2.116   6.756   7.162
31585WAT     H294998   2.035   6.829   7.283
31586WAT      O94999   6.206   3.214   5.248
31586WAT     H195000   6.167   3.123   5.236
31586WAT     H295001   6.258   3.217   5.334
31587WAT      O95002   8.280   2.979   9.582
31587WAT     H195003   8.316   3.066   9.614
31587WAT     H295004   8.356   2.923   9.547
31588WAT      O95005   1.115   6.726   9.221
31588WAT     H195006   1.089   6.631   9.201
31588WAT     H295007   1.155   6.767   9.140
31589WAT      O95008   9.618   5.217   9.186
31589WAT     H195009   9.526   5.242   9.157
31589WAT     H295010   9.676   5.207   9.106
31590WAT      O95011   2.433   1.711   1.059
31590WAT     H195012   2.467   1.804   1.075
31590WAT     H295013   2.462   1.652   1.134
31591WAT      O95014   8.271   4.309   0.654
31591WAT     H195015   8.248   4.338   0.748
31591WAT     H295016   8.316   4.384   0.606
31592WAT      O95017   9.208   3.501   7.920
31592WAT     H195018   9.169   3.586   7.957
31592WAT     H295019   9.184   3.493   7.823
31593WAT      O95020   1.728   4.077   6.393
31593WAT     H195021   1.651   4.087   6.456
31593WAT     H295022   1.741   4.163   6.343
31594WAT      O95023   5.752   8.921   1.692
31594WAT     H195024   5.690   8.877   1.627
31594WAT     H295025   5.792   9.002   1.650
31595WAT      O95026   1.957   7.101   3.259
31595WAT     H195027   2.023   7.027   3.263
31595WAT     H295028   1.865   7.064   3.242
31596WAT      O95029   1.738   8.756   6.671
31596WAT     H195030   1.801   8.680   6.690
31596WAT     H295031   1.721   8.806   6.756
31597WAT      O95032   7.070   0.968   9.443
31597WAT     H195033   7.022   1.030   9.505
31597WAT     H295034   7.046   0.991   9.348
31598WAT      O95035   5.420   5.691   5.427
31598WAT     H195036   5.487   5.765   5.434
31598WAT     H295037   5.328   5.730   5.429
31599WAT      O95038   0.804   7.088   7.541
31599WAT     H195039   0.887   7.085   7.485
31599WAT     H295040   0.747   7.165   7.512
31600WAT      O95041   6.404   2.969   2.212
31600WAT     H195042   6.499   2.960   2.243
31600WAT     H295043   6.402   2.975   2.112
31601WAT      O95044   4.763   0.596   5.868
31601WAT     H195045   4.848   0.582   5.817
31601WAT     H295046   4.686   0.601   5.804
31602WAT      O95047   5.985   1.265   9.104
31602WAT     H195048   6.001   1.233   9.197
31602WAT     H295049   5.934   1.351   9.107
31603WAT      O95050   6.540   9.073   3.907
31603WAT     H195051   6.467   9.018   3.867
31603WAT     H295052   6.624   9.062   3.855
31604WAT      O95053   4.033   7.840   4.076
31604WAT     H195054   3.986   7.927   4.091
31604WAT     H295055   3.967   7.765   4.085
31605WAT      O95056   5.154   9.554   2.333
31605WAT     H195057   5.158   9.455   2.346
31605WAT     H295058   5.183   9.577   2.240
31606WAT      O95059   3.635   9.676   3.713
31606WAT     H195060   3.539   9.683   3.741
31606WAT     H295061   3.693   9.715   3.784
31607WAT      O95062   1.710   7.725   8.633
31607WAT     H195063   1.667   7.781   8.704
31607WAT     H295064   1.698   7.769   8.544
31608WAT      O95065   0.741   5.198   0.636
31608WAT     H195066   0.755   5.167   0.730
31608WAT     H295067   0.824   5.180   0.582
31609WAT      O95068   2.930   0.175   3.228
31609WAT     H195069   2.910   0.121   3.311
31609WAT     H295070   2.853   0.166   3.164
31610WAT      O95071   2.684   1.289   8.290
31610WAT     H195072   2.668   1.221   8.218
31610WAT     H295073   2.634   1.262   8.372
31611WAT      O95074   3.245   9.773   7.344
31611WAT     H195075   3.321   9.836   7.330
31611WAT     H295076   3.158   9.823   7.336
31612WAT      O95077   1.951   0.030   5.453
31612WAT     H195078   2.001  -0.050   5.486
31612WAT     H295079   1.987   0.113   5.497
31613WAT      O95080   5.972   8.513   7.366
31613WAT     H195081   6.012   8.427   7.398
31613WAT     H295082   5.971   8.515   7.266
31614WAT      O95083   1.312   6.544   8.151
31614WAT     H195084   1.359   6.627   8.121
31614WAT     H295085   1.223   6.538   8.106
31615WAT      O95086   1.127   6.827   9.764
31615WAT     H195087   1.092   6.855   9.853
31615WAT     H295088   1.066   6.860   9.692
31616WAT      O95089   3.007   3.662   3.020
31616WAT     H195090   2.948   3.696   3.094
31616WAT     H295091   3.026   3.565   3.035
31617WAT      O95092   0.422   1.230   7.814
31617WAT     H195093   0.468   1.190   7.734
31617WAT     H295094   0.474   1.308   7.848
31618WAT      O95095   1.907   8.027   8.430
31618WAT     H195096   1.844   7.949   8.421
31618WAT     H295097   1.857   8.106   8.464
31619WAT      O95098   7.367   5.088   1.745
31619WAT     H195099   7.418   5.024   1.804
31619WAT     H295100   7.328   5.161   1.801
31620WAT      O95101   2.528   5.396   0.633
31620WAT     H195102   2.625   5.415   0.619
31620WAT     H295103   2.476   5.429   0.554
31621WAT      O95104   7.572   0.097   2.153
31621WAT     H195105   7.481   0.110   2.113
31621WAT     H295106   7.565   0.035   2.232
31622WAT      O95107   5.824   5.677   2.939
31622WAT     H195108   5.807   5.730   2.856
31622WAT     H295109   5.921   5.685   2.964
31623WAT      O95110   2.797   5.261   3.319
31623WAT     H195111   2.818   5.231   3.226
31623WAT     H295112   2.875   5.311   3.356
31624WAT      O95113   5.355   0.873   9.105
31624WAT     H195114   5.298   0.953   9.124
31624WAT     H295115   5.314   0.820   9.031
31625WAT      O95116   3.007   5.684   5.575
31625WAT     H195117   2.995   5.593   5.613
31625WAT     H295118   3.100   5.695   5.540
31626WAT      O95119   5.865   0.520   3.371
31626WAT     H195120   5.772   0.556   3.358
31626WAT     H295121   5.903   0.554   3.456
31627WAT      O95122   1.314   0.893   1.682
31627WAT     H195123   1.307   0.908   1.583
31627WAT     H295124   1.224   0.906   1.724
31628WAT      O95125   6.636   3.757   0.942
31628WAT     H195126   6.557   3.745   1.003
31628WAT     H295127   6.614   3.720   0.851
31629WAT      O95128   2.057   4.763   1.346
31629WAT     H195129   1.975   4.807   1.382
31629WAT     H295130   2.135   4.825   1.354
31630WAT      O95131   3.895   9.555   1.376
31630WAT     H195132   3.920   9.640   1.330
31630WAT     H295133   3.836   9.575   1.454
31631WAT      O95134   1.217   6.579   0.667
31631WAT     H195135   1.262   6.668   0.677
31631WAT     H295136   1.141   6.573   0.732
31632WAT      O95137   8.774   3.901   9.638
31632WAT     H195138   8.778   3.984   9.693
31632WAT     H295139   8.775   3.926   9.541
31633WAT      O95140   8.668   1.837   0.229
31633WAT     H195141   8.648   1.810   0.323
31633WAT     H295142   8.684   1.936   0.225
31634WAT      O95143   8.038   4.834   4.819
31634WAT     H195144   8.097   4.760   4.789
31634WAT     H295145   7.960   4.796   4.869
31635WAT      O95146   8.660   3.055   7.889
31635WAT     H195147   8.687   2.960   7.903
31635WAT     H295148   8.561   3.062   7.891
31636WAT      O95149   3.247   9.269   8.253
31636WAT     H195150   3.316   9.209   8.214
31636WAT     H295151   3.288   9.358   8.273
31637WAT      O95152   7.308   0.822   3.743
31637WAT     H195153   7.298   0.763   3.663
31637WAT     H295154   7.266   0.778   3.822
31638WAT      O95155   2.342   7.166   3.655
31638WAT     H195156   2.432   7.182   3.694
31638WAT     H295157   2.303   7.253   3.624
31639WAT      O95158   2.047   6.072   0.336
31639WAT     H195159   1.953   6.062   0.368
31639WAT     H295160   2.109   6.066   0.413
31640WAT      O95161   4.866   2.627   8.920
31640WAT     H195162   4.839   2.532   8.901
31640WAT     H295163   4.916   2.630   9.007
31641WAT      O95164   9.722   6.277   5.332
31641WAT     H195165   9.671   6.363   5.321
31641WAT     H295166   9.669   6.202   5.292
31642WAT      O95167   0.874   2.223   4.610
31642WAT     H195168   0.891   2.150   4.677
31642WAT     H295169   0.863   2.310   4.658
31643WAT      O95170   3.767   2.013   0.293
31643WAT     H195171   3.734   1.930   0.338
31643WAT     H295172   3.833   1.988   0.222
31644WAT      O95173   9.801   0.552   7.579
31644WAT     H195174   9.767   0.628   7.634
31644WAT     H295175   9.797   0.576   7.482
31645WAT      O95176   6.986   3.404   9.346
31645WAT     H195177   7.044   3.486   9.348
31645WAT     H295178   6.931   3.405   9.263
31646WAT      O95179   5.721   0.269   8.337
31646WAT     H195180   5.748   0.343   8.274
31646WAT     H295181   5.674   0.198   8.285
31647WAT      O95182   5.737   1.886   1.359
31647WAT     H195183   5.770   1.962   1.414
31647WAT     H295184   5.792   1.805   1.378
31648WAT      O95185   9.469   9.239   2.190
31648WAT     H195186   9.460   9.305   2.115
31648WAT     H295187   9.438   9.281   2.275
31649WAT      O95188   9.125   6.035   8.925
31649WAT     H195189   9.148   5.938   8.936
31649WAT     H295190   9.178   6.089   8.990
31650WAT      O95191   7.676   8.348   3.207
31650WAT     H195192   7.621   8.413   3.155
31650WAT     H295193   7.622   8.267   3.227
31651WAT      O95194   3.947   8.760   9.677
31651WAT     H195195   4.012   8.790   9.607
31651WAT     H295196   3.853   8.779   9.646
31652WAT      O95197   7.848   8.296   3.880
31652WAT     H195198   7.886   8.320   3.970
31652WAT     H295199   7.757   8.257   3.892
31653WAT      O95200   5.361   9.818   7.020
31653WAT     H195201   5.452   9.781   7.040
31653WAT     H295202   5.311   9.831   7.106
31654WAT      O95203   1.308   6.422   9.787
31654WAT     H195204   1.334   6.446   9.880
31654WAT     H295205   1.375   6.358   9.749
31655WAT      O95206   1.664   9.003   5.106
31655WAT     H195207   1.707   8.923   5.147
31655WAT     H295208   1.610   9.051   5.175
31656WAT      O95209   8.055   0.972   6.056
31656WAT     H195210   8.128   1.013   6.111
31656WAT     H295211   8.074   0.987   5.959
31657WAT      O95212   0.196   0.966   9.865
31657WAT     H195213   0.198   1.005   9.772
31657WAT     H295214   0.107   0.986   9.906
31658WAT      O95215   8.340   7.981   9.045
31658WAT     H195216   8.314   8.041   9.121
31658WAT     H295217   8.423   7.930   9.068
31659WAT      O95218   4.841   6.623   1.449
31659WAT     H195219   4.932   6.662   1.459
31659WAT     H295220   4.813   6.627   1.353
31660WAT      O95221   4.913   6.254   4.839
31660WAT     H195222   4.854   6.252   4.758
31660WAT     H295223   4.974   6.175   4.838
31661WAT      O95224   3.160   0.634   5.935
31661WAT     H195225   3.077   0.688   5.946
31661WAT     H295226   3.180   0.622   5.838
31662WAT      O95227   6.015   4.902   3.943
31662WAT     H195228   5.997   4.949   4.029
31662WAT     H295229   6.034   4.970   3.872
31663WAT      O95230   9.744   7.233   8.745
31663WAT     H195231   9.677   7.290   8.698
31663WAT     H295232   9.836   7.255   8.711
31664WAT      O95233   9.463   7.193   0.918
31664WAT     H195234   9.496   7.226   1.006
31664WAT     H295235   9.539   7.189   0.853
31665WAT      O95236   3.212   6.740   3.948
31665WAT     H195237   3.219   6.732   4.047
31665WAT     H295238   3.283   6.801   3.914
31666WAT      O95239   5.181   8.162   9.821
31666WAT     H195240   5.089   8.122   9.817
31666WAT     H295241   5.226   8.133   9.905
31667WAT      O95242   4.215   5.126   5.763
31667WAT     H195243   4.169   5.073   5.691
31667WAT     H295244   4.147   5.178   5.815
31668WAT      O95245   2.387   7.368   2.151
31668WAT     H195246   2.398   7.462   2.120
31668WAT     H295247   2.333   7.317   2.083
31669WAT      O95248   4.907   7.600   4.181
31669WAT     H195249   4.977   7.601   4.253
31669WAT     H295250   4.822   7.564   4.218
31670WAT      O95251   2.351   5.140   2.732
31670WAT     H195252   2.408   5.215   2.699
31670WAT     H295253   2.288   5.112   2.659
31671WAT      O95254   7.889   2.226   0.243
31671WAT     H195255   7.861   2.247   0.149
31671WAT     H295256   7.851   2.137   0.270
31672WAT      O95257   5.528   0.146   5.565
31672WAT     H195258   5.495   0.195   5.646
31672WAT     H295259   5.616   0.102   5.586
31673WAT      O95260   8.859   5.195   9.837
31673WAT     H195261   8.894   5.112   9.794
31673WAT     H295262   8.770   5.218   9.796
31674WAT      O95263   4.351   9.426   0.865
31674WAT     H195264   4.310   9.462   0.949
31674WAT     H295265   4.446   9.402   0.882
31675WAT      O95266   4.386   7.431   0.809
31675WAT     H195267   4.360   7.446   0.714
31675WAT     H295268   4.425   7.340   0.819
31676WAT      O95269   9.599   8.237   4.189
31676WAT     H195270   9.542   8.306   4.235
31676WAT     H295271   9.690   8.236   4.231
31677WAT      O95272   1.842   5.791   9.538
31677WAT     H195273   1.929   5.820   9.499
31677WAT     H295274   1.850   5.699   9.575
31678WAT      O95275   0.227   5.536   2.260
31678WAT     H195276   0.226   5.537   2.360
31678WAT     H295277   0.156   5.598   2.226
31679WAT      O95278   6.342   9.627   7.015
31679WAT     H195279   6.267   9.608   7.078
31679WAT     H295280   6.429   9.600   7.057
31680WAT      O95281   7.398   9.680   4.629
31680WAT     H195282   7.448   9.593   4.625
31680WAT     H295283   7.345   9.691   4.544
31681WAT      O95284   5.379   0.860   8.282
31681WAT     H195285   5.279   0.865   8.287
31681WAT     H295286   5.406   0.808   8.201
31682WAT      O95287   2.712   7.576   0.633
31682WAT     H195288   2.614   7.573   0.652
31682WAT     H295289   2.759   7.505   0.687
31683WAT      O95290   2.493   6.313   9.801
31683WAT     H195291   2.500   6.397   9.747
31683WAT     H295292   2.585   6.280   9.824
31684WAT      O95293   3.762   5.963   3.351
31684WAT     H195294   3.752   5.985   3.254
31684WAT     H295295   3.715   5.877   3.370
31685WAT      O95296   3.731   0.334   6.556
31685WAT     H195297   3.722   0.239   6.527
31685WAT     H295298   3.641   0.372   6.573
31686WAT      O95299   5.964   7.626   6.800
31686WAT     H195300   6.011   7.660   6.881
31686WAT     H295301   5.958   7.699   6.732
31687WAT      O95302   7.537   7.470   3.075
31687WAT     H195303   7.603   7.420   3.019
31687WAT     H295304   7.484   7.404   3.129
31688WAT      O95305   6.420   5.205   3.258
31688WAT     H195306   6.494   5.256   3.302
31688WAT     H295307   6.333   5.229   3.301
31689WAT      O95308   9.766   5.936   9.100
31689WAT     H195309   9.846   5.877   9.088
31689WAT     H295310   9.786   6.005   9.169
31690WAT      O95311   9.114   7.810   9.645
31690WAT     H195312   9.062   7.727   9.627
31690WAT     H295313   9.068   7.864   9.716
31691WAT      O95314   3.441   8.202   7.758
31691WAT     H195315   3.443   8.269   7.832
31691WAT     H295316   3.411   8.114   7.795
31692WAT      O95317   6.691   6.984   1.251
31692WAT     H195318   6.659   7.037   1.329
31692WAT     H295319   6.743   6.905   1.283
31693WAT      O95320   8.672   1.094   6.938
31693WAT     H195321   8.754   1.101   6.995
31693WAT     H295322   8.647   0.998   6.926
31694WAT      O95323   6.481   6.366   8.049
31694WAT     H195324   6.439   6.443   8.001
31694WAT     H295325   6.510   6.297   7.982
31695WAT      O95326   0.313   7.679   0.652
31695WAT     H195327   0.294   7.713   0.560
31695WAT     H295328   0.261   7.733   0.719
31696WAT      O95329   8.098   4.314   6.648
31696WAT     H195330   8.196   4.332   6.655
31696WAT     H295331   8.078   4.227   6.693
31697WAT      O95332   4.693   8.876   2.255
31697WAT     H195333   4.624   8.831   2.312
31697WAT     H295334   4.709   8.822   2.173
31698WAT      O95335   2.491   6.177   8.058
31698WAT     H195336   2.448   6.224   7.981
31698WAT     H295337   2.558   6.111   8.023
31699WAT      O95338   3.059   5.157   2.944
31699WAT     H195339   3.114   5.079   2.913
31699WAT     H295340   2.992   5.125   3.011
31700WAT      O95341   9.377   0.327   1.759
31700WAT     H195342   9.326   0.292   1.837
31700WAT     H295343   9.316   0.332   1.680
31701WAT      O95344   5.466   4.610   3.970
31701WAT     H195345   5.499   4.530   4.019
31701WAT     H295346   5.410   4.581   3.892
31702WAT      O95347   5.891   1.009   8.117
31702WAT     H195348   5.894   1.072   8.039
31702WAT     H295349   5.858   0.919   8.085
31703WAT      O95350   8.312   4.278   7.099
31703WAT     H195351   8.254   4.359   7.109
31703WAT     H295352   8.367   4.286   7.015
31704WAT      O95353   7.590   3.247   0.860
31704WAT     H195354   7.590   3.334   0.810
31704WAT     H295355   7.678   3.236   0.908
31705WAT      O95356   5.779   5.475   7.034
31705WAT     H195357   5.814   5.443   7.122
31705WAT     H295358   5.839   5.443   6.961
31706WAT      O95359   4.865   8.584   9.662
31706WAT     H195360   4.842   8.669   9.615
31706WAT     H295361   4.825   8.584   9.754
31707WAT      O95362   8.752   2.148   6.273
31707WAT     H195363   8.666   2.198   6.269
31707WAT     H295364   8.742   2.068   6.333
31708WAT      O95365   2.639   0.142   5.835
31708WAT     H195366   2.707   0.214   5.820
31708WAT     H295367   2.685   0.059   5.866
31709WAT      O95368   3.348   2.865   3.993
31709WAT     H195369   3.371   2.772   4.021
31709WAT     H295370   3.375   2.929   4.065
31710WAT      O95371   7.899   6.102   7.245
31710WAT     H195372   7.878   6.200   7.245
31710WAT     H295373   7.813   6.050   7.250
31711WAT      O95374   9.829   6.402   9.705
31711WAT     H195375   9.910   6.345   9.694
31711WAT     H295376   9.827   6.472   9.633
31712WAT      O95377   5.195   2.248   6.582
31712WAT     H195378   5.181   2.316   6.654
31712WAT     H295379   5.280   2.267   6.534
31713WAT      O95380   9.387   8.589   8.292
31713WAT     H195381   9.311   8.645   8.327
31713WAT     H295382   9.422   8.630   8.208
31714WAT      O95383   7.544   8.978   6.601
31714WAT     H195384   7.506   8.898   6.556
31714WAT     H295385   7.568   9.047   6.532
31715WAT      O95386   1.566   3.797   4.846
31715WAT     H195387   1.535   3.781   4.752
31715WAT     H295388   1.632   3.871   4.848
31716WAT      O95389   2.132   5.504   5.243
31716WAT     H195390   2.229   5.522   5.223
31716WAT     H295391   2.083   5.590   5.251
31717WAT      O95392   6.185   1.504   5.442
31717WAT     H195393   6.181   1.596   5.402
31717WAT     H295394   6.264   1.496   5.501
31718WAT      O95395   4.995   1.555   3.198
31718WAT     H195396   5.086   1.574   3.235
31718WAT     H295397   4.964   1.465   3.228
31719WAT      O95398   0.318   1.486   9.818
31719WAT     H195399   0.348   1.544   9.894
31719WAT     H295400   0.371   1.401   9.818
31720WAT      O95401   9.882   8.895   2.334
31720WAT     H195402   9.892   8.810   2.386
31720WAT     H295403   9.815   8.954   2.378
31721WAT      O95404   6.641   2.998   9.456
31721WAT     H195405   6.738   2.982   9.472
31721WAT     H295406   6.630   3.069   9.386
31722WAT      O95407   4.748   0.208   4.302
31722WAT     H195408   4.836   0.250   4.325
31722WAT     H295409   4.754   0.166   4.212
31723WAT      O95410   6.888   6.677   3.148
31723WAT     H195411   6.970   6.621   3.135
31723WAT     H295412   6.828   6.667   3.069
31724WAT      O95413   2.488   7.758   8.509
31724WAT     H195414   2.431   7.676   8.513
31724WAT     H295415   2.541   7.767   8.593
31725WAT      O95416   5.180   8.010   0.552
31725WAT     H195417   5.100   8.013   0.491
31725WAT     H295418   5.261   8.041   0.502
31726WAT      O95419   5.146   2.938   0.774
31726WAT     H195420   5.167   2.849   0.814
31726WAT     H295421   5.050   2.939   0.745
31727WAT      O95422   7.505   0.028   8.887
31727WAT     H195423   7.493   0.079   8.972
31727WAT     H295424   7.518   0.091   8.811
31728WAT      O95425   3.391   3.898   1.457
31728WAT     H195426   3.298   3.887   1.421
31728WAT     H295427   3.452   3.835   1.410
31729WAT      O95428   9.863   2.772   8.757
31729WAT     H195429   9.808   2.834   8.811
31729WAT     H295430   9.906   2.822   8.681
31730WAT      O95431   8.710   9.151   5.793
31730WAT     H195432   8.694   9.249   5.798
31730WAT     H295433   8.794   9.133   5.743
31731WAT      O95434   5.538   5.716   1.452
31731WAT     H195435   5.507   5.785   1.386
31731WAT     H295436   5.501   5.627   1.426
31732WAT      O95437   5.619   1.495   3.042
31732WAT     H195438   5.556   1.424   3.073
31732WAT     H295439   5.574   1.584   3.046
31733WAT      O95440   7.618   9.757   2.719
31733WAT     H195441   7.709   9.792   2.700
31733WAT     H295442   7.586   9.793   2.807
31734WAT      O95443   0.393   4.744   1.354
31734WAT     H195444   0.385   4.833   1.400
31734WAT     H295445   0.303   4.702   1.346
31735WAT      O95446   2.667   4.674   8.050
31735WAT     H195447   2.657   4.670   8.149
31735WAT     H295448   2.737   4.742   8.027
31736WAT      O95449   8.442   6.369   3.547
31736WAT     H195450   8.444   6.425   3.630
31736WAT     H295451   8.506   6.292   3.557
31737WAT      O95452   6.675   8.555   3.375
31737WAT     H195453   6.675   8.495   3.455
31737WAT     H295454   6.758   8.611   3.375
31738WAT      O95455   7.098   6.178   2.193
31738WAT     H195456   7.016   6.128   2.221
31738WAT     H295457   7.076   6.274   2.182
31739WAT      O95458   9.866   1.737   2.847
31739WAT     H195459   9.921   1.701   2.771
31739WAT     H295460   9.882   1.835   2.856
31740WAT      O95461   9.129   6.704   6.162
31740WAT     H195462   9.114   6.743   6.253
31740WAT     H295463   9.094   6.610   6.160
31741WAT      O95464   8.741   4.188   6.020
31741WAT     H195465   8.676   4.155   6.088
31741WAT     H295466   8.805   4.252   6.065
31742WAT      O95467   1.713   4.846   1.754
31742WAT     H195468   1.621   4.857   1.793
31742WAT     H295469   1.736   4.749   1.751
31743WAT      O95470   9.829   9.250   7.384
31743WAT     H195471   9.809   9.155   7.409
31743WAT     H295472   9.857   9.300   7.465
31744WAT      O95473   4.401   1.727   3.385
31744WAT     H195474   4.449   1.743   3.299
31744WAT     H295475   4.304   1.748   3.374
31745WAT      O95476   6.619   7.090   8.465
31745WAT     H195477   6.548   7.094   8.535
31745WAT     H295478   6.699   7.042   8.500
31746WAT      O95479   5.819   7.100   4.716
31746WAT     H195480   5.766   7.181   4.741
31746WAT     H295481   5.759   7.032   4.675
31747WAT      O95482   3.853   4.676   2.786
31747WAT     H195483   3.878   4.612   2.859
31747WAT     H295484   3.779   4.736   2.818
31748WAT      O95485   2.145   2.381   1.551
31748WAT     H195486   2.060   2.383   1.498
31748WAT     H295487   2.139   2.447   1.626
31749WAT      O95488   6.366   9.291   4.660
31749WAT     H195489   6.360   9.212   4.721
31749WAT     H295490   6.274   9.326   4.641
31750WAT      O95491   9.470   1.130   7.890
31750WAT     H195492   9.437   1.138   7.984
31750WAT     H295493   9.569   1.136   7.888
31751WAT      O95494   6.969   5.484   4.928
31751WAT     H195495   6.989   5.402   4.982
31751WAT     H295496   6.874   5.511   4.941
31752WAT      O95497   7.877   1.323   4.452
31752WAT     H195498   7.949   1.311   4.520
31752WAT     H295499   7.887   1.252   4.381
31753WAT      O95500   2.944   3.563   8.988
31753WAT     H195501   2.935   3.565   9.087
31753WAT     H295502   3.036   3.595   8.963
31754WAT      O95503   5.235   8.427   9.749
31754WAT     H195504   5.204   8.349   9.804
31754WAT     H295505   5.179   8.432   9.666
31755WAT      O95506   8.952   8.855   4.654
31755WAT     H195507   8.935   8.919   4.729
31755WAT     H295508   8.869   8.845   4.599
31756WAT      O95509   7.482   4.795   5.488
31756WAT     H195510   7.397   4.758   5.451
31756WAT     H295511   7.515   4.869   5.429
31757WAT      O95512   1.632   4.956   3.845
31757WAT     H195513   1.535   4.976   3.852
31757WAT     H295514   1.678   4.984   3.930
31758WAT      O95515   4.727   0.951   5.432
31758WAT     H195516   4.656   0.991   5.373
31758WAT     H295517   4.770   1.023   5.486
31759WAT      O95518   3.335   5.091   2.678
31759WAT     H195519   3.429   5.111   2.706
31759WAT     H295520   3.307   5.002   2.712
31760WAT      O95521   6.182   2.923   0.934
31760WAT     H195522   6.278   2.953   0.928
31760WAT     H295523   6.123   2.995   0.898
31761WAT      O95524   1.319   4.908   8.308
31761WAT     H195525   1.249   4.837   8.315
31761WAT     H295526   1.290   4.976   8.240
31762WAT      O95527   3.306   3.895   5.204
31762WAT     H195528   3.255   3.979   5.221
31762WAT     H295529   3.370   3.879   5.279
31763WAT      O95530   4.877   7.764   8.100
31763WAT     H195531   4.914   7.721   8.018
31763WAT     H295532   4.808   7.705   8.141
31764WAT      O95533   2.861   1.115   9.231
31764WAT     H195534   2.779   1.119   9.174
31764WAT     H295535   2.892   1.208   9.251
31765WAT      O95536   3.794   4.062   3.678
31765WAT     H195537   3.787   4.084   3.775
31765WAT     H295538   3.871   4.000   3.663
31766WAT      O95539   5.098   8.924   6.833
31766WAT     H195540   5.114   9.001   6.894
31766WAT     H295541   5.032   8.951   6.763
31767WAT      O95542   6.904   4.587   3.718
31767WAT     H195543   6.828   4.641   3.754
31767WAT     H295544   6.990   4.635   3.737
31768WAT      O95545   8.643   3.633   8.307
31768WAT     H195546   8.650   3.633   8.407
31768WAT     H295547   8.727   3.596   8.268
31769WAT      O95548   8.597   1.252   9.700
31769WAT     H195549   8.510   1.289   9.669
31769WAT     H295550   8.668   1.322   9.693
31770WAT      O95551   3.484   6.970   0.349
31770WAT     H195552   3.387   6.947   0.359
31770WAT     H295553   3.533   6.946   0.433
31771WAT      O95554   7.693   0.854   6.306
31771WAT     H195555   7.628   0.929   6.322
31771WAT     H295556   7.718   0.813   6.394
31772WAT      O95557   7.398   6.961   8.836
31772WAT     H195558   7.455   6.886   8.803
31772WAT     H295559   7.443   7.048   8.815
31773WAT      O95560   8.266   3.585   1.492
31773WAT     H195561   8.169   3.583   1.518
31773WAT     H295562   8.309   3.499   1.521
31774WAT      O95563   9.844   1.934   9.711
31774WAT     H195564   9.808   1.982   9.791
31774WAT     H295565   9.797   1.967   9.629
31775WAT      O95566   5.248   2.063   0.372
31775WAT     H195567   5.212   1.984   0.421
31775WAT     H295568   5.277   2.036   0.280
31776WAT      O95569   0.211   7.235   7.545
31776WAT     H195570   0.225   7.228   7.644
31776WAT     H295571   0.113   7.230   7.525
31777WAT      O95572   0.809   6.672   7.872
31777WAT     H195573   0.900   6.635   7.854
31777WAT     H295574   0.788   6.745   7.806
31778WAT      O95575   4.561   3.198   2.021
31778WAT     H195576   4.508   3.280   2.003
31778WAT     H295577   4.653   3.208   1.981
31779WAT      O95578   7.589   5.801   4.261
31779WAT     H195579   7.549   5.828   4.173
31779WAT     H295580   7.515   5.774   4.324
31780WAT      O95581   7.778   6.816   6.871
31780WAT     H195582   7.801   6.890   6.933
31780WAT     H295583   7.721   6.749   6.918
31781WAT      O95584   0.265   8.480   9.538
31781WAT     H195585   0.186   8.426   9.508
31781WAT     H295586   0.270   8.565   9.485
31782WAT      O95587   9.349   0.630   0.999
31782WAT     H195588   9.394   0.546   0.969
31782WAT     H295589   9.250   0.617   0.997
31783WAT      O95590   9.144   2.072   7.442
31783WAT     H195591   9.048   2.057   7.465
31783WAT     H295592   9.180   2.147   7.496
31784WAT      O95593   5.403   9.538   6.012
31784WAT     H195594   5.380   9.482   6.092
31784WAT     H295595   5.498   9.569   6.019
31785WAT      O95596   7.560   2.954   1.155
31785WAT     H195597   7.657   2.973   1.135
31785WAT     H295598   7.524   2.891   1.086
31786WAT      O95599   3.661   0.637   5.004
31786WAT     H195600   3.727   0.654   4.932
31786WAT     H295601   3.695   0.675   5.090
31787WAT      O95602   0.164   1.691   5.760
31787WAT     H195603   0.252   1.737   5.751
31787WAT     H295604   0.176   1.600   5.798
31788WAT      O95605   3.984   7.182   8.110
31788WAT     H195606   3.942   7.202   8.198
31788WAT     H295607   3.941   7.102   8.069
31789WAT      O95608   4.423   0.352   1.756
31789WAT     H195609   4.478   0.270   1.740
31789WAT     H295610   4.415   0.367   1.855
31790WAT      O95611   8.875   1.827   9.724
31790WAT     H195612   8.812   1.904   9.740
31790WAT     H295613   8.932   1.847   9.645
31791WAT      O95614   3.919   4.268   7.740
31791WAT     H195615   3.837   4.287   7.794
31791WAT     H295616   3.962   4.184   7.773
31792WAT      O95617   6.759   9.074   0.651
31792WAT     H195618   6.859   9.073   0.648
31792WAT     H295619   6.723   9.075   0.558
31793WAT      O95620   6.050   9.770   8.641
31793WAT     H195621   5.972   9.810   8.594
31793WAT     H295622   6.063   9.816   8.729
31794WAT      O95623   3.046   1.573   1.897
31794WAT     H195624   3.069   1.509   1.824
31794WAT     H295625   3.002   1.654   1.857
31795WAT      O95626   2.282   8.707   2.826
31795WAT     H195627   2.244   8.727   2.736
31795WAT     H295628   2.316   8.791   2.868
31796WAT      O95629   2.377   0.146   2.554
31796WAT     H195630   2.418   0.083   2.620
31796WAT     H295631   2.418   0.236   2.565
31797WAT      O95632   3.064   4.920   4.151
31797WAT     H195633   3.067   4.822   4.171
31797WAT     H295634   3.144   4.946   4.098
31798WAT      O95635   7.559   4.690   5.029
31798WAT     H195636   7.503   4.645   5.099
31798WAT     H295637   7.502   4.716   4.952
31799WAT      O95638   8.434   3.305   6.681
31799WAT     H195639   8.515   3.362   6.697
31799WAT     H295640   8.389   3.333   6.596
31800WAT      O95641   3.145   9.736   6.247
31800WAT     H195642   3.178   9.736   6.153
31800WAT     H295643   3.079   9.810   6.260
31801WAT      O95644   3.245   2.850   6.812
31801WAT     H195645   3.183   2.824   6.886
31801WAT     H295646   3.338   2.858   6.848
31802WAT      O95647   3.840   2.948   0.789
31802WAT     H195648   3.792   2.862   0.806
31802WAT     H295649   3.821   2.979   0.696
31803WAT      O95650   7.439   9.513   8.176
31803WAT     H195651   7.440   9.590   8.112
31803WAT     H295652   7.526   9.465   8.171
31804WAT      O95653   1.462   0.159   4.460
31804WAT     H195654   1.383   0.159   4.398
31804WAT     H295655   1.539   0.112   4.415
31805WAT      O95656   4.471   7.841   8.405
31805WAT     H195657   4.457   7.786   8.322
31805WAT     H295658   4.386   7.887   8.429
31806WAT      O95659   8.246   5.318   7.998
31806WAT     H195660   8.180   5.254   7.959
31806WAT     H295661   8.338   5.282   7.987
31807WAT      O95662   8.672   0.248   2.260
31807WAT     H195663   8.697   0.319   2.194
31807WAT     H295664   8.689   0.158   2.220
31808WAT      O95665   9.429   0.494   3.269
31808WAT     H195666   9.504   0.467   3.329
31808WAT     H295667   9.342   0.470   3.311
31809WAT      O95668   9.290   8.894   4.512
31809WAT     H195669   9.230   8.815   4.494
31809WAT     H295670   9.302   8.905   4.611
31810WAT      O95671   0.214   7.017   4.995
31810WAT     H195672   0.177   7.076   5.066
31810WAT     H295673   0.309   6.993   5.017
31811WAT      O95674   9.644   0.683   9.721
31811WAT     H195675   9.551   0.718   9.714
31811WAT     H295676   9.699   0.718   9.644
31812WAT      O95677   7.441   7.643   6.336
31812WAT     H195678   7.456   7.564   6.277
31812WAT     H295679   7.529   7.681   6.363
31813WAT      O95680   5.786   1.995   6.929
31813WAT     H195681   5.841   1.911   6.931
31813WAT     H295682   5.847   2.074   6.933
31814WAT      O95683   6.540   4.974   8.873
31814WAT     H195684   6.535   4.999   8.970
31814WAT     H295685   6.463   5.016   8.824
31815WAT      O95686   7.426   5.709   1.141
31815WAT     H195687   7.463   5.682   1.052
31815WAT     H295688   7.354   5.645   1.168
31816WAT      O95689   0.721   9.077   0.315
31816WAT     H195690   0.711   9.118   0.224
31816WAT     H295691   0.717   8.978   0.307
31817WAT      O95692   6.717   9.651   1.304
31817WAT     H195693   6.743   9.702   1.221
31817WAT     H295694   6.626   9.681   1.333
31818WAT      O95695   9.872   3.125   2.535
31818WAT     H195696   9.809   3.126   2.612
31818WAT     H295697   9.821   3.139   2.450
31819WAT      O95698   9.811   6.933   6.890
31819WAT     H195699   9.826   6.835   6.885
31819WAT     H295700   9.750   6.954   6.967
31820WAT      O95701   5.910   1.810   8.757
31820WAT     H195702   5.823   1.768   8.731
31820WAT     H295703   5.983   1.742   8.750
31821WAT      O95704   3.255   6.784   2.106
31821WAT     H195705   3.228   6.689   2.118
31821WAT     H295706   3.190   6.844   2.152
31822WAT      O95707   3.911   0.254   2.852
31822WAT     H195708   3.968   0.177   2.823
31822WAT     H295709   3.815   0.234   2.831
31823WAT      O95710   9.283   2.321   9.840
31823WAT     H195711   9.221   2.334   9.917
31823WAT     H295712   9.291   2.224   9.820
31824WAT      O95713   5.711   1.026   1.345
31824WAT     H195714   5.713   0.926   1.338
31824WAT     H295715   5.622   1.055   1.378
31825WAT      O95716   7.871   1.879   6.668
31825WAT     H195717   7.968   1.887   6.643
31825WAT     H295718   7.815   1.886   6.585
31826WAT      O95719   6.763   5.644   8.639
31826WAT     H195720   6.708   5.563   8.658
31826WAT     H295721   6.852   5.617   8.602
31827WAT      O95722   1.313   6.877   7.588
31827WAT     H195723   1.344   6.910   7.498
31827WAT     H295724   1.216   6.896   7.599
31828WAT      O95725   5.169   0.514   5.327
31828WAT     H195726   5.214   0.426   5.345
31828WAT     H295727   5.232   0.574   5.278
31829WAT      O95728   4.291   3.791   2.916
31829WAT     H195729   4.312   3.753   2.826
31829WAT     H295730   4.263   3.718   2.978
31830WAT      O95731   0.541   9.467   0.298
31830WAT     H195732   0.542   9.439   0.202
31830WAT     H295733   0.542   9.386   0.356
31831WAT      O95734   2.638   7.038   3.426
31831WAT     H195735   2.539   7.026   3.432
31831WAT     H295736   2.680   6.954   3.391
31832WAT      O95737   2.496   1.798   5.028
31832WAT     H195738   2.562   1.797   4.953
31832WAT     H295739   2.414   1.746   5.001
31833WAT      O95740   0.377   4.720   6.021
31833WAT     H195741   0.284   4.732   5.985
31833WAT     H295742   0.382   4.636   6.075
31834WAT      O95743   8.901   4.567   3.164
31834WAT     H195744   8.932   4.518   3.083
31834WAT     H295745   8.937   4.523   3.246
31835WAT      O95746   3.385   3.239   3.479
31835WAT     H195747   3.393   3.222   3.578
31835WAT     H295748   3.471   3.277   3.445
31836WAT      O95749   0.339   1.049   2.687
31836WAT     H195750   0.316   0.968   2.742
31836WAT     H295751   0.304   1.131   2.731
31837WAT      O95752   0.738   1.603   3.249
31837WAT     H195753   0.816   1.654   3.212
31837WAT     H295754   0.771   1.522   3.297
31838WAT      O95755   1.763   5.195   8.589
31838WAT     H195756   1.739   5.165   8.496
31838WAT     H295757   1.790   5.292   8.586
31839WAT      O95758   7.768   4.090   6.639
31839WAT     H195759   7.729   4.154   6.705
31839WAT     H295760   7.756   4.127   6.546
31840WAT      O95761   2.583   9.160   2.903
31840WAT     H195762   2.602   9.133   2.809
31840WAT     H295763   2.543   9.252   2.904
31841WAT      O95764   7.225   8.843   2.965
31841WAT     H195765   7.179   8.766   2.921
31841WAT     H295766   7.324   8.832   2.958
31842WAT      O95767   3.961   6.378   8.959
31842WAT     H195768   3.994   6.369   9.053
31842WAT     H295769   3.961   6.288   8.915
31843WAT      O95770   4.831   7.639   5.129
31843WAT     H195771   4.773   7.633   5.210
31843WAT     H295772   4.906   7.703   5.146
31844WAT      O95773   0.038   6.825   2.883
31844WAT     H195774   0.012   6.854   2.791
31844WAT     H295775   0.034   6.902   2.946
31845WAT      O95776   8.631   3.094   3.967
31845WAT     H195777   8.596   3.008   3.929
31845WAT     H295778   8.558   3.142   4.014
31846WAT      O95779   0.641   7.927   7.364
31846WAT     H195780   0.701   7.949   7.286
31846WAT     H295781   0.646   8.001   7.431
31847WAT      O95782   7.471   1.717   0.780
31847WAT     H195783   7.556   1.763   0.804
31847WAT     H295784   7.485   1.658   0.700
31848WAT      O95785   5.047   3.617   2.191
31848WAT     H195786   5.093   3.690   2.140
31848WAT     H295787   5.076   3.619   2.286
31849WAT      O95788   2.782   0.921   2.044
31849WAT     H195789   2.769   0.853   1.972
31849WAT     H295790   2.806   0.875   2.130
31850WAT      O95791   8.069   9.686   0.396
31850WAT     H195792   8.033   9.718   0.483
31850WAT     H295793   8.097   9.590   0.404
31851WAT      O95794   3.930   2.358   8.222
31851WAT     H195795   3.913   2.325   8.129
31851WAT     H295796   4.007   2.308   8.261
31852WAT      O95797   7.057   2.131   6.997
31852WAT     H195798   7.145   2.176   7.013
31852WAT     H295799   7.073   2.033   6.981
31853WAT      O95800   8.930   2.482   8.566
31853WAT     H195801   8.973   2.544   8.500
31853WAT     H295802   9.000   2.424   8.607
31854WAT      O95803   1.371   1.600   4.429
31854WAT     H195804   1.374   1.507   4.390
31854WAT     H295805   1.276   1.625   4.447
31855WAT      O95806   8.133   3.994   3.584
31855WAT     H195807   8.081   4.064   3.536
31855WAT     H295808   8.229   4.000   3.557
31856WAT      O95809   1.116   5.936   2.592
31856WAT     H195810   1.125   5.881   2.509
31856WAT     H295811   1.059   6.016   2.572
31857WAT      O95812   5.462   9.702   0.867
31857WAT     H195813   5.530   9.751   0.921
31857WAT     H295814   5.418   9.633   0.924
31858WAT      O95815   1.922   5.860   1.291
31858WAT     H195816   1.978   5.794   1.241
31858WAT     H295817   1.878   5.815   1.368
31859WAT      O95818   1.793   5.969   6.598
31859WAT     H195819   1.770   5.960   6.501
31859WAT     H295820   1.740   6.045   6.637
31860WAT      O95821   8.326   2.736   6.136
31860WAT     H195822   8.241   2.720   6.187
31860WAT     H295823   8.402   2.693   6.186
31861WAT      O95824   2.914   4.192   6.494
31861WAT     H195825   2.991   4.179   6.432
31861WAT     H295826   2.887   4.288   6.494
31862WAT      O95827   7.678   1.986   2.489
31862WAT     H195828   7.615   2.030   2.425
31862WAT     H295829   7.659   2.017   2.582
31863WAT      O95830   0.325   6.750   2.042
31863WAT     H195831   0.250   6.685   2.024
31863WAT     H295832   0.315   6.829   1.982
31864WAT      O95833   1.634   0.602   5.252
31864WAT     H195834   1.654   0.681   5.310
31864WAT     H295835   1.581   0.535   5.305
31865WAT      O95836   9.578   2.994   6.042
31865WAT     H195837   9.613   2.914   5.992
31865WAT     H295838   9.532   3.055   5.978
31866WAT      O95839   2.918   1.386   9.229
31866WAT     H195840   3.014   1.388   9.255
31866WAT     H295841   2.895   1.469   9.179
31867WAT      O95842   5.901   2.741   9.254
31867WAT     H195843   5.857   2.652   9.247
31867WAT     H295844   5.843   2.803   9.307
31868WAT      O95845   2.626   7.888   6.118
31868WAT     H195846   2.708   7.841   6.085
31868WAT     H295847   2.551   7.823   6.125
31869WAT      O95848   4.466   2.247   6.166
31869WAT     H195849   4.429   2.168   6.119
31869WAT     H295850   4.554   2.272   6.126
31870WAT      O95851   0.575   8.824   7.923
31870WAT     H195852   0.528   8.893   7.868
31870WAT     H295853   0.606   8.750   7.863
31871WAT      O95854   4.673   7.685   6.550
31871WAT     H195855   4.683   7.785   6.550
31871WAT     H295856   4.738   7.645   6.615
31872WAT      O95857   9.586   7.089   8.256
31872WAT     H195858   9.555   7.178   8.288
31872WAT     H295859   9.686   7.089   8.248
31873WAT      O95860   3.073   0.165   1.350
31873WAT     H195861   3.100   0.100   1.421
31873WAT     H295862   2.978   0.193   1.365
31874WAT      O95863   5.976   9.005   7.602
31874WAT     H195864   5.962   9.101   7.578
31874WAT     H295865   5.957   8.993   7.700
31875WAT      O95866   3.480   2.899   6.940
31875WAT     H195867   3.442   2.982   6.982
31875WAT     H295868   3.518   2.840   7.010
31876WAT      O95869   9.885   5.906   7.188
31876WAT     H195870   9.962   5.933   7.245
31876WAT     H295871   9.840   5.826   7.229
31877WAT      O95872   8.731   9.628   2.345
31877WAT     H195873   8.763   9.534   2.340
31877WAT     H295874   8.642   9.630   2.392
31878WAT      O95875   4.148   5.987   7.184
31878WAT     H195876   4.113   6.064   7.131
31878WAT     H295877   4.136   6.006   7.282
31879WAT      O95878   7.523   5.625   3.184
31879WAT     H195879   7.526   5.667   3.094
31879WAT     H295880   7.573   5.682   3.249
31880WAT      O95881   8.222   5.037   8.856
31880WAT     H195882   8.238   5.119   8.801
31880WAT     H295883   8.217   4.957   8.796
31881WAT      O95884   2.488   4.275   1.298
31881WAT     H195885   2.529   4.211   1.364
31881WAT     H295886   2.545   4.357   1.291
31882WAT      O95887   0.078   1.428   9.670
31882WAT     H195888   0.150   1.456   9.733
31882WAT     H295889   0.067   1.497   9.599
31883WAT      O95890   5.841   8.609   8.307
31883WAT     H195891   5.884   8.684   8.257
31883WAT     H295892   5.763   8.575   8.254
31884WAT      O95893   9.693   7.210   0.779
31884WAT     H195894   9.702   7.289   0.840
31884WAT     H295895   9.670   7.243   0.687
31885WAT      O95896   5.020   6.268   6.069
31885WAT     H195897   5.091   6.322   6.024
31885WAT     H295898   4.989   6.197   6.006
31886WAT      O95899   5.508   3.839   5.555
31886WAT     H195900   5.437   3.768   5.552
31886WAT     H295901   5.505   3.886   5.643
31887WAT      O95902   1.112   1.906   7.444
31887WAT     H195903   1.030   1.867   7.403
31887WAT     H295904   1.125   1.868   7.535
31888WAT      O95905   6.545   9.313   0.240
31888WAT     H195906   6.490   9.365   0.305
31888WAT     H295907   6.606   9.375   0.190
31889WAT      O95908   9.516   1.114   9.472
31889WAT     H195909   9.600   1.089   9.520
31889WAT     H295910   9.503   1.055   9.393
31890WAT      O95911   2.257   1.692   9.139
31890WAT     H195912   2.189   1.625   9.109
31890WAT     H295913   2.229   1.732   9.226
31891WAT      O95914   6.378   1.419   6.797
31891WAT     H195915   6.320   1.415   6.879
31891WAT     H295916   6.341   1.487   6.734
31892WAT      O95917   4.145   8.881   6.366
31892WAT     H195918   4.229   8.843   6.327
31892WAT     H295919   4.167   8.958   6.426
31893WAT      O95920   2.678   4.273   6.847
31893WAT     H195921   2.633   4.212   6.912
31893WAT     H295922   2.732   4.341   6.898
31894WAT      O95923   9.446   9.483   3.464
31894WAT     H195924   9.494   9.437   3.390
31894WAT     H295925   9.401   9.415   3.522
31895WAT      O95926   8.431   8.123   8.515
31895WAT     H195927   8.492   8.044   8.501
31895WAT     H295928   8.407   8.128   8.612
31896WAT      O95929   4.588   5.245   3.128
31896WAT     H195930   4.534   5.203   3.055
31896WAT     H295931   4.660   5.303   3.089
31897WAT      O95932   4.284   6.948   7.198
31897WAT     H195933   4.323   7.029   7.241
31897WAT     H295934   4.308   6.867   7.253
31898WAT      O95935   2.908   0.521   2.543
31898WAT     H195936   2.973   0.587   2.581
31898WAT     H295937   2.938   0.494   2.451
31899WAT      O95938   4.360   1.853   9.706
31899WAT     H195939   4.306   1.844   9.622
31899WAT     H295940   4.449   1.810   9.693
   9.88928    9.84380    9.89279 
