GROningen MAchine for Chemical Simulation
95940
    1G5    HO5'    1   6.600   6.907   4.890
    1G5     O5'    2   6.506   6.898   4.873
    1G5     C5'    3   6.447   6.975   4.972
    1G5     H5'    4   6.521   7.052   4.994
    1G5    H5''    5   6.427   6.918   5.062
    1G5     C4'    6   6.314   7.044   4.931
    1G5     H4'    7   6.275   7.079   5.026
    1G5     O4'    8   6.324   7.158   4.846
    1G5     C1'    9   6.241   7.141   4.728
    1G5     H1'   10   6.183   7.230   4.704
    1G5      N9   11   6.329   7.107   4.615
    1G5      C8   12   6.466   7.094   4.611
    1G5      H8   13   6.531   7.123   4.692
    1G5      N7   14   6.525   7.074   4.497
    1G5      C5   15   6.420   7.057   4.412
    1G5      C6   16   6.412   7.007   4.279
    1G5      O6   17   6.503   6.963   4.207
    1G5      N1   18   6.286   7.022   4.228
    1G5      H1   19   6.266   6.992   4.133
    1G5      C2   20   6.175   7.054   4.297
    1G5      N2   21   6.074   7.092   4.227
    1G5     H21   22   6.092   7.111   4.129
    1G5     H22   23   6.001   7.145   4.272
    1G5      N3   24   6.172   7.093   4.426
    1G5      C4   25   6.297   7.087   4.479
    1G5     C3'   26   6.212   6.953   4.867
    1G5     H3'   27   6.258   6.868   4.817
    1G5     C2'   28   6.139   7.037   4.762
    1G5     H2'   29   6.121   6.976   4.673
    1G5     O2'   30   6.020   7.102   4.810
    1G5    HO2'   31   5.958   7.036   4.840
    1G5     O3'   32   6.112   6.904   4.954
    2G        P   33   6.056   6.755   4.934
    2G      OP1   34   5.939   6.736   5.018
    2G      OP2   35   6.168   6.662   4.938
    2G      O5'   36   6.002   6.748   4.781
    2G      C5'   37   5.870   6.744   4.730
    2G      H5'   38   5.817   6.838   4.746
    2G     H5''   39   5.814   6.661   4.773
    2G      C4'   40   5.890   6.720   4.580
    2G      H4'   41   5.788   6.726   4.542
    2G      O4'   42   5.966   6.819   4.506
    2G      C1'   43   6.043   6.758   4.405
    2G      H1'   44   6.029   6.806   4.307
    2G       N9   45   6.187   6.745   4.439
    2G       C8   46   6.250   6.750   4.563
    2G       H8   47   6.199   6.760   4.658
    2G       N7   48   6.378   6.727   4.554
    2G       C5   49   6.402   6.706   4.422
    2G       C6   50   6.524   6.687   4.355
    2G       O6   51   6.643   6.687   4.398
    2G       N1   52   6.506   6.659   4.215
    2G       H1   53   6.594   6.641   4.168
    2G       C2   54   6.385   6.675   4.155
    2G       N2   55   6.391   6.670   4.028
    2G      H21   56   6.476   6.646   3.980
    2G      H22   57   6.307   6.683   3.973
    2G       N3   58   6.271   6.708   4.219
    2G       C4   59   6.289   6.716   4.351
    2G      C3'   60   5.953   6.583   4.540
    2G      H3'   61   6.045   6.562   4.595
    2G      C2'   62   5.986   6.614   4.392
    2G      H2'   63   6.065   6.549   4.354
    2G      O2'   64   5.876   6.613   4.301
    2G     HO2'   65   5.917   6.606   4.214
    2G      O3'   66   5.863   6.477   4.553
    3G        P   67   5.922   6.323   4.558
    3G      OP1   68   5.806   6.233   4.567
    3G      OP2   69   6.031   6.320   4.659
    3G      O5'   70   5.990   6.298   4.416
    3G      C5'   71   5.916   6.262   4.296
    3G      H5'   72   5.853   6.348   4.272
    3G     H5''   73   5.856   6.173   4.315
    3G      C4'   74   6.015   6.231   4.189
    3G      H4'   75   5.961   6.209   4.097
    3G      O4'   76   6.118   6.329   4.165
    3G      C1'   77   6.247   6.265   4.141
    3G      H1'   78   6.298   6.302   4.052
    3G       N9   79   6.334   6.288   4.262
    3G       C8   80   6.303   6.369   4.369
    3G       H8   81   6.211   6.419   4.395
    3G       N7   82   6.409   6.378   4.452
    3G       C5   83   6.511   6.306   4.399
    3G       C6   84   6.644   6.282   4.441
    3G       O6   85   6.701   6.332   4.540
    3G       N1   86   6.724   6.206   4.353
    3G       H1   87   6.819   6.181   4.372
    3G       C2   88   6.666   6.163   4.238
    3G       N2   89   6.732   6.070   4.184
    3G      H21   90   6.822   6.040   4.219
    3G      H22   91   6.678   6.012   4.121
    3G       N3   92   6.544   6.186   4.187
    3G       C4   93   6.471   6.256   4.278
    3G      C3'   94   6.092   6.108   4.222
    3G      H3'   95   6.123   6.118   4.326
    3G      C2'   96   6.225   6.117   4.143
    3G      H2'   97   6.306   6.055   4.182
    3G      O2'   98   6.221   6.086   4.009
    3G     HO2'   99   6.178   6.000   3.999
    3G      O3'  100   6.020   5.990   4.195
    4U        P  101   6.027   5.865   4.297
    4U      OP1  102   5.975   5.746   4.233
    4U      OP2  103   5.972   5.912   4.421
    4U      O5'  104   6.177   5.843   4.321
    4U      C5'  105   6.257   5.779   4.223
    4U      H5'  106   6.256   5.842   4.134
    4U     H5''  107   6.211   5.683   4.198
    4U      C4'  108   6.395   5.769   4.272
    4U      H4'  109   6.463   5.721   4.201
    4U      O4'  110   6.451   5.890   4.300
    4U      C1'  111   6.549   5.877   4.400
    4U      H1'  112   6.648   5.905   4.366
    4U       N1  113   6.520   5.954   4.528
    4U       C6  114   6.400   6.021   4.550
    4U       H6  115   6.319   5.998   4.482
    4U       C5  116   6.385   6.115   4.647
    4U       H5  117   6.293   6.168   4.665
    4U       C4  118   6.495   6.153   4.727
    4U       O4  119   6.496   6.240   4.817
    4U       N3  120   6.611   6.089   4.695
    4U       H3  121   6.696   6.128   4.734
    4U       C2  122   6.630   5.988   4.604
    4U       O2  123   6.736   5.929   4.594
    4U      C3'  124   6.406   5.684   4.398
    4U      H3'  125   6.344   5.713   4.482
    4U      C2'  126   6.547   5.730   4.434
    4U      H2'  127   6.570   5.722   4.540
    4U      O2'  128   6.651   5.659   4.360
    4U     HO2'  129   6.627   5.568   4.344
    4U      O3'  130   6.397   5.543   4.384
    5U        P  131   6.352   5.443   4.501
    5U      OP1  132   6.361   5.309   4.448
    5U      OP2  133   6.223   5.495   4.550
    5U      O5'  134   6.447   5.463   4.625
    5U      C5'  135   6.575   5.400   4.635
    5U      H5'  136   6.635   5.424   4.548
    5U     H5''  137   6.568   5.292   4.631
    5U      C4'  138   6.646   5.447   4.763
    5U      H4'  139   6.742   5.396   4.766
    5U      O4'  140   6.690   5.581   4.766
    5U      C1'  141   6.674   5.616   4.905
    5U      H1'  142   6.765   5.658   4.950
    5U       N1  143   6.570   5.719   4.932
    5U       C6  144   6.472   5.751   4.840
    5U       H6  145   6.477   5.685   4.755
    5U       C5  146   6.378   5.844   4.871
    5U       H5  147   6.297   5.867   4.803
    5U       C4  148   6.387   5.920   4.992
    5U       O4  149   6.314   6.016   5.018
    5U       N3  150   6.491   5.893   5.076
    5U       H3  151   6.497   5.937   5.167
    5U       C2  152   6.579   5.791   5.052
    5U       O2  153   6.669   5.770   5.136
    5U      C3'  154   6.562   5.409   4.882
    5U      H3'  155   6.464   5.455   4.872
    5U      C2'  156   6.629   5.493   4.990
    5U      H2'  157   6.562   5.531   5.067
    5U      O2'  158   6.737   5.432   5.047
    5U     HO2'  159   6.722   5.337   5.041
    5U      O3'  160   6.570   5.275   4.906
    6A        P  161   6.442   5.201   4.982
    6A      OP1  162   6.481   5.057   5.016
    6A      OP2  163   6.319   5.222   4.903
    6A      O5'  164   6.427   5.289   5.110
    6A      C5'  165   6.511   5.266   5.217
    6A      H5'  166   6.618   5.280   5.198
    6A     H5''  167   6.504   5.161   5.245
    6A      C4'  168   6.477   5.354   5.336
    6A      H4'  169   6.543   5.323   5.417
    6A      O4'  170   6.488   5.493   5.295
    6A      C1'  171   6.390   5.562   5.357
    6A      H1'  172   6.441   5.640   5.414
    6A       N9  173   6.313   5.627   5.253
    6A       C8  174   6.282   5.590   5.125
    6A       H8  175   6.322   5.501   5.078
    6A       N7  176   6.199   5.671   5.059
    6A       C5  177   6.174   5.763   5.158
    6A       C6  178   6.081   5.872   5.166
    6A       N6  179   6.014   5.926   5.069
    6A      H61  180   5.949   5.999   5.094
    6A      H62  181   6.031   5.895   4.974
    6A       N1  182   6.068   5.936   5.281
    6A       C2  183   6.148   5.910   5.384
    6A       H2  184   6.133   5.979   5.466
    6A       N3  185   6.232   5.809   5.399
    6A       C4  186   6.235   5.736   5.279
    6A      C3'  187   6.326   5.338   5.367
    6A      H3'  188   6.268   5.335   5.275
    6A      C2'  189   6.299   5.466   5.445
    6A      H2'  190   6.194   5.493   5.430
    6A      O2'  191   6.345   5.439   5.577
    6A     HO2'  192   6.332   5.345   5.587
    6A      O3'  193   6.303   5.227   5.450
    7G        P  194   6.167   5.146   5.442
    7G      OP1  195   6.179   5.023   5.518
    7G      OP2  196   6.139   5.128   5.299
    7G      O5'  197   6.063   5.247   5.500
    7G      C5'  198   6.047   5.273   5.636
    7G      H5'  199   6.139   5.293   5.690
    7G     H5''  200   6.004   5.183   5.681
    7G      C4'  201   5.952   5.389   5.663
    7G      H4'  202   5.940   5.400   5.771
    7G      O4'  203   6.004   5.508   5.594
    7G      C1'  204   5.896   5.588   5.557
    7G      H1'  205   5.903   5.686   5.605
    7G       N9  206   5.891   5.596   5.407
    7G       C8  207   5.955   5.520   5.312
    7G       H8  208   6.023   5.441   5.341
    7G       N7  209   5.929   5.553   5.188
    7G       C5  210   5.834   5.657   5.200
    7G       C6  211   5.761   5.731   5.101
    7G       O6  212   5.756   5.722   4.979
    7G       N1  213   5.680   5.826   5.157
    7G       H1  214   5.635   5.885   5.088
    7G       C2  215   5.673   5.854   5.290
    7G       N2  216   5.581   5.945   5.333
    7G      H21  217   5.520   5.991   5.267
    7G      H22  218   5.587   5.970   5.430
    7G       N3  219   5.735   5.784   5.385
    7G       C4  220   5.814   5.683   5.336
    7G      C3'  221   5.809   5.373   5.608
    7G      H3'  222   5.796   5.328   5.510
    7G      C2'  223   5.763   5.518   5.604
    7G      H2'  224   5.679   5.524   5.535
    7G      O2'  225   5.725   5.577   5.733
    7G     HO2'  226   5.714   5.496   5.782
    7G      O3'  227   5.734   5.299   5.702
    8G        P  228   5.595   5.238   5.663
    8G      OP1  229   5.546   5.174   5.787
    8G      OP2  230   5.621   5.151   5.551
    8G      O5'  231   5.495   5.350   5.606
    8G      C5'  232   5.421   5.448   5.685
    8G      H5'  233   5.494   5.496   5.751
    8G     H5''  234   5.349   5.401   5.751
    8G      C4'  235   5.358   5.559   5.603
    8G      H4'  236   5.329   5.637   5.674
    8G      O4'  237   5.454   5.616   5.518
    8G      C1'  238   5.390   5.648   5.398
    8G      H1'  239   5.408   5.754   5.378
    8G       N9  240   5.446   5.568   5.284
    8G       C8  241   5.541   5.475   5.285
    8G       H8  242   5.592   5.451   5.377
    8G       N7  243   5.580   5.430   5.166
    8G       C5  244   5.506   5.505   5.075
    8G       C6  245   5.484   5.496   4.936
    8G       O6  246   5.555   5.431   4.857
    8G       N1  247   5.383   5.570   4.881
    8G       H1  248   5.374   5.557   4.781
    8G       C2  249   5.315   5.660   4.959
    8G       N2  250   5.225   5.735   4.908
    8G      H21  251   5.216   5.733   4.807
    8G      H22  252   5.169   5.800   4.961
    8G       N3  253   5.318   5.659   5.094
    8G       C4  254   5.420   5.581   5.147
    8G      C3'  255   5.232   5.520   5.521
    8G      H3'  256   5.244   5.422   5.475
    8G      C2'  257   5.233   5.624   5.416
    8G      H2'  258   5.186   5.592   5.323
    8G      O2'  259   5.168   5.747   5.452
    8G     HO2'  260   5.095   5.751   5.514
    8G      O3'  261   5.100   5.517   5.586
    9G        P  262   4.994   5.398   5.559
    9G      OP1  263   4.863   5.434   5.619
    9G      OP2  264   5.056   5.273   5.596
    9G      O5'  265   4.974   5.409   5.400
    9G      C5'  266   4.890   5.502   5.332
    9G      H5'  267   4.915   5.603   5.365
    9G     H5''  268   4.785   5.484   5.355
    9G      C4'  269   4.908   5.496   5.186
    9G      H4'  270   4.841   5.572   5.148
    9G      O4'  271   5.044   5.518   5.140
    9G      C1'  272   5.063   5.441   5.017
    9G      H1'  273   5.091   5.510   4.938
    9G       N9  274   5.169   5.347   5.042
    9G       C8  275   5.245   5.323   5.153
    9G       H8  276   5.242   5.390   5.237
    9G       N7  277   5.325   5.216   5.143
    9G       C5  278   5.313   5.180   5.013
    9G       C6  279   5.383   5.077   4.943
    9G       O6  280   5.475   5.000   4.980
    9G       N1  281   5.344   5.070   4.805
    9G       H1  282   5.419   5.035   4.747
    9G       C2  283   5.262   5.169   4.749
    9G       N2  284   5.261   5.175   4.619
    9G      H21  285   5.310   5.106   4.564
    9G      H22  286   5.208   5.256   4.591
    9G       N3  287   5.185   5.249   4.818
    9G       C4  288   5.226   5.261   4.949
    9G      C3'  289   4.867   5.368   5.122
    9G      H3'  290   4.915   5.283   5.170
    9G      C2'  291   4.926   5.379   4.981
    9G      H2'  292   4.946   5.283   4.933
    9G      O2'  293   4.857   5.471   4.893
    9G     HO2'  294   4.761   5.470   4.891
    9G      O3'  295   4.730   5.351   5.115
   10U        P  296   4.648   5.221   5.145
   10U      OP1  297   4.505   5.240   5.100
   10U      OP2  298   4.672   5.176   5.277
   10U      O5'  299   4.714   5.116   5.039
   10U      C5'  300   4.687   5.115   4.902
   10U      H5'  301   4.707   5.213   4.858
   10U     H5''  302   4.585   5.089   4.875
   10U      C4'  303   4.771   5.018   4.825
   10U      H4'  304   4.733   5.028   4.723
   10U      O4'  305   4.915   5.052   4.834
   10U      C1'  306   4.988   4.935   4.826
   10U      H1'  307   5.052   4.933   4.738
   10U       N1  308   5.071   4.910   4.942
   10U       C6  309   5.046   4.972   5.064
   10U       H6  310   4.965   5.041   5.081
   10U       C5  311   5.130   4.946   5.166
   10U       H5  312   5.102   4.995   5.258
   10U       C4  313   5.244   4.859   5.164
   10U       O4  314   5.322   4.831   5.252
   10U       N3  315   5.251   4.788   5.049
   10U       H3  316   5.325   4.720   5.039
   10U       C2  317   5.174   4.811   4.936
   10U       O2  318   5.196   4.742   4.837
   10U      C3'  319   4.771   4.874   4.878
   10U      H3'  320   4.778   4.881   4.986
   10U      C2'  321   4.889   4.823   4.801
   10U      H2'  322   4.930   4.730   4.842
   10U      O2'  323   4.866   4.820   4.658
   10U     HO2'  324   4.774   4.792   4.652
   10U      O3'  325   4.652   4.801   4.835
   11U        P  326   4.595   4.688   4.933
   11U      OP1  327   4.499   4.603   4.863
   11U      OP2  328   4.544   4.760   5.049
   11U      O5'  329   4.720   4.613   4.982
   11U      C5'  330   4.775   4.500   4.908
   11U      H5'  331   4.825   4.540   4.819
   11U     H5''  332   4.707   4.418   4.884
   11U      C4'  333   4.891   4.435   4.988
   11U      H4'  334   4.936   4.364   4.918
   11U      O4'  335   4.999   4.521   5.024
   11U      C1'  336   5.054   4.462   5.153
   11U      H1'  337   5.159   4.434   5.144
   11U       N1  338   5.046   4.562   5.263
   11U       C6  339   4.954   4.673   5.258
   11U       H6  340   4.879   4.681   5.181
   11U       C5  341   4.954   4.759   5.360
   11U       H5  342   4.887   4.844   5.361
   11U       C4  343   5.034   4.741   5.480
   11U       O4  344   5.030   4.817   5.572
   11U       N3  345   5.110   4.625   5.477
   11U       H3  346   5.159   4.604   5.563
   11U       C2  347   5.121   4.535   5.375
   11U       O2  348   5.189   4.435   5.383
   11U      C3'  349   4.845   4.358   5.114
   11U      H3'  350   4.781   4.423   5.174
   11U      C2'  351   4.980   4.338   5.184
   11U      H2'  352   4.960   4.315   5.289
   11U      O2'  353   5.055   4.229   5.134
   11U     HO2'  354   5.010   4.181   5.065
   11U      O3'  355   4.788   4.223   5.075
   12A        P  356   4.669   4.158   5.157
   12A      OP1  357   4.665   4.015   5.126
   12A      OP2  358   4.547   4.241   5.139
   12A      O5'  359   4.713   4.169   5.310
   12A      C5'  360   4.787   4.070   5.376
   12A      H5'  361   4.869   4.039   5.311
   12A     H5''  362   4.724   3.984   5.401
   12A      C4'  363   4.846   4.113   5.515
   12A      H4'  364   4.917   4.044   5.560
   12A      O4'  365   4.911   4.243   5.500
   12A      C1'  366   4.896   4.322   5.622
   12A      H1'  367   4.980   4.367   5.675
   12A       N9  368   4.823   4.441   5.580
   12A       C8  369   4.751   4.469   5.465
   12A       H8  370   4.754   4.401   5.382
   12A       N7  371   4.710   4.596   5.458
   12A       C5  372   4.742   4.650   5.587
   12A       C6  373   4.724   4.776   5.655
   12A       N6  374   4.679   4.888   5.603
   12A      H61  375   4.682   4.971   5.660
   12A      H62  376   4.647   4.891   5.507
   12A       N1  377   4.737   4.784   5.791
   12A       C2  378   4.774   4.670   5.850
   12A       H2  379   4.772   4.672   5.958
   12A       N3  380   4.814   4.557   5.795
   12A       C4  381   4.793   4.548   5.662
   12A      C3'  382   4.742   4.134   5.624
   12A      H3'  383   4.655   4.182   5.581
   12A      C2'  384   4.813   4.230   5.718
   12A      H2'  385   4.745   4.291   5.777
   12A      O2'  386   4.901   4.170   5.809
   12A     HO2'  387   4.850   4.091   5.828
   12A      O3'  388   4.702   4.016   5.693
   13G        P  389   4.548   3.992   5.741
   13G      OP1  390   4.559   3.863   5.817
   13G      OP2  391   4.457   3.995   5.623
   13G      O5'  392   4.510   4.112   5.837
   13G      C5'  393   4.559   4.118   5.972
   13G      H5'  394   4.667   4.102   5.967
   13G     H5''  395   4.501   4.046   6.030
   13G      C4'  396   4.522   4.252   6.036
   13G      H4'  397   4.551   4.251   6.141
   13G      O4'  398   4.589   4.359   5.962
   13G      C1'  399   4.506   4.475   5.969
   13G      H1'  400   4.560   4.558   6.013
   13G       N9  401   4.471   4.516   5.834
   13G       C8  402   4.458   4.427   5.727
   13G       H8  403   4.466   4.321   5.743
   13G       N7  404   4.428   4.490   5.615
   13G       C5  405   4.421   4.624   5.652
   13G       C6  406   4.378   4.732   5.569
   13G       O6  407   4.325   4.732   5.462
   13G       N1  408   4.366   4.846   5.645
   13G       H1  409   4.338   4.931   5.597
   13G       C2  410   4.395   4.856   5.777
   13G       N2  411   4.380   4.977   5.813
   13G      H21  412   4.356   5.050   5.748
   13G      H22  413   4.401   5.010   5.906
   13G       N3  414   4.429   4.758   5.853
   13G       C4  415   4.441   4.639   5.785
   13G      C3'  416   4.373   4.280   6.022
   13G      H3'  417   4.339   4.262   5.921
   13G      C2'  418   4.379   4.426   6.039
   13G      H2'  419   4.292   4.468   5.988
   13G      O2'  420   4.359   4.479   6.173
   13G     HO2'  421   4.318   4.411   6.227
   13G      O3'  422   4.292   4.213   6.115
   14G        P  423   4.163   4.142   6.083
   14G      OP1  424   4.119   4.069   6.203
   14G      OP2  425   4.176   4.063   5.953
   14G      O5'  426   4.069   4.270   6.063
   14G      C5'  427   3.986   4.324   6.170
   14G      H5'  428   4.047   4.341   6.259
   14G     H5''  429   3.910   4.250   6.196
   14G      C4'  430   3.893   4.449   6.138
   14G      H4'  431   3.841   4.469   6.231
   14G      O4'  432   3.981   4.551   6.092
   14G      C1'  433   3.904   4.629   6.011
   14G      H1'  434   3.888   4.726   6.058
   14G       N9  435   3.988   4.660   5.891
   14G       C8  436   4.072   4.584   5.813
   14G       H8  437   4.100   4.482   5.837
   14G       N7  438   4.119   4.648   5.705
   14G       C5  439   4.043   4.766   5.699
   14G       C6  440   4.038   4.882   5.610
   14G       O6  441   4.110   4.908   5.514
   14G       N1  442   3.934   4.973   5.640
   14G       H1  443   3.922   5.058   5.587
   14G       C2  444   3.852   4.954   5.747
   14G       N2  445   3.768   5.042   5.761
   14G      H21  446   3.773   5.130   5.712
   14G      H22  447   3.696   5.027   5.830
   14G       N3  448   3.862   4.861   5.836
   14G       C4  449   3.952   4.763   5.803
   14G      C3'  450   3.802   4.422   6.018
   14G      H3'  451   3.862   4.388   5.934
   14G      C2'  452   3.772   4.564   5.975
   14G      H2'  453   3.752   4.569   5.868
   14G      O2'  454   3.665   4.611   6.046
   14G     HO2'  455   3.586   4.580   6.001
   14G      O3'  456   3.694   4.326   6.031
   15G        P  457   3.634   4.250   5.900
   15G      OP1  458   3.532   4.150   5.943
   15G      OP2  459   3.738   4.215   5.807
   15G      O5'  460   3.553   4.362   5.836
   15G      C5'  461   3.428   4.412   5.879
   15G      H5'  462   3.426   4.433   5.986
   15G     H5''  463   3.349   4.340   5.857
   15G      C4'  464   3.392   4.545   5.803
   15G      H4'  465   3.304   4.594   5.845
   15G      O4'  466   3.513   4.625   5.802
   15G      C1'  467   3.514   4.690   5.677
   15G      H1'  468   3.515   4.798   5.692
   15G       N9  469   3.640   4.657   5.598
   15G       C8  470   3.727   4.550   5.596
   15G       H8  471   3.712   4.466   5.662
   15G       N7  472   3.828   4.558   5.516
   15G       C5  473   3.817   4.689   5.462
   15G       C6  474   3.891   4.763   5.365
   15G       O6  475   3.991   4.727   5.293
   15G       N1  476   3.837   4.887   5.335
   15G       H1  477   3.858   4.924   5.243
   15G       C2  478   3.715   4.933   5.381
   15G       N2  479   3.664   5.041   5.320
   15G      H21  480   3.717   5.085   5.246
   15G      H22  481   3.574   5.072   5.351
   15G       N3  482   3.639   4.873   5.478
   15G       C4  483   3.696   4.749   5.510
   15G      C3'  484   3.356   4.509   5.662
   15G      H3'  485   3.428   4.436   5.626
   15G      C2'  486   3.397   4.638   5.592
   15G      H2'  487   3.419   4.617   5.488
   15G      O2'  488   3.295   4.740   5.596
   15G     HO2'  489   3.233   4.724   5.668
   15G      O3'  490   3.219   4.481   5.660
   16U        P  491   3.141   4.418   5.546
   16U      OP1  492   2.998   4.433   5.586
   16U      OP2  493   3.191   4.284   5.517
   16U      O5'  494   3.161   4.512   5.416
   16U      C5'  495   3.093   4.634   5.395
   16U      H5'  496   3.074   4.679   5.492
   16U     H5''  497   2.992   4.602   5.372
   16U      C4'  498   3.146   4.714   5.276
   16U      H4'  499   3.071   4.788   5.247
   16U      O4'  500   3.274   4.763   5.310
   16U      C1'  501   3.359   4.759   5.198
   16U      H1'  502   3.408   4.856   5.195
   16U       N1  503   3.482   4.658   5.200
   16U       C6  504   3.468   4.538   5.259
   16U       H6  505   3.373   4.504   5.297
   16U       C5  506   3.565   4.443   5.262
   16U       H5  507   3.547   4.349   5.314
   16U       C4  508   3.693   4.472   5.202
   16U       O4  509   3.787   4.402   5.183
   16U       N3  510   3.709   4.598   5.150
   16U       H3  511   3.789   4.608   5.090
   16U       C2  512   3.608   4.693   5.145
   16U       O2  513   3.625   4.796   5.082
   16U      C3'  514   3.165   4.631   5.149
   16U      H3'  515   3.197   4.530   5.173
   16U      C2'  516   3.269   4.723   5.075
   16U      H2'  517   3.317   4.663   4.997
   16U      O2'  518   3.201   4.834   5.017
   16U     HO2'  519   3.110   4.806   5.010
   16U      O3'  520   3.046   4.616   5.077
   17U        P  521   3.005   4.473   5.022
   17U      OP1  522   2.891   4.485   4.937
   17U      OP2  523   3.002   4.380   5.139
   17U      O5'  524   3.132   4.436   4.928
   17U      C5'  525   3.143   4.490   4.798
   17U      H5'  526   3.132   4.598   4.805
   17U     H5''  527   3.066   4.458   4.727
   17U      C4'  528   3.280   4.457   4.739
   17U      H4'  529   3.296   4.524   4.654
   17U      O4'  530   3.387   4.465   4.838
   17U      C1'  531   3.475   4.358   4.804
   17U      H1'  532   3.571   4.395   4.768
   17U       N1  533   3.503   4.272   4.919
   17U       C6  534   3.406   4.241   5.013
   17U       H6  535   3.302   4.266   4.993
   17U       C5  536   3.437   4.154   5.111
   17U       H5  537   3.363   4.109   5.176
   17U       C4  538   3.571   4.107   5.126
   17U       O4  539   3.612   4.031   5.213
   17U       N3  540   3.664   4.148   5.039
   17U       H3  541   3.760   4.126   5.057
   17U       C2  542   3.630   4.221   4.927
   17U       O2  543   3.716   4.238   4.837
   17U      C3'  544   3.281   4.312   4.683
   17U      H3'  545   3.240   4.257   4.767
   17U      C2'  546   3.422   4.269   4.686
   17U      H2'  547   3.442   4.163   4.700
   17U      O2'  548   3.500   4.312   4.576
   17U     HO2'  549   3.463   4.263   4.502
   17U      O3'  550   3.215   4.286   4.564
   18A        P  551   3.189   4.140   4.506
   18A      OP1  552   3.088   4.149   4.401
   18A      OP2  553   3.166   4.055   4.627
   18A      O5'  554   3.334   4.106   4.437
   18A      C5'  555   3.372   4.155   4.312
   18A      H5'  556   3.352   4.262   4.305
   18A     H5''  557   3.306   4.117   4.234
   18A      C4'  558   3.520   4.126   4.282
   18A      H4'  559   3.535   4.186   4.192
   18A      O4'  560   3.615   4.174   4.374
   18A      C1'  561   3.722   4.083   4.378
   18A      H1'  562   3.821   4.129   4.374
   18A       N9  563   3.719   4.015   4.505
   18A       C8  564   3.612   3.959   4.564
   18A       H8  565   3.515   3.955   4.517
   18A       N7  566   3.631   3.925   4.688
   18A       C5  567   3.768   3.947   4.706
   18A       C6  568   3.859   3.944   4.816
   18A       N6  569   3.832   3.892   4.930
   18A      H61  570   3.892   3.927   5.003
   18A      H62  571   3.741   3.856   4.956
   18A       N1  572   3.987   3.984   4.794
   18A       C2  573   4.028   4.037   4.679
   18A       H2  574   4.129   4.073   4.672
   18A       N3  575   3.951   4.053   4.574
   18A       C4  576   3.819   4.007   4.593
   18A      C3'  577   3.556   3.982   4.232
   18A      H3'  578   3.502   3.909   4.293
   18A      C2'  579   3.705   3.984   4.260
   18A      H2'  580   3.747   3.889   4.293
   18A      O2'  581   3.773   4.050   4.151
   18A     HO2'  582   3.739   4.013   4.069
   18A      O3'  583   3.536   3.951   4.092
   19G        P  584   3.491   3.813   4.037
   19G      OP1  585   3.458   3.827   3.891
   19G      OP2  586   3.407   3.750   4.133
   19G      O5'  587   3.634   3.737   4.046
   19G      C5'  588   3.729   3.759   3.945
   19G      H5'  589   3.735   3.868   3.941
   19G     H5''  590   3.691   3.717   3.852
   19G      C4'  591   3.866   3.711   3.989
   19G      H4'  592   3.948   3.739   3.923
   19G      O4'  593   3.883   3.766   4.118
   19G      C1'  594   3.968   3.688   4.195
   19G      H1'  595   4.072   3.722   4.199
   19G       N9  596   3.913   3.667   4.330
   19G       C8  597   3.786   3.619   4.366
   19G       H8  598   3.714   3.593   4.290
   19G       N7  599   3.772   3.588   4.486
   19G       C5  600   3.892   3.631   4.544
   19G       C6  601   3.935   3.620   4.681
   19G       O6  602   3.877   3.564   4.776
   19G       N1  603   4.065   3.667   4.695
   19G       H1  604   4.099   3.649   4.788
   19G       C2  605   4.148   3.695   4.592
   19G       N2  606   4.275   3.713   4.603
   19G      H21  607   4.324   3.701   4.691
   19G      H22  608   4.317   3.769   4.531
   19G       N3  609   4.112   3.684   4.463
   19G       C4  610   3.981   3.658   4.450
   19G      C3'  611   3.875   3.557   4.011
   19G      H3'  612   3.778   3.528   4.052
   19G      C2'  613   3.979   3.544   4.126
   19G      H2'  614   3.960   3.472   4.205
   19G      O2'  615   4.116   3.540   4.081
   19G     HO2'  616   4.131   3.451   4.049
   19G      O3'  617   3.894   3.481   3.887
   20G        P  618   3.900   3.319   3.899
   20G      OP1  619   3.867   3.270   3.763
   20G      OP2  620   3.812   3.267   4.006
   20G      O5'  621   4.049   3.280   3.929
   20G      C5'  622   4.151   3.319   3.837
   20G      H5'  623   4.152   3.427   3.821
   20G     H5''  624   4.125   3.263   3.747
   20G      C4'  625   4.293   3.275   3.894
   20G      H4'  626   4.372   3.301   3.824
   20G      O4'  627   4.319   3.321   4.027
   20G      C1'  628   4.358   3.210   4.110
   20G      H1'  629   4.444   3.236   4.170
   20G       N9  630   4.252   3.181   4.211
   20G       C8  631   4.132   3.113   4.202
   20G       H8  632   4.106   3.060   4.112
   20G       N7  633   4.056   3.121   4.298
   20G       C5  634   4.129   3.204   4.388
   20G       C6  635   4.097   3.252   4.524
   20G       O6  636   3.989   3.251   4.581
   20G       N1  637   4.207   3.310   4.586
   20G       H1  638   4.194   3.351   4.677
   20G       C2  639   4.321   3.342   4.514
   20G       N2  640   4.415   3.405   4.573
   20G      H21  641   4.423   3.377   4.670
   20G      H22  642   4.499   3.416   4.518
   20G       N3  643   4.347   3.314   4.390
   20G       C4  644   4.249   3.236   4.335
   20G      C3'  645   4.293   3.124   3.905
   20G      H3'  646   4.191   3.092   3.927
   20G      C2'  647   4.386   3.092   4.020
   20G      H2'  648   4.360   2.997   4.067
   20G      O2'  649   4.519   3.086   3.975
   20G     HO2'  650   4.536   3.007   3.925
   20G      O3'  651   4.328   3.060   3.783
   21G3       P  652   4.311   2.902   3.759
   21G3     OP1  653   4.286   2.876   3.618
   21G3     OP2  654   4.211   2.856   3.860
   21G3     O5'  655   4.443   2.843   3.798
   21G3     C5'  656   4.562   2.849   3.717
   21G3     H5'  657   4.578   2.952   3.684
   21G3    H5''  658   4.560   2.795   3.622
   21G3     C4'  659   4.689   2.803   3.794
   21G3     H4'  660   4.783   2.831   3.747
   21G3     O4'  661   4.697   2.858   3.925
   21G3     C1'  662   4.696   2.753   4.019
   21G3     H1'  663   4.799   2.740   4.053
   21G3      N9  664   4.606   2.787   4.128
   21G3      C8  665   4.488   2.733   4.179
   21G3      H8  666   4.452   2.640   4.137
   21G3      N7  667   4.436   2.804   4.273
   21G3      C5  668   4.519   2.914   4.295
   21G3      C6  669   4.519   3.012   4.401
   21G3      O6  670   4.441   3.035   4.498
   21G3      N1  671   4.623   3.104   4.383
   21G3      H1  672   4.632   3.168   4.460
   21G3      C2  673   4.719   3.091   4.282
   21G3      N2  674   4.820   3.165   4.302
   21G3     H21  675   4.821   3.238   4.372
   21G3     H22  676   4.902   3.135   4.251
   21G3      N3  677   4.737   2.983   4.207
   21G3      C4  678   4.628   2.900   4.211
   21G3     C3'  679   4.699   2.650   3.809
   21G3     H3'  680   4.642   2.603   3.729
   21G3     C2'  681   4.639   2.630   3.952
   21G3     H2'  682   4.530   2.637   3.946
   21G3     O2'  683   4.680   2.507   4.012
   21G3    HO2'  684   4.604   2.448   4.012
   21G3     O3'  685   4.836   2.616   3.798
   21G3    HO3'  686   4.847   2.522   3.813
   22Cl-    Cl-  687   0.877   4.649   2.547
   23Cl-    Cl-  688   8.721   4.997   3.033
   24Cl-    Cl-  689   5.376   6.026   0.255
   25Cl-    Cl-  690   3.662   8.844   8.036
   26Cl-    Cl-  691   3.662   3.744   6.733
   27Cl-    Cl-  692   8.778   5.388   8.227
   28Cl-    Cl-  693   4.595   9.663   1.480
   29Cl-    Cl-  694   9.123   2.665   2.277
   30Cl-    Cl-  695   1.177   7.067   9.300
   31Cl-    Cl-  696   9.565   5.776   4.721
   32Cl-    Cl-  697   8.321   6.336   6.247
   33Cl-    Cl-  698   0.368   4.483   6.582
   34Cl-    Cl-  699   1.093   1.971   2.314
   35Cl-    Cl-  700   8.473   6.984   7.549
   36Cl-    Cl-  701   8.180   2.065   9.192
   37Cl-    Cl-  702   5.817   1.199   2.915
   38Cl-    Cl-  703   8.165   1.760   6.878
   39Cl-    Cl-  704   7.484   7.491   7.151
   40Cl-    Cl-  705   2.351   1.796   7.392
   41Cl-    Cl-  706   4.899   0.206   6.090
   42Cl-    Cl-  707   1.326   7.508   5.090
   43Cl-    Cl-  708   0.734   6.583   5.926
   44Cl-    Cl-  709   8.961   5.283   1.278
   45Cl-    Cl-  710   7.111   1.795   7.593
   46Cl-    Cl-  711   7.199   3.778   1.761
   47Cl-    Cl-  712   1.748   6.403   9.638
   48Cl-    Cl-  713   1.005   1.807   4.089
   49Cl-    Cl-  714   6.070   3.911   0.356
   50Cl-    Cl-  715   6.388   7.207   9.502
   51Cl-    Cl-  716   9.641   0.426   2.317
   52Cl-    Cl-  717   6.772   3.366   5.945
   53Cl-    Cl-  718   0.136   8.801   6.554
   54Cl-    Cl-  719   8.040   6.315   4.834
   55Cl-    Cl-  720   2.862   6.009   2.946
   56Cl-    Cl-  721   4.768   7.355   8.748
   57Cl-    Cl-  722   1.333   5.374   3.717
   58Cl-    Cl-  723   4.486   8.290   2.834
   59Cl-    Cl-  724   2.972   3.666   2.211
   60Cl-    Cl-  725   8.579   4.728   9.734
   61Cl-    Cl-  726   3.137   4.474   0.729
   62Cl-    Cl-  727   0.713   6.185   4.357
   63Cl-    Cl-  728   9.273   4.226   6.031
   64Cl-    Cl-  729   8.733   3.434   5.993
   65Cl-    Cl-  730   1.086   4.285   3.236
   66Cl-    Cl-  731   0.309   8.293   6.599
   67Cl-    Cl-  732   5.248   4.033   8.876
   68Cl-    Cl-  733   5.803   1.794   0.376
   69Cl-    Cl-  734   8.538   0.089   9.312
   70Cl-    Cl-  735   7.592   7.995   3.109
   71Cl-    Cl-  736   7.665   8.376   9.228
   72Cl-    Cl-  737   9.844   0.405   8.360
   73Cl-    Cl-  738   6.669   9.193   4.271
   74Cl-    Cl-  739   3.693   1.040   4.036
   75Cl-    Cl-  740   1.356   4.005   2.828
   76Cl-    Cl-  741   7.704   6.580   6.841
   77Cl-    Cl-  742   2.474   7.714   4.032
   78Cl-    Cl-  743   6.454   8.099   2.318
   79Cl-    Cl-  744   4.494   9.112   6.659
   80Cl-    Cl-  745   0.117   4.435   0.525
   81Cl-    Cl-  746   0.071   6.298   6.754
   82Cl-    Cl-  747   4.329   6.311   1.819
   83Cl-    Cl-  748   0.394   7.138   4.487
   84Cl-    Cl-  749   5.311   0.831   5.763
   85Cl-    Cl-  750   3.084   8.915   1.276
   86Cl-    Cl-  751   4.188   7.868   6.247
   87Cl-    Cl-  752   1.213   1.187   5.350
   88Cl-    Cl-  753   4.495   7.934   0.161
   89Cl-    Cl-  754   5.847   1.370   8.038
   90Cl-    Cl-  755   7.753   0.723   5.908
   91Cl-    Cl-  756   3.298   4.687   6.805
   92Cl-    Cl-  757   8.723   1.336   2.511
   93Cl-    Cl-  758   1.630   5.291   8.688
   94Cl-    Cl-  759   4.133   9.710   8.676
   95Cl-    Cl-  760   7.676   4.212   7.003
   96Cl-    Cl-  761   8.874   6.402   2.819
   97Cl-    Cl-  762   0.288   5.642   1.910
   98Cl-    Cl-  763   4.511   0.642   9.866
   99Cl-    Cl-  764   5.213   3.756   1.800
  100Cl-    Cl-  765   7.067   7.937   5.758
  101Cl-    Cl-  766   1.636   3.539   5.908
  102Cl-    Cl-  767   7.210   5.296   4.103
  103Cl-    Cl-  768   1.334   1.248   6.058
  104Cl-    Cl-  769   2.465   9.054   9.809
  105Cl-    Cl-  770   4.302   4.502   2.165
  106Cl-    Cl-  771   0.083   6.877   2.516
  107K+      K+  772   8.209   8.870   3.252
  108K+      K+  773   4.440   5.583   6.022
  109K+      K+  774   5.987   5.564   4.916
  110K+      K+  775   2.459   4.671   5.263
  111K+      K+  776   6.498   6.503   4.687
  112K+      K+  777   6.988   5.854   4.679
  113K+      K+  778   7.994   5.369   2.627
  114K+      K+  779   0.395   3.364   4.678
  115K+      K+  780   2.055   8.230   4.847
  116K+      K+  781   4.203   8.709   2.703
  117K+      K+  782   7.423   4.041   7.032
  118K+      K+  783   5.536   4.290   0.992
  119K+      K+  784   3.462   4.008   6.514
  120K+      K+  785   1.327   1.319   2.182
  121K+      K+  786   1.953   7.107   4.567
  122K+      K+  787   5.255   1.800   7.856
  123K+      K+  788   3.150   3.987   3.565
  124K+      K+  789   0.952   5.447   6.342
  125K+      K+  790   7.807   1.747   6.531
  126K+      K+  791   0.362   0.036   0.375
  127K+      K+  792   7.050   8.451   0.767
  128K+      K+  793   4.943   5.057   5.668
  129K+      K+  794   4.286   5.557   1.730
  130K+      K+  795   7.891   6.768   7.699
  131K+      K+  796   5.637   2.086   1.453
  132K+      K+  797   0.475   3.948   8.621
  133K+      K+  798   2.167   9.704   5.861
  134K+      K+  799   6.310   6.286   5.030
  135K+      K+  800   9.683   3.999   7.081
  136K+      K+  801   1.329   5.262   1.230
  137K+      K+  802   4.052   9.840   0.347
  138K+      K+  803   0.406   7.537   7.374
  139K+      K+  804   0.048   8.480   6.215
  140K+      K+  805   6.571   7.441   5.918
  141K+      K+  806   8.984   5.866   3.924
  142K+      K+  807   9.215   2.103   7.173
  143K+      K+  808   7.514   2.744   2.523
  144K+      K+  809   3.448   5.926   0.073
  145K+      K+  810   0.743   4.427   4.162
  146K+      K+  811   4.399   7.806   8.486
  147K+      K+  812   5.601   8.180   9.356
  148K+      K+  813   6.497   4.110   5.743
  149K+      K+  814   3.274   3.574   2.275
  150K+      K+  815   9.701   0.783   1.562
  151K+      K+  816   8.487   6.717   6.519
  152K+      K+  817   4.234   4.908   5.268
  153K+      K+  818   0.576   8.781   4.699
  154K+      K+  819   0.626   6.061   4.084
  155K+      K+  820   2.003   8.195   4.160
  156K+      K+  821   7.017   5.052   4.592
  157K+      K+  822   8.426   6.628   5.851
  158K+      K+  823   1.821   3.693   6.206
  159K+      K+  824   3.809   4.291   7.342
  160K+      K+  825   8.908   8.400   9.102
  161K+      K+  826   0.801   1.269   4.788
  162K+      K+  827   0.712   8.336   7.192
  163K+      K+  828   8.604   0.476   3.324
  164K+      K+  829   3.576   8.352   6.461
  165K+      K+  830   5.660   0.663   6.064
  166K+      K+  831   3.288   8.696   5.448
  167K+      K+  832   1.110   7.244   6.611
  168K+      K+  833   0.098   3.517   2.126
  169K+      K+  834   4.299   4.244   5.198
  170K+      K+  835   8.650   8.654   9.814
  171K+      K+  836   0.458   2.316   9.767
  172K+      K+  837   5.987   5.062   4.392
  173K+      K+  838   0.853   3.108   3.545
  174K+      K+  839   0.278   7.411   3.746
  175K+      K+  840   9.748   0.998   7.269
  176K+      K+  841   4.734   2.226   6.317
  177K+      K+  842   1.676   3.244   5.161
  178K+      K+  843   7.050   3.110   9.752
  179K+      K+  844   8.022   4.617   8.852
  180K+      K+  845   5.538   3.041   4.140
  181K+      K+  846   5.388   7.467   7.000
  182K+      K+  847   5.459   2.677   2.531
  183K+      K+  848   1.171   6.655   9.795
  184K+      K+  849   6.842   3.838   7.558
  185K+      K+  850   5.454   5.052   5.329
  186K+      K+  851   0.439   3.610   0.698
  187K+      K+  852   3.358   2.651   7.939
  188K+      K+  853   6.450   8.495   2.574
  189K+      K+  854   1.053   8.435   6.407
  190K+      K+  855   5.562   6.478   8.342
  191K+      K+  856   3.528   3.528   4.611
  192K+      K+  857   9.447   6.026   2.231
  193K+      K+  858   1.833   5.358   1.469
  194K+      K+  859   4.860   5.979   2.226
  195K+      K+  860   0.127   4.691   1.054
  196K+      K+  861   8.700   5.441   3.303
  197K+      K+  862   4.112   4.501   5.471
  198K+      K+  863   7.379   4.235   0.577
  199K+      K+  864   3.411   1.093   3.774
  200K+      K+  865   1.607   9.530   6.140
  201K+      K+  866   4.062   5.275   2.364
  202K+      K+  867   7.109   7.474   7.939
  203K+      K+  868   2.542   2.679   6.648
  204K+      K+  869   5.457   9.103   3.964
  205K+      K+  870   3.528   6.542   1.239
  206K+      K+  871   5.159   0.600   8.901
  207K+      K+  872   0.963   5.516   8.764
  208K+      K+  873   9.353   0.052   6.203
  209K+      K+  874   8.905   4.740   0.647
  210K+      K+  875   3.541   1.946   2.937
  211K+      K+  876   9.208   3.400   4.663
  212WAT      O  877   0.678   3.091   4.923
  212WAT     H1  878   0.632   3.003   4.907
  212WAT     H2  879   0.714   3.126   4.836
  213WAT      O  880   1.813   3.093   4.403
  213WAT     H1  881   1.743   3.028   4.433
  213WAT     H2  882   1.809   3.102   4.303
  214WAT      O  883   2.322   5.445   8.633
  214WAT     H1  884   2.343   5.493   8.718
  214WAT     H2  885   2.404   5.395   8.602
  215WAT      O  886   1.469   5.148   7.454
  215WAT     H1  887   1.454   5.052   7.433
  215WAT     H2  888   1.383   5.198   7.448
  216WAT      O  889   6.425   2.755   4.380
  216WAT     H1  890   6.516   2.713   4.378
  216WAT     H2  891   6.356   2.684   4.365
  217WAT      O  892   7.497   7.838   3.348
  217WAT     H1  893   7.532   7.895   3.273
  217WAT     H2  894   7.486   7.895   3.430
  218WAT      O  895   8.133   8.413   8.674
  218WAT     H1  896   8.064   8.421   8.746
  218WAT     H2  897   8.216   8.462   8.701
  219WAT      O  898   3.819   6.356   5.305
  219WAT     H1  899   3.898   6.352   5.367
  219WAT     H2  900   3.836   6.296   5.226
  220WAT      O  901   1.370   2.900   5.527
  220WAT     H1  902   1.377   2.839   5.607
  220WAT     H2  903   1.447   2.884   5.466
  221WAT      O  904   6.437   8.283   0.482
  221WAT     H1  905   6.483   8.220   0.420
  221WAT     H2  906   6.344   8.250   0.500
  222WAT      O  907   5.906   9.439   4.765
  222WAT     H1  908   5.828   9.501   4.753
  222WAT     H2  909   5.897   9.392   4.853
  223WAT      O  910   9.079   1.568   1.016
  223WAT     H1  911   9.018   1.490   1.031
  223WAT     H2  912   9.169   1.548   1.055
  224WAT      O  913   7.043   8.044   8.880
  224WAT     H1  914   6.959   7.990   8.873
  224WAT     H2  915   7.048   8.108   8.803
  225WAT      O  916   9.682   0.904   2.050
  225WAT     H1  917   9.661   0.816   2.091
  225WAT     H2  918   9.625   0.975   2.091
  226WAT      O  919   6.647   2.114   7.425
  226WAT     H1  920   6.611   2.206   7.413
  226WAT     H2  921   6.729   2.118   7.482
  227WAT      O  922   6.813   8.600   3.882
  227WAT     H1  923   6.913   8.607   3.882
  227WAT     H2  924   6.780   8.592   3.976
  228WAT      O  925   2.823   7.195   6.507
  228WAT     H1  926   2.828   7.131   6.583
  228WAT     H2  927   2.813   7.288   6.542
  229WAT      O  928   0.757   6.171   3.352
  229WAT     H1  929   0.717   6.082   3.374
  229WAT     H2  930   0.852   6.159   3.323
  230WAT      O  931   8.867   3.289   9.194
  230WAT     H1  932   8.807   3.308   9.117
  230WAT     H2  933   8.920   3.205   9.176
  231WAT      O  934   4.181   6.118   9.755
  231WAT     H1  935   4.112   6.166   9.810
  231WAT     H2  936   4.169   6.142   9.659
  232WAT      O  937   6.854   7.571   5.014
  232WAT     H1  938   6.758   7.600   5.006
  232WAT     H2  939   6.905   7.638   5.067
  233WAT      O  940   7.983   7.109   7.344
  233WAT     H1  941   8.080   7.106   7.371
  233WAT     H2  942   7.927   7.073   7.418
  234WAT      O  943   6.430   9.638   9.725
  234WAT     H1  944   6.331   9.644   9.740
  234WAT     H2  945   6.450   9.558   9.667
  235WAT      O  946   6.847   6.180   8.027
  235WAT     H1  947   6.888   6.218   7.944
  235WAT     H2  948   6.783   6.246   8.066
  236WAT      O  949   3.348   8.804   3.092
  236WAT     H1  950   3.419   8.763   3.149
  236WAT     H2  951   3.258   8.778   3.127
  237WAT      O  952   7.455   0.411   6.761
  237WAT     H1  953   7.503   0.431   6.846
  237WAT     H2  954   7.400   0.490   6.734
  238WAT      O  955   1.869   8.527   7.321
  238WAT     H1  956   1.955   8.523   7.372
  238WAT     H2  957   1.804   8.585   7.370
  239WAT      O  958   0.618   7.649   9.285
  239WAT     H1  959   0.556   7.623   9.359
  239WAT     H2  960   0.712   7.634   9.314
  240WAT      O  961   0.637   4.015   2.901
  240WAT     H1  962   0.677   4.091   2.848
  240WAT     H2  963   0.702   3.987   2.972
  241WAT      O  964   3.152   9.025   9.509
  241WAT     H1  965   3.171   8.945   9.451
  241WAT     H2  966   3.230   9.087   9.505
  242WAT      O  967   6.084   4.498   8.455
  242WAT     H1  968   6.113   4.411   8.495
  242WAT     H2  969   6.153   4.568   8.473
  243WAT      O  970   7.451   1.678   2.720
  243WAT     H1  971   7.416   1.690   2.627
  243WAT     H2  972   7.378   1.695   2.786
  244WAT      O  973   1.311   3.977   0.682
  244WAT     H1  974   1.311   4.021   0.772
  244WAT     H2  975   1.223   3.931   0.668
  245WAT      O  976   2.735   7.686   6.535
  245WAT     H1  977   2.739   7.768   6.591
  245WAT     H2  978   2.659   7.693   6.470
  246WAT      O  979   3.606   5.094   0.724
  246WAT     H1  980   3.535   5.069   0.789
  246WAT     H2  981   3.565   5.122   0.637
  247WAT      O  982   0.492   6.339   4.190
  247WAT     H1  983   0.539   6.300   4.269
  247WAT     H2  984   0.537   6.424   4.163
  248WAT      O  985   4.422   2.395   5.140
  248WAT     H1  986   4.362   2.459   5.091
  248WAT     H2  987   4.379   2.370   5.227
  249WAT      O  988   1.423   0.012   9.013
  249WAT     H1  989   1.421  -0.061   8.945
  249WAT     H2  990   1.473  -0.019   9.094
  250WAT      O  991   6.376   0.626   1.995
  250WAT     H1  992   6.323   0.673   1.925
  250WAT     H2  993   6.407   0.538   1.961
  251WAT      O  994   8.871   0.188   0.103
  251WAT     H1  995   8.850   0.153   0.194
  251WAT     H2  996   8.970   0.193   0.091
  252WAT      O  997   8.148   0.041   7.428
  252WAT     H1  998   8.149  -0.054   7.461
  252WAT     H2  999   8.132   0.041   7.329
  253WAT      O 1000   8.272   9.788   1.383
  253WAT     H1 1001   8.284   9.838   1.469
  253WAT     H2 1002   8.257   9.853   1.309
  254WAT      O 1003   1.119   0.670   9.582
  254WAT     H1 1004   1.201   0.719   9.551
  254WAT     H2 1005   1.147   0.588   9.631
  255WAT      O 1006   2.062   6.533   0.291
  255WAT     H1 1007   2.151   6.517   0.335
  255WAT     H2 1008   2.023   6.618   0.326
  256WAT      O 1009   4.034   7.917   0.701
  256WAT     H1 1010   4.126   7.925   0.739
  256WAT     H2 1011   4.040   7.911   0.601
  257WAT      O 1012   9.313   1.779   3.540
  257WAT     H1 1013   9.368   1.721   3.600
  257WAT     H2 1014   9.314   1.873   3.575
  258WAT      O 1015   8.394   5.695   0.111
  258WAT     H1 1016   8.367   5.606   0.074
  258WAT     H2 1017   8.313   5.742   0.147
  259WAT      O 1018   2.560   6.448   9.613
  259WAT     H1 1019   2.605   6.360   9.609
  259WAT     H2 1020   2.619   6.518   9.573
  260WAT      O 1021   6.158   0.480   8.215
  260WAT     H1 1022   6.203   0.518   8.134
  260WAT     H2 1023   6.208   0.399   8.245
  261WAT      O 1024   1.766   7.651   1.972
  261WAT     H1 1025   1.766   7.696   1.882
  261WAT     H2 1026   1.829   7.573   1.970
  262WAT      O 1027   6.935   2.991   1.327
  262WAT     H1 1028   7.008   2.948   1.275
  262WAT     H2 1029   6.973   3.038   1.406
  263WAT      O 1030   3.557   5.104   8.188
  263WAT     H1 1031   3.542   5.198   8.158
  263WAT     H2 1032   3.617   5.057   8.122
  264WAT      O 1033   2.505   1.041   6.775
  264WAT     H1 1034   2.457   0.961   6.812
  264WAT     H2 1035   2.442   1.093   6.717
  265WAT      O 1036   4.779   8.266   9.495
  265WAT     H1 1037   4.740   8.248   9.585
  265WAT     H2 1038   4.742   8.352   9.459
  266WAT      O 1039   3.667   3.304   4.651
  266WAT     H1 1040   3.763   3.328   4.638
  266WAT     H2 1041   3.649   3.285   4.747
  267WAT      O 1042   7.733   1.844   8.363
  267WAT     H1 1043   7.656   1.856   8.301
  267WAT     H2 1044   7.704   1.862   8.457
  268WAT      O 1045   9.275   1.126   4.675
  268WAT     H1 1046   9.262   1.071   4.758
  268WAT     H2 1047   9.350   1.191   4.690
  269WAT      O 1048   3.995   2.613   8.516
  269WAT     H1 1049   4.090   2.605   8.547
  269WAT     H2 1050   3.938   2.552   8.570
  270WAT      O 1051   1.346   6.525   5.976
  270WAT     H1 1052   1.262   6.560   5.935
  270WAT     H2 1053   1.367   6.435   5.939
  271WAT      O 1054   0.322   5.257   5.003
  271WAT     H1 1055   0.348   5.165   4.976
  271WAT     H2 1056   0.358   5.277   5.094
  272WAT      O 1057   0.815   2.208   5.416
  272WAT     H1 1058   0.852   2.129   5.464
  272WAT     H2 1059   0.885   2.279   5.410
  273WAT      O 1060   8.905   6.157   0.345
  273WAT     H1 1061   8.918   6.067   0.385
  273WAT     H2 1062   8.815   6.192   0.367
  274WAT      O 1063   9.422   8.700   4.921
  274WAT     H1 1064   9.340   8.649   4.898
  274WAT     H2 1065   9.397   8.788   4.962
  275WAT      O 1066   2.119   4.214   2.426
  275WAT     H1 1067   2.094   4.123   2.392
  275WAT     H2 1068   2.218   4.227   2.417
  276WAT      O 1069   9.503   4.686   9.517
  276WAT     H1 1070   9.445   4.677   9.598
  276WAT     H2 1071   9.484   4.774   9.473
  277WAT      O 1072   0.473   5.232   7.435
  277WAT     H1 1073   0.556   5.258   7.387
  277WAT     H2 1074   0.432   5.313   7.477
  278WAT      O 1075   6.169   9.593   4.803
  278WAT     H1 1076   6.088   9.535   4.808
  278WAT     H2 1077   6.251   9.539   4.821
  279WAT      O 1078   5.566   1.993   1.955
  279WAT     H1 1079   5.586   1.909   1.905
  279WAT     H2 1080   5.540   2.065   1.891
  280WAT      O 1081   0.589   6.505   3.046
  280WAT     H1 1082   0.684   6.494   3.075
  280WAT     H2 1083   0.580   6.586   2.988
  281WAT      O 1084   9.214   2.695   0.225
  281WAT     H1 1085   9.222   2.793   0.207
  281WAT     H2 1086   9.285   2.646   0.175
  282WAT      O 1087   3.830   3.016   4.663
  282WAT     H1 1088   3.739   3.057   4.660
  282WAT     H2 1089   3.898   3.086   4.640
  283WAT      O 1090   5.105   5.856   4.381
  283WAT     H1 1091   5.076   5.788   4.314
  283WAT     H2 1092   5.101   5.947   4.340
  284WAT      O 1093   7.440   5.220   5.631
  284WAT     H1 1094   7.489   5.251   5.712
  284WAT     H2 1095   7.402   5.129   5.647
  285WAT      O 1096   9.520   0.835   3.625
  285WAT     H1 1097   9.536   0.933   3.638
  285WAT     H2 1098   9.423   0.820   3.604
  286WAT      O 1099   4.509   1.433   0.209
  286WAT     H1 1100   4.502   1.405   0.305
  286WAT     H2 1101   4.512   1.533   0.204
  287WAT      O 1102   5.378   9.313   9.583
  287WAT     H1 1103   5.388   9.390   9.647
  287WAT     H2 1104   5.358   9.230   9.634
  288WAT      O 1105   2.857   3.428   9.535
  288WAT     H1 1106   2.801   3.501   9.499
  288WAT     H2 1107   2.940   3.466   9.577
  289WAT      O 1108   9.170   8.152   7.050
  289WAT     H1 1109   9.211   8.198   6.971
  289WAT     H2 1110   9.234   8.155   7.127
  290WAT      O 1111   4.248   1.218   2.072
  290WAT     H1 1112   4.272   1.129   2.111
  290WAT     H2 1113   4.298   1.290   2.119
  291WAT      O 1114   1.436   7.624   9.003
  291WAT     H1 1115   1.393   7.626   8.913
  291WAT     H2 1116   1.474   7.714   9.025
  292WAT      O 1117   2.325   4.892   9.624
  292WAT     H1 1118   2.325   4.973   9.566
  292WAT     H2 1119   2.419   4.867   9.647
  293WAT      O 1120   9.891   4.924   1.717
  293WAT     H1 1121   9.807   4.973   1.742
  293WAT     H2 1122   9.910   4.854   1.787
  294WAT      O 1123   3.868   1.816   8.852
  294WAT     H1 1124   3.949   1.829   8.910
  294WAT     H2 1125   3.788   1.802   8.910
  295WAT      O 1126   6.779   0.774   8.028
  295WAT     H1 1127   6.690   0.813   8.055
  295WAT     H2 1128   6.764   0.701   7.962
  296WAT      O 1129   4.613   2.045   7.701
  296WAT     H1 1130   4.611   2.030   7.800
  296WAT     H2 1131   4.680   2.116   7.680
  297WAT      O 1132   3.882   4.425   3.545
  297WAT     H1 1133   3.947   4.366   3.496
  297WAT     H2 1134   3.842   4.375   3.622
  298WAT      O 1135   6.225   8.926   7.175
  298WAT     H1 1136   6.130   8.949   7.195
  298WAT     H2 1137   6.249   8.840   7.221
  299WAT      O 1138   7.015   9.438   6.781
  299WAT     H1 1139   7.017   9.411   6.684
  299WAT     H2 1140   6.926   9.479   6.802
  300WAT      O 1141   0.300   7.534   0.579
  300WAT     H1 1142   0.308   7.615   0.637
  300WAT     H2 1143   0.312   7.561   0.483
  301WAT      O 1144   8.501   7.053   1.991
  301WAT     H1 1145   8.486   6.961   1.954
  301WAT     H2 1146   8.556   7.106   1.926
  302WAT      O 1147   5.902   2.510   4.544
  302WAT     H1 1148   5.999   2.534   4.537
  302WAT     H2 1149   5.847   2.593   4.537
  303WAT      O 1150   0.241   1.913   1.400
  303WAT     H1 1151   0.230   2.004   1.360
  303WAT     H2 1152   0.167   1.896   1.465
  304WAT      O 1153   6.501   5.147   0.086
  304WAT     H1 1154   6.579   5.162   0.146
  304WAT     H2 1155   6.522   5.183  -0.005
  305WAT      O 1156   1.710   9.801   3.659
  305WAT     H1 1157   1.689   9.891   3.621
  305WAT     H2 1158   1.744   9.741   3.587
  306WAT      O 1159   6.474   1.560   1.537
  306WAT     H1 1160   6.399   1.585   1.476
  306WAT     H2 1161   6.485   1.460   1.536
  307WAT      O 1162   1.903   7.417   1.919
  307WAT     H1 1163   1.920   7.319   1.908
  307WAT     H2 1164   1.983   7.459   1.961
  308WAT      O 1165   2.189   6.513   2.009
  308WAT     H1 1166   2.135   6.429   1.998
  308WAT     H2 1167   2.286   6.490   2.014
  309WAT      O 1168   1.383   1.648   3.040
  309WAT     H1 1169   1.289   1.615   3.043
  309WAT     H2 1170   1.406   1.677   2.947
  310WAT      O 1171   9.749   5.085   7.107
  310WAT     H1 1172   9.827   5.023   7.099
  310WAT     H2 1173   9.733   5.131   7.020
  311WAT      O 1174   4.496   2.122   6.884
  311WAT     H1 1175   4.444   2.101   6.967
  311WAT     H2 1176   4.572   2.058   6.875
  312WAT      O 1177   4.458   0.443   6.568
  312WAT     H1 1178   4.514   0.380   6.513
  312WAT     H2 1179   4.516   0.515   6.606
  313WAT      O 1180   0.201   4.743   8.971
  313WAT     H1 1181   0.258   4.765   9.050
  313WAT     H2 1182   0.136   4.672   8.995
  314WAT      O 1183   2.660   3.310   5.196
  314WAT     H1 1184   2.695   3.290   5.288
  314WAT     H2 1185   2.721   3.375   5.151
  315WAT      O 1186   3.753   7.260   9.181
  315WAT     H1 1187   3.703   7.346   9.182
  315WAT     H2 1188   3.829   7.266   9.116
  316WAT      O 1189   8.950   9.819   8.127
  316WAT     H1 1190   8.909   9.743   8.177
  316WAT     H2 1191   9.023   9.785   8.068
  317WAT      O 1192   2.429   1.172   2.212
  317WAT     H1 1193   2.400   1.266   2.199
  317WAT     H2 1194   2.485   1.166   2.295
  318WAT      O 1195   2.256   8.322   3.773
  318WAT     H1 1196   2.340   8.320   3.719
  318WAT     H2 1197   2.201   8.401   3.746
  319WAT      O 1198   4.242   9.684   6.684
  319WAT     H1 1199   4.227   9.621   6.608
  319WAT     H2 1200   4.335   9.673   6.718
  320WAT      O 1201   1.718   0.697   7.908
  320WAT     H1 1202   1.809   0.704   7.947
  320WAT     H2 1203   1.720   0.639   7.826
  321WAT      O 1204   5.442   1.387   4.803
  321WAT     H1 1205   5.453   1.377   4.705
  321WAT     H2 1206   5.505   1.325   4.850
  322WAT      O 1207   6.871   2.730   1.170
  322WAT     H1 1208   6.861   2.672   1.089
  322WAT     H2 1209   6.956   2.782   1.163
  323WAT      O 1210   8.204   5.076   7.762
  323WAT     H1 1211   8.169   5.166   7.739
  323WAT     H2 1212   8.303   5.074   7.746
  324WAT      O 1213   1.812   9.499   5.939
  324WAT     H1 1214   1.865   9.416   5.957
  324WAT     H2 1215   1.822   9.524   5.843
  325WAT      O 1216   4.351   8.761   8.836
  325WAT     H1 1217   4.258   8.796   8.832
  325WAT     H2 1218   4.350   8.662   8.828
  326WAT      O 1219   4.861   8.660   1.117
  326WAT     H1 1220   4.917   8.712   1.053
  326WAT     H2 1221   4.780   8.626   1.070
  327WAT      O 1222   6.521   6.421   5.066
  327WAT     H1 1223   6.529   6.513   5.027
  327WAT     H2 1224   6.597   6.364   5.034
  328WAT      O 1225   4.127   0.466   0.095
  328WAT     H1 1226   4.175   0.536   0.146
  328WAT     H2 1227   4.166   0.458   0.003
  329WAT      O 1228   7.895   2.834   8.934
  329WAT     H1 1229   7.962   2.764   8.913
  329WAT     H2 1230   7.937   2.905   8.990
  330WAT      O 1231   8.003   4.191   0.591
  330WAT     H1 1232   8.060   4.110   0.578
  330WAT     H2 1233   7.907   4.166   0.577
  331WAT      O 1234   4.560   3.261   0.344
  331WAT     H1 1235   4.574   3.301   0.253
  331WAT     H2 1236   4.469   3.218   0.347
  332WAT      O 1237   2.786   5.135   5.752
  332WAT     H1 1238   2.735   5.136   5.666
  332WAT     H2 1239   2.752   5.062   5.811
  333WAT      O 1240   9.536   9.617   7.564
  333WAT     H1 1241   9.519   9.555   7.641
  333WAT     H2 1242   9.492   9.705   7.583
  334WAT      O 1243   7.391   9.499   7.812
  334WAT     H1 1244   7.447   9.479   7.892
  334WAT     H2 1245   7.417   9.588   7.774
  335WAT      O 1246   9.574   2.963   2.680
  335WAT     H1 1247   9.529   2.920   2.758
  335WAT     H2 1248   9.510   2.969   2.603
  336WAT      O 1249   0.261   7.251   1.149
  336WAT     H1 1250   0.252   7.332   1.091
  336WAT     H2 1251   0.183   7.246   1.212
  337WAT      O 1252   4.391   4.862   1.066
  337WAT     H1 1253   4.331   4.839   0.990
  337WAT     H2 1254   4.485   4.868   1.033
  338WAT      O 1255   4.610   4.944   2.023
  338WAT     H1 1256   4.581   4.868   2.081
  338WAT     H2 1257   4.546   4.954   1.947
  339WAT      O 1258   5.464   7.828   2.368
  339WAT     H1 1259   5.439   7.738   2.403
  339WAT     H2 1260   5.413   7.847   2.284
  340WAT      O 1261   7.893   8.826   0.870
  340WAT     H1 1262   7.909   8.741   0.920
  340WAT     H2 1263   7.937   8.822   0.781
  341WAT      O 1264   4.059   1.214   9.305
  341WAT     H1 1265   4.053   1.157   9.223
  341WAT     H2 1266   4.154   1.220   9.335
  342WAT      O 1267   7.760   3.237   3.996
  342WAT     H1 1268   7.780   3.332   4.022
  342WAT     H2 1269   7.776   3.177   4.075
  343WAT      O 1270   8.806   8.258   5.665
  343WAT     H1 1271   8.768   8.320   5.733
  343WAT     H2 1272   8.905   8.248   5.680
  344WAT      O 1273   7.106   4.542   6.782
  344WAT     H1 1274   7.071   4.513   6.871
  344WAT     H2 1275   7.183   4.605   6.795
  345WAT      O 1276   7.143   0.290   8.059
  345WAT     H1 1277   7.205   0.338   8.121
  345WAT     H2 1278   7.050   0.324   8.073
  346WAT      O 1279   4.857   3.498   2.705
  346WAT     H1 1280   4.763   3.529   2.694
  346WAT     H2 1281   4.876   3.424   2.642
  347WAT      O 1282   8.789   1.732   5.983
  347WAT     H1 1283   8.740   1.794   6.044
  347WAT     H2 1284   8.762   1.749   5.888
  348WAT      O 1285   3.763   3.041   0.327
  348WAT     H1 1286   3.734   3.114   0.389
  348WAT     H2 1287   3.786   3.079   0.238
  349WAT      O 1288   6.216   9.620   3.990
  349WAT     H1 1289   6.198   9.683   4.065
  349WAT     H2 1290   6.204   9.668   3.903
  350WAT      O 1291   0.599   8.929   6.305
  350WAT     H1 1292   0.537   8.985   6.250
  350WAT     H2 1293   0.575   8.937   6.402
  351WAT      O 1294   1.502   4.040   9.416
  351WAT     H1 1295   1.528   4.124   9.367
  351WAT     H2 1296   1.453   4.064   9.499
  352WAT      O 1297   4.205   0.140   0.577
  352WAT     H1 1298   4.288   0.179   0.537
  352WAT     H2 1299   4.228   0.088   0.659
  353WAT      O 1300   0.190   8.148   5.787
  353WAT     H1 1301   0.221   8.240   5.812
  353WAT     H2 1302   0.262   8.100   5.738
  354WAT      O 1303   0.801   2.051   7.081
  354WAT     H1 1304   0.837   2.034   7.173
  354WAT     H2 1305   0.774   1.964   7.040
  355WAT      O 1306   4.283   7.416   3.709
  355WAT     H1 1307   4.382   7.423   3.724
  355WAT     H2 1308   4.265   7.384   3.616
  356WAT      O 1309   8.145   7.761   8.190
  356WAT     H1 1310   8.104   7.775   8.280
  356WAT     H2 1311   8.084   7.704   8.134
  357WAT      O 1312   1.974   1.942   0.435
  357WAT     H1 1313   1.917   1.943   0.353
  357WAT     H2 1314   2.068   1.917   0.409
  358WAT      O 1315   6.274   0.549   7.996
  358WAT     H1 1316   6.363   0.545   7.950
  358WAT     H2 1317   6.221   0.625   7.959
  359WAT      O 1318   9.242   4.062   8.880
  359WAT     H1 1319   9.319   4.038   8.940
  359WAT     H2 1320   9.226   4.161   8.885
  360WAT      O 1321   9.143   6.297   7.882
  360WAT     H1 1322   9.078   6.268   7.952
  360WAT     H2 1323   9.141   6.397   7.874
  361WAT      O 1324   7.004   0.048   7.163
  361WAT     H1 1325   7.038   0.111   7.092
  361WAT     H2 1326   7.036   0.078   7.252
  362WAT      O 1327   5.522   9.742   6.226
  362WAT     H1 1328   5.535   9.732   6.324
  362WAT     H2 1329   5.608   9.773   6.184
  363WAT      O 1330   2.258   5.878   3.843
  363WAT     H1 1331   2.275   5.823   3.925
  363WAT     H2 1332   2.175   5.932   3.857
  364WAT      O 1333   2.121   6.100   7.045
  364WAT     H1 1334   2.138   6.170   7.114
  364WAT     H2 1335   2.026   6.070   7.051
  365WAT      O 1336   6.030   4.842   4.207
  365WAT     H1 1337   5.969   4.886   4.141
  365WAT     H2 1338   5.976   4.809   4.284
  366WAT      O 1339   0.911   2.653   1.538
  366WAT     H1 1340   0.851   2.614   1.609
  366WAT     H2 1341   0.876   2.629   1.448
  367WAT      O 1342   0.192   2.508   5.285
  367WAT     H1 1343   0.213   2.514   5.188
  367WAT     H2 1344   0.270   2.471   5.334
  368WAT      O 1345   4.005   7.753   0.917
  368WAT     H1 1346   4.050   7.818   0.978
  368WAT     H2 1347   4.024   7.778   0.822
  369WAT      O 1348   6.758   8.122   3.759
  369WAT     H1 1349   6.706   8.143   3.842
  369WAT     H2 1350   6.730   8.033   3.724
  370WAT      O 1351   3.822   4.712   2.047
  370WAT     H1 1352   3.854   4.756   1.964
  370WAT     H2 1353   3.800   4.782   2.115
  371WAT      O 1354   5.484   4.284   8.035
  371WAT     H1 1355   5.461   4.362   7.976
  371WAT     H2 1356   5.499   4.315   8.128
  372WAT      O 1357   8.804   4.653   0.965
  372WAT     H1 1358   8.787   4.626   1.059
  372WAT     H2 1359   8.780   4.578   0.903
  373WAT      O 1360   0.035   6.133   8.569
  373WAT     H1 1361   0.119   6.187   8.577
  373WAT     H2 1362  -0.044   6.193   8.570
  374WAT      O 1363   5.028   9.130   0.779
  374WAT     H1 1364   4.944   9.183   0.795
  374WAT     H2 1365   5.037   9.061   0.850
  375WAT      O 1366   9.801   2.513   2.908
  375WAT     H1 1367   9.707   2.524   2.941
  375WAT     H2 1368   9.854   2.595   2.928
  376WAT      O 1369   1.181   9.436   6.470
  376WAT     H1 1370   1.119   9.360   6.488
  376WAT     H2 1371   1.131   9.508   6.421
  377WAT      O 1372   1.690   1.813   8.383
  377WAT     H1 1373   1.763   1.746   8.369
  377WAT     H2 1374   1.666   1.856   8.296
  378WAT      O 1375   7.533   1.001   3.270
  378WAT     H1 1376   7.446   1.017   3.224
  378WAT     H2 1377   7.526   1.033   3.365
  379WAT      O 1378   4.041   0.918   7.032
  379WAT     H1 1379   4.044   0.882   6.938
  379WAT     H2 1380   4.113   0.987   7.043
  380WAT      O 1381   3.220   4.832   8.182
  380WAT     H1 1382   3.228   4.741   8.141
  380WAT     H2 1383   3.309   4.859   8.220
  381WAT      O 1384   5.587   2.114   6.429
  381WAT     H1 1385   5.621   2.029   6.470
  381WAT     H2 1386   5.499   2.097   6.384
  382WAT      O 1387   5.867   5.240   1.858
  382WAT     H1 1388   5.897   5.269   1.767
  382WAT     H2 1389   5.776   5.276   1.876
  383WAT      O 1390   3.037   7.234   3.300
  383WAT     H1 1391   2.947   7.235   3.344
  383WAT     H2 1392   3.073   7.141   3.302
  384WAT      O 1393   3.685   1.456   4.920
  384WAT     H1 1394   3.713   1.373   4.969
  384WAT     H2 1395   3.706   1.446   4.823
  385WAT      O 1396   3.293   7.241   9.433
  385WAT     H1 1397   3.336   7.193   9.510
  385WAT     H2 1398   3.202   7.272   9.460
  386WAT      O 1399   3.504   9.329   9.693
  386WAT     H1 1400   3.596   9.366   9.680
  386WAT     H2 1401   3.454   9.386   9.758
  387WAT      O 1402   4.582   9.331   9.282
  387WAT     H1 1403   4.564   9.258   9.216
  387WAT     H2 1404   4.522   9.409   9.263
  388WAT      O 1405   5.135   2.478   4.576
  388WAT     H1 1406   5.065   2.453   4.508
  388WAT     H2 1407   5.207   2.532   4.531
  389WAT      O 1408   5.703   3.531   0.051
  389WAT     H1 1409   5.721   3.458   0.117
  389WAT     H2 1410   5.641   3.598   0.092
  390WAT      O 1411   1.938   9.169   2.563
  390WAT     H1 1412   2.017   9.196   2.507
  390WAT     H2 1413   1.925   9.070   2.557
  391WAT      O 1414   1.136   8.091   8.046
  391WAT     H1 1415   1.219   8.120   8.092
  391WAT     H2 1416   1.088   8.024   8.103
  392WAT      O 1417   7.727   6.433   0.002
  392WAT     H1 1418   7.783   6.516  -0.005
  392WAT     H2 1419   7.652   6.448   0.066
  393WAT      O 1420   8.886   9.731   4.053
  393WAT     H1 1421   8.807   9.694   4.005
  393WAT     H2 1422   8.951   9.657   4.073
  394WAT      O 1423   0.889   7.644   4.851
  394WAT     H1 1424   0.877   7.634   4.752
  394WAT     H2 1425   0.980   7.611   4.876
  395WAT      O 1426   6.860   6.880   5.791
  395WAT     H1 1427   6.860   6.898   5.889
  395WAT     H2 1428   6.783   6.927   5.749
  396WAT      O 1429   0.183   4.607   7.456
  396WAT     H1 1430   0.203   4.705   7.447
  396WAT     H2 1431   0.232   4.557   7.385
  397WAT      O 1432   4.836   2.079   3.228
  397WAT     H1 1433   4.860   2.095   3.132
  397WAT     H2 1434   4.805   2.165   3.269
  398WAT      O 1435   5.963   0.878   4.649
  398WAT     H1 1436   6.001   0.950   4.707
  398WAT     H2 1437   5.889   0.916   4.593
  399WAT      O 1438   6.581   2.484   9.851
  399WAT     H1 1439   6.536   2.399   9.822
  399WAT     H2 1440   6.604   2.477   9.948
  400WAT      O 1441   4.636   3.376   1.048
  400WAT     H1 1442   4.610   3.463   1.091
  400WAT     H2 1443   4.630   3.303   1.115
  401WAT      O 1444   9.267   3.650   3.848
  401WAT     H1 1445   9.222   3.563   3.829
  401WAT     H2 1446   9.261   3.709   3.767
  402WAT      O 1447   0.432   3.807   9.812
  402WAT     H1 1448   0.504   3.794   9.880
  402WAT     H2 1449   0.369   3.729   9.814
  403WAT      O 1450   2.635   1.375   2.010
  403WAT     H1 1451   2.607   1.428   1.930
  403WAT     H2 1452   2.588   1.287   2.009
  404WAT      O 1453   5.730   1.655   6.549
  404WAT     H1 1454   5.685   1.569   6.572
  404WAT     H2 1455   5.829   1.646   6.562
  405WAT      O 1456   0.013   0.932   3.155
  405WAT     H1 1457   0.111   0.951   3.141
  405WAT     H2 1458  -0.029   0.910   3.067
  406WAT      O 1459   0.277   0.234   8.264
  406WAT     H1 1460   0.239   0.143   8.249
  406WAT     H2 1461   0.227   0.280   8.338
  407WAT      O 1462   2.303   3.287   6.102
  407WAT     H1 1463   2.208   3.263   6.085
  407WAT     H2 1464   2.362   3.230   6.044
  408WAT      O 1465   8.595   6.239   6.448
  408WAT     H1 1466   8.502   6.238   6.411
  408WAT     H2 1467   8.655   6.186   6.388
  409WAT      O 1468   1.714   3.331   8.728
  409WAT     H1 1469   1.759   3.410   8.686
  409WAT     H2 1470   1.619   3.327   8.699
  410WAT      O 1471   8.685   1.657   2.611
  410WAT     H1 1472   8.592   1.693   2.603
  410WAT     H2 1473   8.686   1.560   2.586
  411WAT      O 1474   4.547   0.498   8.591
  411WAT     H1 1475   4.575   0.590   8.619
  411WAT     H2 1476   4.463   0.504   8.536
  412WAT      O 1477   7.793   5.990   1.918
  412WAT     H1 1478   7.708   6.026   1.955
  412WAT     H2 1479   7.870   6.019   1.976
  413WAT      O 1480   5.830   3.795   2.182
  413WAT     H1 1481   5.826   3.889   2.150
  413WAT     H2 1482   5.742   3.750   2.167
  414WAT      O 1483   4.797   1.503   6.805
  414WAT     H1 1484   4.767   1.548   6.721
  414WAT     H2 1485   4.717   1.473   6.857
  415WAT      O 1486   5.230   2.132   2.567
  415WAT     H1 1487   5.204   2.036   2.559
  415WAT     H2 1488   5.325   2.139   2.598
  416WAT      O 1489   8.482   8.679   9.302
  416WAT     H1 1490   8.414   8.732   9.251
  416WAT     H2 1491   8.545   8.741   9.349
  417WAT      O 1492   7.062   8.467   5.723
  417WAT     H1 1493   7.018   8.543   5.675
  417WAT     H2 1494   7.161   8.471   5.709
  418WAT      O 1495   1.406   1.045   3.778
  418WAT     H1 1496   1.441   1.007   3.692
  418WAT     H2 1497   1.377   1.140   3.762
  419WAT      O 1498   0.986   2.520   9.571
  419WAT     H1 1499   0.954   2.535   9.477
  419WAT     H2 1500   1.041   2.598   9.600
  420WAT      O 1501   4.213   5.245   4.196
  420WAT     H1 1502   4.261   5.239   4.109
  420WAT     H2 1503   4.126   5.293   4.183
  421WAT      O 1504   3.205   5.453   6.342
  421WAT     H1 1505   3.184   5.542   6.383
  421WAT     H2 1506   3.124   5.418   6.295
  422WAT      O 1507   6.278   2.618   7.765
  422WAT     H1 1508   6.337   2.644   7.842
  422WAT     H2 1509   6.183   2.633   7.790
  423WAT      O 1510   9.748   9.699   4.384
  423WAT     H1 1511   9.771   9.603   4.399
  423WAT     H2 1512   9.813   9.741   4.321
  424WAT      O 1513   1.209   6.702   0.617
  424WAT     H1 1514   1.192   6.788   0.570
  424WAT     H2 1515   1.201   6.716   0.716
  425WAT      O 1516   9.844   7.327   4.744
  425WAT     H1 1517   9.754   7.363   4.720
  425WAT     H2 1518   9.909   7.347   4.671
  426WAT      O 1519   5.529   1.302   5.954
  426WAT     H1 1520   5.515   1.230   5.887
  426WAT     H2 1521   5.485   1.386   5.922
  427WAT      O 1522   6.220   4.146   9.604
  427WAT     H1 1523   6.138   4.204   9.596
  427WAT     H2 1524   6.223   4.082   9.528
  428WAT      O 1525   2.152   0.254   0.299
  428WAT     H1 1526   2.208   0.174   0.322
  428WAT     H2 1527   2.072   0.256   0.357
  429WAT      O 1528   7.415   3.631   9.080
  429WAT     H1 1529   7.427   3.558   9.148
  429WAT     H2 1530   7.454   3.602   8.993
  430WAT      O 1531   7.808   9.460   2.271
  430WAT     H1 1532   7.718   9.465   2.228
  430WAT     H2 1533   7.821   9.368   2.308
  431WAT      O 1534   8.679   4.058   8.306
  431WAT     H1 1535   8.641   4.128   8.367
  431WAT     H2 1536   8.726   3.989   8.360
  432WAT      O 1537   9.585   2.866   5.876
  432WAT     H1 1538   9.669   2.874   5.930
  432WAT     H2 1539   9.515   2.817   5.929
  433WAT      O 1540   3.624   9.598   1.676
  433WAT     H1 1541   3.596   9.690   1.650
  433WAT     H2 1542   3.683   9.603   1.756
  434WAT      O 1543   8.839   1.864   2.689
  434WAT     H1 1544   8.786   1.781   2.671
  434WAT     H2 1545   8.930   1.855   2.649
  435WAT      O 1546   0.481   6.317   9.506
  435WAT     H1 1547   0.550   6.248   9.529
  435WAT     H2 1548   0.414   6.323   9.580
  436WAT      O 1549   2.999   4.088   3.368
  436WAT     H1 1550   2.909   4.128   3.379
  436WAT     H2 1551   3.007   4.048   3.277
  437WAT      O 1552   6.668   3.885   1.223
  437WAT     H1 1553   6.592   3.940   1.189
  437WAT     H2 1554   6.736   3.873   1.150
  438WAT      O 1555   7.884   2.783   9.265
  438WAT     H1 1556   7.905   2.713   9.197
  438WAT     H2 1557   7.930   2.868   9.242
  439WAT      O 1558   2.549   1.105   4.436
  439WAT     H1 1559   2.591   1.194   4.454
  439WAT     H2 1560   2.614   1.046   4.389
  440WAT      O 1561   1.338   7.768   4.890
  440WAT     H1 1562   1.333   7.681   4.939
  440WAT     H2 1563   1.297   7.758   4.799
  441WAT      O 1564   3.962   9.134   9.340
  441WAT     H1 1565   3.959   9.230   9.312
  441WAT     H2 1566   3.895   9.082   9.287
  442WAT      O 1567   2.069   0.236   3.116
  442WAT     H1 1568   2.058   0.325   3.073
  442WAT     H2 1569   2.040   0.164   3.052
  443WAT      O 1570   1.413   8.284   7.737
  443WAT     H1 1571   1.354   8.361   7.760
  443WAT     H2 1572   1.424   8.279   7.637
  444WAT      O 1573   5.770   2.026   8.019
  444WAT     H1 1574   5.733   1.934   8.031
  444WAT     H2 1575   5.808   2.035   7.927
  445WAT      O 1576   2.423   7.200   0.341
  445WAT     H1 1577   2.508   7.234   0.303
  445WAT     H2 1578   2.346   7.245   0.296
  446WAT      O 1579   3.895   1.754   3.305
  446WAT     H1 1580   3.798   1.730   3.305
  446WAT     H2 1581   3.910   1.837   3.359
  447WAT      O 1582  -0.001   8.975   4.127
  447WAT     H1 1583   0.055   8.943   4.203
  447WAT     H2 1584  -0.014   8.901   4.061
  448WAT      O 1585   3.559   1.524   8.908
  448WAT     H1 1586   3.479   1.492   8.959
  448WAT     H2 1587   3.549   1.622   8.888
  449WAT      O 1588   5.681   3.876   1.904
  449WAT     H1 1589   5.653   3.943   1.973
  449WAT     H2 1590   5.634   3.789   1.921
  450WAT      O 1591   3.735   7.203   2.166
  450WAT     H1 1592   3.819   7.184   2.116
  450WAT     H2 1593   3.694   7.118   2.197
  451WAT      O 1594   4.117   9.586   0.437
  451WAT     H1 1595   4.096   9.502   0.486
  451WAT     H2 1596   4.203   9.575   0.387
  452WAT      O 1597   5.865   6.118   6.090
  452WAT     H1 1598   5.934   6.186   6.065
  452WAT     H2 1599   5.783   6.131   6.034
  453WAT      O 1600   4.720   5.339   8.023
  453WAT     H1 1601   4.621   5.336   8.038
  453WAT     H2 1602   4.767   5.323   8.110
  454WAT      O 1603   4.784   1.730   0.930
  454WAT     H1 1604   4.796   1.634   0.901
  454WAT     H2 1605   4.707   1.736   0.993
  455WAT      O 1606   4.502   9.343   1.425
  455WAT     H1 1607   4.499   9.308   1.519
  455WAT     H2 1608   4.534   9.438   1.426
  456WAT      O 1609   3.759   0.906   2.176
  456WAT     H1 1610   3.827   0.963   2.221
  456WAT     H2 1611   3.797   0.870   2.091
  457WAT      O 1612   8.440   5.466   5.097
  457WAT     H1 1613   8.367   5.528   5.070
  457WAT     H2 1614   8.454   5.397   5.025
  458WAT      O 1615   0.742   1.793   7.035
  458WAT     H1 1616   0.645   1.811   7.019
  458WAT     H2 1617   0.752   1.735   7.116
  459WAT      O 1618   3.557   7.746   0.318
  459WAT     H1 1619   3.485   7.746   0.248
  459WAT     H2 1620   3.590   7.840   0.332
  460WAT      O 1621   1.883   4.121   5.746
  460WAT     H1 1622   1.940   4.041   5.758
  460WAT     H2 1623   1.859   4.160   5.835
  461WAT      O 1624   1.525   7.365   6.308
  461WAT     H1 1625   1.539   7.375   6.209
  461WAT     H2 1626   1.501   7.270   6.329
  462WAT      O 1627   2.076   3.736   4.168
  462WAT     H1 1628   1.983   3.750   4.135
  462WAT     H2 1629   2.138   3.801   4.124
  463WAT      O 1630   8.040   5.760   4.777
  463WAT     H1 1631   8.002   5.782   4.687
  463WAT     H2 1632   8.123   5.706   4.765
  464WAT      O 1633   2.142   9.453   2.121
  464WAT     H1 1634   2.133   9.552   2.117
  464WAT     H2 1635   2.239   9.428   2.125
  465WAT      O 1636   2.016   4.636   3.955
  465WAT     H1 1637   1.926   4.597   3.972
  465WAT     H2 1638   2.027   4.719   4.010
  466WAT      O 1639   7.559   4.451   7.191
  466WAT     H1 1640   7.603   4.481   7.276
  466WAT     H2 1641   7.619   4.388   7.143
  467WAT      O 1642   4.568   4.613   1.611
  467WAT     H1 1643   4.486   4.659   1.645
  467WAT     H2 1644   4.544   4.553   1.535
  468WAT      O 1645   9.114   6.327   1.198
  468WAT     H1 1646   9.048   6.256   1.173
  468WAT     H2 1647   9.199   6.314   1.148
  469WAT      O 1648   7.699   2.691   6.181
  469WAT     H1 1649   7.747   2.632   6.246
  469WAT     H2 1650   7.735   2.675   6.089
  470WAT      O 1651   2.391   0.326   8.577
  470WAT     H1 1652   2.423   0.240   8.617
  470WAT     H2 1653   2.405   0.325   8.478
  471WAT      O 1654   8.417   7.225   8.018
  471WAT     H1 1655   8.373   7.236   8.107
  471WAT     H2 1656   8.347   7.224   7.946
  472WAT      O 1657   7.354   8.157   8.649
  472WAT     H1 1658   7.432   8.219   8.635
  472WAT     H2 1659   7.372   8.099   8.729
  473WAT      O 1660   4.834   1.525   2.332
  473WAT     H1 1661   4.851   1.623   2.345
  473WAT     H2 1662   4.921   1.478   2.317
  474WAT      O 1663   6.891   5.088   6.602
  474WAT     H1 1664   6.857   5.071   6.510
  474WAT     H2 1665   6.990   5.074   6.604
  475WAT      O 1666   4.622   3.353   3.808
  475WAT     H1 1667   4.594   3.264   3.843
  475WAT     H2 1668   4.643   3.414   3.885
  476WAT      O 1669   5.551   0.940   7.214
  476WAT     H1 1670   5.647   0.949   7.239
  476WAT     H2 1671   5.539   0.966   7.118
  477WAT      O 1672   8.957   1.923   9.813
  477WAT     H1 1673   8.867   1.881   9.819
  477WAT     H2 1674   9.003   1.916   9.902
  478WAT      O 1675   4.353   3.138   9.881
  478WAT     H1 1676   4.357   3.236   9.862
  478WAT     H2 1677   4.413   3.089   9.817
  479WAT      O 1678   2.540   3.269   4.825
  479WAT     H1 1679   2.474   3.338   4.798
  479WAT     H2 1680   2.574   3.222   4.744
  480WAT      O 1681   5.443   0.290   2.696
  480WAT     H1 1682   5.450   0.245   2.785
  480WAT     H2 1683   5.432   0.389   2.710
  481WAT      O 1684   6.497   0.011   0.961
  481WAT     H1 1685   6.416   0.065   0.939
  481WAT     H2 1686   6.488  -0.080   0.920
  482WAT      O 1687   7.511   8.838   6.382
  482WAT     H1 1688   7.575   8.870   6.312
  482WAT     H2 1689   7.435   8.902   6.389
  483WAT      O 1690   0.456   1.002   3.014
  483WAT     H1 1691   0.401   1.020   2.933
  483WAT     H2 1692   0.404   0.944   3.077
  484WAT      O 1693   5.060   3.268   5.763
  484WAT     H1 1694   5.005   3.350   5.753
  484WAT     H2 1695   5.137   3.287   5.824
  485WAT      O 1696   0.987   4.561   1.245
  485WAT     H1 1697   0.904   4.527   1.289
  485WAT     H2 1698   0.963   4.637   1.184
  486WAT      O 1699   6.205   9.778   6.523
  486WAT     H1 1700   6.299   9.748   6.537
  486WAT     H2 1701   6.196   9.818   6.433
  487WAT      O 1702   2.569   1.231   6.011
  487WAT     H1 1703   2.487   1.279   6.045
  487WAT     H2 1704   2.606   1.280   5.933
  488WAT      O 1705   0.284   8.326   7.695
  488WAT     H1 1706   0.312   8.314   7.600
  488WAT     H2 1707   0.363   8.314   7.755
  489WAT      O 1708   0.534   1.365   0.788
  489WAT     H1 1709   0.566   1.456   0.817
  489WAT     H2 1710   0.436   1.369   0.767
  490WAT      O 1711   2.560   3.559   2.469
  490WAT     H1 1712   2.466   3.590   2.454
  490WAT     H2 1713   2.586   3.578   2.563
  491WAT      O 1714   1.947   8.947   7.191
  491WAT     H1 1715   2.010   9.023   7.207
  491WAT     H2 1716   1.998   8.861   7.192
  492WAT      O 1717   8.959   6.745   8.038
  492WAT     H1 1718   8.909   6.685   8.100
  492WAT     H2 1719   9.043   6.777   8.083
  493WAT      O 1720   9.730   9.043   1.593
  493WAT     H1 1721   9.703   9.076   1.502
  493WAT     H2 1722   9.787   9.112   1.637
  494WAT      O 1723   4.738   2.064   5.920
  494WAT     H1 1724   4.783   2.129   5.860
  494WAT     H2 1725   4.641   2.057   5.896
  495WAT      O 1726   5.867   2.949   3.008
  495WAT     H1 1727   5.828   3.034   2.974
  495WAT     H2 1728   5.830   2.872   2.956
  496WAT      O 1729   7.757   1.252   4.516
  496WAT     H1 1730   7.710   1.326   4.565
  496WAT     H2 1731   7.797   1.189   4.583
  497WAT      O 1732   1.725   4.863   2.641
  497WAT     H1 1733   1.742   4.769   2.613
  497WAT     H2 1734   1.798   4.922   2.607
  498WAT      O 1735   9.272   8.498   2.226
  498WAT     H1 1736   9.264   8.578   2.167
  498WAT     H2 1737   9.335   8.432   2.184
  499WAT      O 1738   9.678   8.325   5.235
  499WAT     H1 1739   9.623   8.329   5.152
  499WAT     H2 1740   9.674   8.233   5.274
  500WAT      O 1741   5.271   9.123   1.108
  500WAT     H1 1742   5.180   9.164   1.099
  500WAT     H2 1743   5.275   9.070   1.193
  501WAT      O 1744   5.325   5.924   3.330
  501WAT     H1 1745   5.386   5.850   3.358
  501WAT     H2 1746   5.234   5.910   3.371
  502WAT      O 1747   8.754   9.297   4.390
  502WAT     H1 1748   8.786   9.276   4.482
  502WAT     H2 1749   8.827   9.278   4.324
  503WAT      O 1750   1.751  -0.003   0.626
  503WAT     H1 1751   1.749   0.087   0.584
  503WAT     H2 1752   1.844  -0.023   0.656
  504WAT      O 1753   0.609   0.686   0.690
  504WAT     H1 1754   0.681   0.618   0.707
  504WAT     H2 1755   0.634   0.741   0.610
  505WAT      O 1756   2.363   0.034   7.273
  505WAT     H1 1757   2.374   0.130   7.247
  505WAT     H2 1758   2.364   0.026   7.372
  506WAT      O 1759   4.170   9.543   9.598
  506WAT     H1 1760   4.188   9.451   9.631
  506WAT     H2 1761   4.081   9.546   9.553
  507WAT      O 1762   4.951   1.391   9.076
  507WAT     H1 1763   4.985   1.482   9.097
  507WAT     H2 1764   5.024   1.337   9.034
  508WAT      O 1765   4.715   2.756   0.735
  508WAT     H1 1766   4.753   2.835   0.782
  508WAT     H2 1767   4.735   2.762   0.637
  509WAT      O 1768   0.736   8.952   4.554
  509WAT     H1 1769   0.706   9.045   4.532
  509WAT     H2 1770   0.829   8.955   4.592
  510WAT      O 1771   7.561   7.714   4.138
  510WAT     H1 1772   7.575   7.617   4.115
  510WAT     H2 1773   7.582   7.770   4.057
  511WAT      O 1774   6.946   2.085   6.851
  511WAT     H1 1775   6.927   2.036   6.766
  511WAT     H2 1776   6.864   2.083   6.909
  512WAT      O 1777   7.209   7.961   9.267
  512WAT     H1 1778   7.202   7.942   9.169
  512WAT     H2 1779   7.296   8.006   9.287
  513WAT      O 1780   5.096   2.078   6.246
  513WAT     H1 1781   5.022   2.038   6.191
  513WAT     H2 1782   5.059   2.150   6.304
  514WAT      O 1783   8.736   0.312   3.893
  514WAT     H1 1784   8.746   0.412   3.901
  514WAT     H2 1785   8.792   0.268   3.964
  515WAT      O 1786   2.811   0.255   0.717
  515WAT     H1 1787   2.761   0.184   0.765
  515WAT     H2 1788   2.901   0.219   0.689
  516WAT      O 1789   7.805   7.173   8.739
  516WAT     H1 1790   7.868   7.150   8.665
  516WAT     H2 1791   7.758   7.259   8.716
  517WAT      O 1792   9.289   2.684   0.554
  517WAT     H1 1793   9.211   2.746   0.540
  517WAT     H2 1794   9.298   2.663   0.651
  518WAT      O 1795   9.376   9.548   5.004
  518WAT     H1 1796   9.459   9.561   5.059
  518WAT     H2 1797   9.296   9.545   5.064
  519WAT      O 1798   3.371   0.470   7.741
  519WAT     H1 1799   3.292   0.457   7.680
  519WAT     H2 1800   3.431   0.391   7.734
  520WAT      O 1801   0.330   0.981   4.829
  520WAT     H1 1802   0.295   1.030   4.749
  520WAT     H2 1803   0.265   0.910   4.856
  521WAT      O 1804   3.068   2.144   2.888
  521WAT     H1 1805   3.090   2.130   2.791
  521WAT     H2 1806   2.973   2.174   2.896
  522WAT      O 1807   5.155   1.850   0.669
  522WAT     H1 1808   5.074   1.872   0.724
  522WAT     H2 1809   5.169   1.922   0.601
  523WAT      O 1810   9.370   2.366   5.605
  523WAT     H1 1811   9.296   2.433   5.598
  523WAT     H2 1812   9.457   2.413   5.619
  524WAT      O 1813   6.629   4.905   4.868
  524WAT     H1 1814   6.583   4.841   4.806
  524WAT     H2 1815   6.561   4.948   4.927
  525WAT      O 1816   0.864   9.017   2.068
  525WAT     H1 1817   0.772   9.035   2.103
  525WAT     H2 1818   0.932   9.049   2.133
  526WAT      O 1819   0.648   5.052   9.487
  526WAT     H1 1820   0.705   5.065   9.568
  526WAT     H2 1821   0.698   4.999   9.419
  527WAT      O 1822   6.480   0.198   2.537
  527WAT     H1 1823   6.501   0.291   2.509
  527WAT     H2 1824   6.559   0.159   2.584
  528WAT      O 1825   8.241   5.718   3.133
  528WAT     H1 1826   8.280   5.672   3.053
  528WAT     H2 1827   8.142   5.704   3.133
  529WAT      O 1828   7.663   5.484   1.703
  529WAT     H1 1829   7.661   5.570   1.754
  529WAT     H2 1830   7.721   5.494   1.622
  530WAT      O 1831   1.028   2.096   9.369
  530WAT     H1 1832   1.078   2.010   9.375
  530WAT     H2 1833   1.089   2.168   9.335
  531WAT      O 1834   6.786   8.077   9.725
  531WAT     H1 1835   6.751   8.164   9.761
  531WAT     H2 1836   6.712   8.030   9.677
  532WAT      O 1837   8.655   0.316   4.979
  532WAT     H1 1838   8.663   0.356   4.888
  532WAT     H2 1839   8.729   0.350   5.037
  533WAT      O 1840   7.781   5.663   1.097
  533WAT     H1 1841   7.745   5.592   1.036
  533WAT     H2 1842   7.868   5.633   1.136
  534WAT      O 1843   3.287   9.484   4.787
  534WAT     H1 1844   3.337   9.410   4.831
  534WAT     H2 1845   3.257   9.549   4.857
  535WAT      O 1846   1.968   7.142   7.331
  535WAT     H1 1847   1.945   7.071   7.264
  535WAT     H2 1848   1.957   7.105   7.423
  536WAT      O 1849   6.506   1.448   8.192
  536WAT     H1 1850   6.521   1.545   8.172
  536WAT     H2 1851   6.425   1.437   8.249
  537WAT      O 1852   5.393   2.851   8.902
  537WAT     H1 1853   5.350   2.789   8.967
  537WAT     H2 1854   5.484   2.875   8.934
  538WAT      O 1855   0.205   8.710   2.071
  538WAT     H1 1856   0.168   8.792   2.029
  538WAT     H2 1857   0.292   8.687   2.027
  539WAT      O 1858   1.679   8.207   7.069
  539WAT     H1 1859   1.708   8.119   7.031
  539WAT     H2 1860   1.738   8.232   7.146
  540WAT      O 1861   8.201   6.906   7.683
  540WAT     H1 1862   8.216   6.837   7.753
  540WAT     H2 1863   8.283   6.916   7.628
  541WAT      O 1864   6.730   6.283   5.003
  541WAT     H1 1865   6.810   6.277   4.942
  541WAT     H2 1866   6.747   6.229   5.085
  542WAT      O 1867   0.844   2.289   1.742
  542WAT     H1 1868   0.865   2.221   1.812
  542WAT     H2 1869   0.854   2.247   1.651
  543WAT      O 1870   2.956   4.058   4.807
  543WAT     H1 1871   3.041   4.064   4.754
  543WAT     H2 1872   2.904   4.143   4.798
  544WAT      O 1873   2.743   5.984   7.548
  544WAT     H1 1874   2.706   6.064   7.502
  544WAT     H2 1875   2.842   5.994   7.557
  545WAT      O 1876   9.409   2.961   2.454
  545WAT     H1 1877   9.417   2.877   2.401
  545WAT     H2 1878   9.312   2.985   2.466
  546WAT      O 1879   4.716   6.042   1.596
  546WAT     H1 1880   4.619   6.058   1.615
  546WAT     H2 1881   4.759   6.001   1.676
  547WAT      O 1882   3.073   2.499   4.671
  547WAT     H1 1883   3.169   2.471   4.670
  547WAT     H2 1884   3.058   2.563   4.745
  548WAT      O 1885   6.973   1.600   8.688
  548WAT     H1 1886   7.041   1.662   8.726
  548WAT     H2 1887   7.006   1.564   8.601
  549WAT      O 1888   3.560   3.868   8.418
  549WAT     H1 1889   3.546   3.786   8.362
  549WAT     H2 1890   3.651   3.905   8.400
  550WAT      O 1891   3.275   8.990   0.273
  550WAT     H1 1892   3.305   8.894   0.279
  550WAT     H2 1893   3.245   9.009   0.180
  551WAT      O 1894   9.802   2.285   7.515
  551WAT     H1 1895   9.874   2.305   7.581
  551WAT     H2 1896   9.842   2.247   7.432
  552WAT      O 1897   4.595   1.055   2.333
  552WAT     H1 1898   4.615   1.015   2.423
  552WAT     H2 1899   4.681   1.080   2.288
  553WAT      O 1900   9.185   1.270   8.674
  553WAT     H1 1901   9.258   1.245   8.738
  553WAT     H2 1902   9.132   1.345   8.712
  554WAT      O 1903   9.445   4.009   2.647
  554WAT     H1 1904   9.387   4.080   2.606
  554WAT     H2 1905   9.448   3.930   2.585
  555WAT      O 1906   6.577   9.072   8.941
  555WAT     H1 1907   6.637   9.020   8.880
  555WAT     H2 1908   6.491   9.092   8.894
  556WAT      O 1909   7.860   5.644   2.719
  556WAT     H1 1910   7.784   5.638   2.655
  556WAT     H2 1911   7.845   5.719   2.783
  557WAT      O 1912   1.767   2.788   2.700
  557WAT     H1 1913   1.677   2.825   2.674
  557WAT     H2 1914   1.790   2.820   2.792
  558WAT      O 1915   7.127   8.605   3.469
  558WAT     H1 1916   7.124   8.506   3.450
  558WAT     H2 1917   7.153   8.620   3.564
  559WAT      O 1918   6.439   2.278   8.005
  559WAT     H1 1919   6.412   2.373   8.022
  559WAT     H2 1920   6.538   2.270   8.005
  560WAT      O 1921   8.046   7.802   9.792
  560WAT     H1 1922   8.023   7.810   9.695
  560WAT     H2 1923   7.996   7.870   9.845
  561WAT      O 1924   0.512   0.550   7.929
  561WAT     H1 1925   0.503   0.539   7.830
  561WAT     H2 1926   0.424   0.580   7.968
  562WAT      O 1927   5.399   6.391   8.953
  562WAT     H1 1928   5.330   6.452   8.994
  562WAT     H2 1929   5.471   6.374   9.020
  563WAT      O 1930   4.554   0.619   9.237
  563WAT     H1 1931   4.458   0.647   9.237
  563WAT     H2 1932   4.604   0.671   9.306
  564WAT      O 1933   9.119   1.067   4.096
  564WAT     H1 1934   9.044   1.125   4.124
  564WAT     H2 1935   9.206   1.112   4.116
  565WAT      O 1936   5.697   0.718   1.770
  565WAT     H1 1937   5.764   0.735   1.698
  565WAT     H2 1938   5.610   0.760   1.744
  566WAT      O 1939   2.144   8.852   1.647
  566WAT     H1 1940   2.062   8.870   1.593
  566WAT     H2 1941   2.189   8.770   1.612
  567WAT      O 1942   3.019   1.558   7.484
  567WAT     H1 1943   3.059   1.554   7.393
  567WAT     H2 1944   2.971   1.473   7.504
  568WAT      O 1945   5.781   1.459   6.307
  568WAT     H1 1946   5.738   1.501   6.386
  568WAT     H2 1947   5.725   1.382   6.276
  569WAT      O 1948   1.207   2.106   9.874
  569WAT     H1 1949   1.231   2.203   9.875
  569WAT     H2 1950   1.236   2.064   9.788
  570WAT      O 1951   6.169   8.113   8.378
  570WAT     H1 1952   6.109   8.186   8.346
  570WAT     H2 1953   6.188   8.125   8.475
  571WAT      O 1954   1.653   3.173   9.387
  571WAT     H1 1955   1.695   3.101   9.332
  571WAT     H2 1956   1.712   3.194   9.465
  572WAT      O 1957   5.742   9.097   0.119
  572WAT     H1 1958   5.643   9.111   0.109
  572WAT     H2 1959   5.762   8.999   0.113
  573WAT      O 1960   1.132   3.722   8.803
  573WAT     H1 1961   1.147   3.688   8.711
  573WAT     H2 1962   1.035   3.715   8.827
  574WAT      O 1963   4.733   4.128   9.482
  574WAT     H1 1964   4.769   4.068   9.411
  574WAT     H2 1965   4.660   4.185   9.445
  575WAT      O 1966   4.888   4.366   6.017
  575WAT     H1 1967   4.864   4.293   5.953
  575WAT     H2 1968   4.852   4.453   5.984
  576WAT      O 1969   2.610   1.815   1.487
  576WAT     H1 1970   2.548   1.882   1.527
  576WAT     H2 1971   2.582   1.795   1.393
  577WAT      O 1972   5.310   1.819   5.477
  577WAT     H1 1973   5.372   1.812   5.555
  577WAT     H2 1974   5.229   1.763   5.493
  578WAT      O 1975   4.358   3.927   6.546
  578WAT     H1 1976   4.264   3.900   6.567
  578WAT     H2 1977   4.421   3.864   6.592
  579WAT      O 1978   5.017   8.044   4.284
  579WAT     H1 1979   5.066   8.103   4.219
  579WAT     H2 1980   5.069   8.037   4.369
  580WAT      O 1981   2.975   1.454   9.371
  580WAT     H1 1982   2.990   1.367   9.418
  580WAT     H2 1983   2.885   1.490   9.395
  581WAT      O 1984   0.249   5.693   4.352
  581WAT     H1 1985   0.228   5.705   4.449
  581WAT     H2 1986   0.164   5.686   4.301
  582WAT      O 1987   0.670   5.818   4.176
  582WAT     H1 1988   0.607   5.823   4.254
  582WAT     H2 1989   0.764   5.822   4.208
  583WAT      O 1990   3.998   7.322   5.992
  583WAT     H1 1991   3.965   7.379   5.917
  583WAT     H2 1992   3.964   7.228   5.981
  584WAT      O 1993   5.396   0.723   1.774
  584WAT     H1 1994   5.366   0.646   1.830
  584WAT     H2 1995   5.333   0.799   1.785
  585WAT      O 1996   3.233   2.329   7.666
  585WAT     H1 1997   3.256   2.285   7.579
  585WAT     H2 1998   3.135   2.322   7.682
  586WAT      O 1999   4.247   0.333   6.730
  586WAT     H1 2000   4.157   0.310   6.694
  586WAT     H2 2001   4.293   0.396   6.666
  587WAT      O 2002   6.067   6.041   4.646
  587WAT     H1 2003   6.020   6.009   4.564
  587WAT     H2 2004   6.062   6.141   4.651
  588WAT      O 2005   0.344   4.462   1.790
  588WAT     H1 2006   0.343   4.403   1.709
  588WAT     H2 2007   0.412   4.534   1.779
  589WAT      O 2008   2.357   0.320   5.504
  589WAT     H1 2009   2.439   0.342   5.557
  589WAT     H2 2010   2.360   0.224   5.476
  590WAT      O 2011   7.648   8.809   7.017
  590WAT     H1 2012   7.620   8.742   7.086
  590WAT     H2 2013   7.699   8.763   6.944
  591WAT      O 2014   8.711   2.473   6.702
  591WAT     H1 2015   8.772   2.479   6.781
  591WAT     H2 2016   8.760   2.430   6.626
  592WAT      O 2017   8.702   6.434   0.133
  592WAT     H1 2018   8.749   6.365   0.078
  592WAT     H2 2019   8.702   6.521   0.084
  593WAT      O 2020   7.405   0.305   9.743
  593WAT     H1 2021   7.311   0.314   9.776
  593WAT     H2 2022   7.432   0.390   9.696
  594WAT      O 2023   1.841   9.685   3.413
  594WAT     H1 2024   1.826   9.765   3.355
  594WAT     H2 2025   1.774   9.614   3.390
  595WAT      O 2026   1.801   4.462   3.861
  595WAT     H1 2027   1.889   4.414   3.853
  595WAT     H2 2028   1.771   4.490   3.770
  596WAT      O 2029   1.445   7.585   2.991
  596WAT     H1 2030   1.543   7.574   3.012
  596WAT     H2 2031   1.404   7.496   2.974
  597WAT      O 2032   3.997   2.484   7.092
  597WAT     H1 2033   3.909   2.529   7.104
  597WAT     H2 2034   4.058   2.509   7.168
  598WAT      O 2035   8.703   7.676   8.054
  598WAT     H1 2036   8.616   7.695   8.099
  598WAT     H2 2037   8.767   7.636   8.120
  599WAT      O 2038   1.123   2.712   4.597
  599WAT     H1 2039   1.065   2.745   4.672
  599WAT     H2 2040   1.154   2.790   4.543
  600WAT      O 2041   7.459   0.912   0.668
  600WAT     H1 2042   7.389   0.975   0.635
  600WAT     H2 2043   7.549   0.944   0.642
  601WAT      O 2044   9.291   7.857   2.841
  601WAT     H1 2045   9.255   7.885   2.752
  601WAT     H2 2046   9.345   7.932   2.880
  602WAT      O 2047   4.585   3.162   8.408
  602WAT     H1 2048   4.516   3.228   8.437
  602WAT     H2 2049   4.600   3.170   8.310
  603WAT      O 2050   6.636   1.857   3.390
  603WAT     H1 2051   6.579   1.846   3.309
  603WAT     H2 2052   6.611   1.789   3.459
  604WAT      O 2053   3.270   4.504   3.210
  604WAT     H1 2054   3.330   4.578   3.241
  604WAT     H2 2055   3.184   4.508   3.260
  605WAT      O 2056   4.520   9.388   3.599
  605WAT     H1 2057   4.424   9.405   3.578
  605WAT     H2 2058   4.536   9.402   3.697
  606WAT      O 2059   7.699   5.171   2.013
  606WAT     H1 2060   7.753   5.227   1.950
  606WAT     H2 2061   7.620   5.133   1.966
  607WAT      O 2062   1.660   2.178   4.468
  607WAT     H1 2063   1.694   2.089   4.498
  607WAT     H2 2064   1.718   2.213   4.394
  608WAT      O 2065   4.163   9.003   2.364
  608WAT     H1 2066   4.259   8.978   2.359
  608WAT     H2 2067   4.134   9.005   2.460
  609WAT      O 2068   3.452   6.005   0.718
  609WAT     H1 2069   3.423   5.910   0.714
  609WAT     H2 2070   3.529   6.019   0.657
  610WAT      O 2071   3.262   4.763   0.855
  610WAT     H1 2072   3.356   4.746   0.883
  610WAT     H2 2073   3.223   4.680   0.814
  611WAT      O 2074   3.655   1.211   3.148
  611WAT     H1 2075   3.682   1.305   3.168
  611WAT     H2 2076   3.679   1.153   3.226
  612WAT      O 2077   8.486   7.218   4.244
  612WAT     H1 2078   8.517   7.185   4.333
  612WAT     H2 2079   8.495   7.317   4.241
  613WAT      O 2080   7.270   5.735   9.500
  613WAT     H1 2081   7.343   5.799   9.475
  613WAT     H2 2082   7.193   5.786   9.538
  614WAT      O 2083   3.417   9.590   7.760
  614WAT     H1 2084   3.445   9.620   7.669
  614WAT     H2 2085   3.437   9.493   7.772
  615WAT      O 2086   4.472   2.842   9.389
  615WAT     H1 2087   4.474   2.925   9.445
  615WAT     H2 2088   4.416   2.857   9.308
  616WAT      O 2089   0.044   7.213   1.343
  616WAT     H1 2090  -0.047   7.172   1.341
  616WAT     H2 2091   0.045   7.287   1.411
  617WAT      O 2092   8.380   2.750   3.142
  617WAT     H1 2093   8.356   2.841   3.175
  617WAT     H2 2094   8.414   2.695   3.218
  618WAT      O 2095   3.793   5.186   4.344
  618WAT     H1 2096   3.825   5.107   4.397
  618WAT     H2 2097   3.787   5.266   4.403
  619WAT      O 2098   3.488   5.024   5.024
  619WAT     H1 2099   3.523   4.932   5.008
  619WAT     H2 2100   3.556   5.077   5.075
  620WAT      O 2101   8.980   1.482   2.112
  620WAT     H1 2102   8.910   1.531   2.164
  620WAT     H2 2103   8.997   1.392   2.153
  621WAT      O 2104   2.829   9.599   9.215
  621WAT     H1 2105   2.809   9.525   9.151
  621WAT     H2 2106   2.806   9.570   9.308
  622WAT      O 2107   0.725   3.403   3.054
  622WAT     H1 2108   0.711   3.380   2.958
  622WAT     H2 2109   0.813   3.449   3.065
  623WAT      O 2110   2.477   3.386   8.321
  623WAT     H1 2111   2.480   3.444   8.240
  623WAT     H2 2112   2.561   3.398   8.374
  624WAT      O 2113   2.760   6.203   3.421
  624WAT     H1 2114   2.806   6.160   3.343
  624WAT     H2 2115   2.736   6.132   3.487
  625WAT      O 2116   7.336   1.306   4.508
  625WAT     H1 2117   7.254   1.292   4.564
  625WAT     H2 2118   7.411   1.252   4.545
  626WAT      O 2119   8.454   0.506   0.684
  626WAT     H1 2120   8.500   0.581   0.730
  626WAT     H2 2121   8.507   0.478   0.604
  627WAT      O 2122   2.141   4.397   6.596
  627WAT     H1 2123   2.213   4.403   6.527
  627WAT     H2 2124   2.080   4.476   6.588
  628WAT      O 2125   5.268   2.418   5.372
  628WAT     H1 2126   5.220   2.407   5.285
  628WAT     H2 2127   5.304   2.330   5.402
  629WAT      O 2128   2.308   8.272   5.525
  629WAT     H1 2129   2.231   8.279   5.589
  629WAT     H2 2130   2.389   8.241   5.575
  630WAT      O 2131   9.740   5.797   6.450
  630WAT     H1 2132   9.734   5.823   6.353
  630WAT     H2 2133   9.650   5.769   6.483
  631WAT      O 2134   2.240   2.600   6.195
  631WAT     H1 2135   2.170   2.634   6.132
  631WAT     H2 2136   2.313   2.555   6.143
  632WAT      O 2137   1.445   4.150   3.350
  632WAT     H1 2138   1.491   4.069   3.385
  632WAT     H2 2139   1.394   4.125   3.267
  633WAT      O 2140   9.656   5.390   5.702
  633WAT     H1 2141   9.592   5.367   5.629
  633WAT     H2 2142   9.730   5.445   5.666
  634WAT      O 2143   7.305   8.831   6.990
  634WAT     H1 2144   7.343   8.757   7.046
  634WAT     H2 2145   7.275   8.906   7.050
  635WAT      O 2146   2.370   1.605   6.339
  635WAT     H1 2147   2.448   1.602   6.401
  635WAT     H2 2148   2.288   1.630   6.391
  636WAT      O 2149   4.851   8.416   4.599
  636WAT     H1 2150   4.911   8.412   4.679
  636WAT     H2 2151   4.806   8.506   4.596
  637WAT      O 2152   6.396   2.432   7.619
  637WAT     H1 2153   6.349   2.504   7.670
  637WAT     H2 2154   6.328   2.367   7.583
  638WAT      O 2155   7.445   1.408   5.866
  638WAT     H1 2156   7.354   1.442   5.840
  638WAT     H2 2157   7.495   1.482   5.912
  639WAT      O 2158   4.417   6.015   2.482
  639WAT     H1 2159   4.367   6.035   2.566
  639WAT     H2 2160   4.359   6.036   2.403
  640WAT      O 2161   3.599   6.539   8.669
  640WAT     H1 2162   3.583   6.567   8.763
  640WAT     H2 2163   3.682   6.483   8.664
  641WAT      O 2164   2.382   7.172   1.508
  641WAT     H1 2165   2.296   7.123   1.493
  641WAT     H2 2166   2.437   7.122   1.575
  642WAT      O 2167   5.171   0.334   8.840
  642WAT     H1 2168   5.208   0.312   8.749
  642WAT     H2 2169   5.110   0.261   8.869
  643WAT      O 2170   1.671   7.553   5.651
  643WAT     H1 2171   1.634   7.465   5.622
  643WAT     H2 2172   1.734   7.539   5.727
  644WAT      O 2173   2.647   4.412   4.089
  644WAT     H1 2174   2.663   4.354   4.169
  644WAT     H2 2175   2.581   4.483   4.112
  645WAT      O 2176   3.515   2.284   5.952
  645WAT     H1 2177   3.602   2.244   5.983
  645WAT     H2 2178   3.519   2.383   5.962
  646WAT      O 2179   4.837   3.631   0.838
  646WAT     H1 2180   4.739   3.642   0.821
  646WAT     H2 2181   4.878   3.582   0.761
  647WAT      O 2182   3.286   2.284   7.169
  647WAT     H1 2183   3.360   2.344   7.202
  647WAT     H2 2184   3.251   2.319   7.082
  648WAT      O 2185   8.876   4.044   0.477
  648WAT     H1 2186   8.803   4.107   0.503
  648WAT     H2 2187   8.853   3.952   0.508
  649WAT      O 2188   5.241   3.570   4.269
  649WAT     H1 2189   5.181   3.533   4.198
  649WAT     H2 2190   5.239   3.510   4.349
  650WAT      O 2191   2.391   9.570   5.971
  650WAT     H1 2192   2.406   9.619   6.057
  650WAT     H2 2193   2.433   9.479   5.977
  651WAT      O 2194   7.553   7.026   3.879
  651WAT     H1 2195   7.544   7.077   3.793
  651WAT     H2 2196   7.463   7.019   3.923
  652WAT      O 2197   4.752   8.674   2.812
  652WAT     H1 2198   4.712   8.603   2.755
  652WAT     H2 2199   4.748   8.646   2.908
  653WAT      O 2200   3.854   5.919   0.956
  653WAT     H1 2201   3.785   5.906   1.027
  653WAT     H2 2202   3.808   5.939   0.869
  654WAT      O 2203   2.199   9.080   7.767
  654WAT     H1 2204   2.158   9.170   7.750
  654WAT     H2 2205   2.193   9.058   7.864
  655WAT      O 2206   8.948   2.317   8.389
  655WAT     H1 2207   8.946   2.301   8.291
  655WAT     H2 2208   8.901   2.403   8.410
  656WAT      O 2209   6.527   0.923   8.933
  656WAT     H1 2210   6.493   0.980   9.008
  656WAT     H2 2211   6.605   0.870   8.965
  657WAT      O 2212   9.035   2.042   8.893
  657WAT     H1 2213   9.097   2.058   8.816
  657WAT     H2 2214   9.078   2.073   8.978
  658WAT      O 2215   9.323   5.944   4.346
  658WAT     H1 2216   9.333   6.030   4.395
  658WAT     H2 2217   9.313   5.869   4.412
  659WAT      O 2218   8.485   1.259   1.500
  659WAT     H1 2219   8.535   1.186   1.547
  659WAT     H2 2220   8.390   1.231   1.486
  660WAT      O 2221   7.241   1.887   6.899
  660WAT     H1 2222   7.289   1.968   6.865
  660WAT     H2 2223   7.289   1.805   6.869
  661WAT      O 2224   9.227   4.218   7.452
  661WAT     H1 2225   9.235   4.121   7.472
  661WAT     H2 2226   9.318   4.255   7.430
  662WAT      O 2227   4.320   7.103   0.214
  662WAT     H1 2228   4.412   7.142   0.214
  662WAT     H2 2229   4.258   7.161   0.267
  663WAT      O 2230   2.499   4.274   0.669
  663WAT     H1 2231   2.400   4.279   0.687
  663WAT     H2 2232   2.522   4.182   0.638
  664WAT      O 2233   4.232   3.089   4.869
  664WAT     H1 2234   4.156   3.149   4.844
  664WAT     H2 2235   4.222   3.061   4.965
  665WAT      O 2236   2.436   6.919   4.828
  665WAT     H1 2237   2.369   6.845   4.832
  665WAT     H2 2238   2.503   6.900   4.757
  666WAT      O 2239   3.187   9.600   1.986
  666WAT     H1 2240   3.166   9.632   2.078
  666WAT     H2 2241   3.117   9.632   1.923
  667WAT      O 2242   8.216   7.512   9.015
  667WAT     H1 2243   8.292   7.487   8.955
  667WAT     H2 2244   8.233   7.602   9.054
  668WAT      O 2245   3.724   4.049   1.274
  668WAT     H1 2246   3.781   3.975   1.308
  668WAT     H2 2247   3.749   4.134   1.320
  669WAT      O 2248   8.181   1.286   3.784
  669WAT     H1 2249   8.182   1.186   3.772
  669WAT     H2 2250   8.255   1.326   3.731
  670WAT      O 2251   1.359   6.219   5.929
  670WAT     H1 2252   1.304   6.147   5.886
  670WAT     H2 2253   1.408   6.181   6.007
  671WAT      O 2254   2.694   0.480   6.328
  671WAT     H1 2255   2.674   0.550   6.395
  671WAT     H2 2256   2.749   0.519   6.254
  672WAT      O 2257   0.733   2.241   3.411
  672WAT     H1 2258   0.772   2.286   3.330
  672WAT     H2 2259   0.805   2.189   3.458
  673WAT      O 2260   4.197   8.838   9.607
  673WAT     H1 2261   4.255   8.906   9.562
  673WAT     H2 2262   4.182   8.864   9.702
  674WAT      O 2263   4.422   8.585   5.663
  674WAT     H1 2264   4.406   8.657   5.596
  674WAT     H2 2265   4.368   8.604   5.746
  675WAT      O 2266   6.823   3.457   0.012
  675WAT     H1 2267   6.854   3.545  -0.022
  675WAT     H2 2268   6.751   3.422  -0.048
  676WAT      O 2269   2.198   6.755   4.932
  676WAT     H1 2270   2.196   6.676   4.870
  676WAT     H2 2271   2.231   6.726   5.022
  677WAT      O 2272   1.479   2.655   2.491
  677WAT     H1 2273   1.484   2.741   2.542
  677WAT     H2 2274   1.463   2.673   2.395
  678WAT      O 2275   8.059   4.548   2.949
  678WAT     H1 2276   7.996   4.510   3.017
  678WAT     H2 2277   8.099   4.474   2.895
  679WAT      O 2278   3.938   1.983   5.285
  679WAT     H1 2279   3.961   1.886   5.291
  679WAT     H2 2280   3.839   1.994   5.291
  680WAT      O 2281   4.490   9.630   6.742
  680WAT     H1 2282   4.560   9.623   6.671
  680WAT     H2 2283   4.534   9.624   6.832
  681WAT      O 2284   4.697   8.750   1.609
  681WAT     H1 2285   4.630   8.817   1.640
  681WAT     H2 2286   4.757   8.725   1.684
  682WAT      O 2287   5.446   7.378   2.838
  682WAT     H1 2288   5.536   7.354   2.801
  682WAT     H2 2289   5.376   7.361   2.769
  683WAT      O 2290   0.340   7.558   7.756
  683WAT     H1 2291   0.323   7.495   7.679
  683WAT     H2 2292   0.295   7.523   7.838
  684WAT      O 2293   2.261   7.478   7.681
  684WAT     H1 2294   2.268   7.478   7.780
  684WAT     H2 2295   2.348   7.450   7.641
  685WAT      O 2296   5.364   0.740   4.614
  685WAT     H1 2297   5.326   0.695   4.694
  685WAT     H2 2298   5.312   0.713   4.532
  686WAT      O 2299   2.576   1.782   7.583
  686WAT     H1 2300   2.491   1.792   7.531
  686WAT     H2 2301   2.641   1.852   7.552
  687WAT      O 2302   6.415   9.105   7.409
  687WAT     H1 2303   6.502   9.144   7.439
  687WAT     H2 2304   6.432   9.034   7.342
  688WAT      O 2305   7.961   5.816   5.093
  688WAT     H1 2306   7.877   5.770   5.065
  688WAT     H2 2307   7.989   5.881   5.022
  689WAT      O 2308   8.857   6.602   3.714
  689WAT     H1 2309   8.779   6.543   3.692
  689WAT     H2 2310   8.835   6.659   3.792
  690WAT      O 2311   8.065   9.132   8.769
  690WAT     H1 2312   8.043   9.226   8.795
  690WAT     H2 2313   7.981   9.083   8.746
  691WAT      O 2314   4.336   6.476   3.046
  691WAT     H1 2315   4.418   6.442   3.000
  691WAT     H2 2316   4.284   6.534   2.983
  692WAT      O 2317   3.188   2.021   0.590
  692WAT     H1 2318   3.212   1.979   0.677
  692WAT     H2 2319   3.272   2.038   0.537
  693WAT      O 2320   4.525   3.863   2.057
  693WAT     H1 2321   4.515   3.881   1.959
  693WAT     H2 2322   4.449   3.904   2.106
  694WAT      O 2323   0.645   6.102   9.488
  694WAT     H1 2324   0.566   6.040   9.497
  694WAT     H2 2325   0.690   6.085   9.400
  695WAT      O 2326   2.636   6.981   5.706
  695WAT     H1 2327   2.590   7.028   5.630
  695WAT     H2 2328   2.574   6.912   5.745
  696WAT      O 2329   6.333   5.540   8.673
  696WAT     H1 2330   6.284   5.579   8.595
  696WAT     H2 2331   6.430   5.530   8.650
  697WAT      O 2332   4.762   0.363   1.321
  697WAT     H1 2333   4.693   0.291   1.312
  697WAT     H2 2334   4.851   0.322   1.343
  698WAT      O 2335   1.943   9.268   5.882
  698WAT     H1 2336   2.024   9.218   5.914
  698WAT     H2 2337   1.878   9.204   5.842
  699WAT      O 2338   6.698   7.982   0.449
  699WAT     H1 2339   6.613   7.931   0.434
  699WAT     H2 2340   6.763   7.925   0.499
  700WAT      O 2341   9.725   4.236   4.202
  700WAT     H1 2342   9.777   4.180   4.266
  700WAT     H2 2343   9.723   4.330   4.236
  701WAT      O 2344   1.682   2.094   5.558
  701WAT     H1 2345   1.590   2.061   5.576
  701WAT     H2 2346   1.718   2.139   5.639
  702WAT      O 2347   0.342   2.187   5.143
  702WAT     H1 2348   0.442   2.191   5.140
  702WAT     H2 2349   0.311   2.097   5.111
  703WAT      O 2350   9.875   9.426   8.838
  703WAT     H1 2351   9.794   9.472   8.873
  703WAT     H2 2352   9.911   9.476   8.759
  704WAT      O 2353   4.321   5.838   6.120
  704WAT     H1 2354   4.265   5.852   6.201
  704WAT     H2 2355   4.417   5.859   6.141
  705WAT      O 2356   1.305   0.211   2.312
  705WAT     H1 2357   1.248   0.253   2.241
  705WAT     H2 2358   1.317   0.275   2.387
  706WAT      O 2359   3.976   2.459   2.984
  706WAT     H1 2360   3.906   2.508   3.035
  706WAT     H2 2361   3.933   2.409   2.908
  707WAT      O 2362   9.446   9.680   0.302
  707WAT     H1 2363   9.378   9.615   0.337
  707WAT     H2 2364   9.410   9.724   0.220
  708WAT      O 2365   2.604   6.808   4.408
  708WAT     H1 2366   2.529   6.776   4.351
  708WAT     H2 2367   2.596   6.766   4.499
  709WAT      O 2368   8.716   8.271   9.410
  709WAT     H1 2369   8.620   8.277   9.439
  709WAT     H2 2370   8.760   8.196   9.459
  710WAT      O 2371   4.268   3.826   1.783
  710WAT     H1 2372   4.241   3.804   1.689
  710WAT     H2 2373   4.363   3.859   1.784
  711WAT      O 2374   6.523   9.787   0.051
  711WAT     H1 2375   6.448   9.853   0.049
  711WAT     H2 2376   6.505   9.713  -0.014
  712WAT      O 2377   4.086   4.633   7.134
  712WAT     H1 2378   4.093   4.672   7.226
  712WAT     H2 2379   4.178   4.615   7.099
  713WAT      O 2380   6.235   4.654   5.717
  713WAT     H1 2381   6.213   4.605   5.802
  713WAT     H2 2382   6.174   4.731   5.705
  714WAT      O 2383   7.095   4.500   1.520
  714WAT     H1 2384   7.172   4.533   1.465
  714WAT     H2 2385   7.124   4.485   1.614
  715WAT      O 2386   6.718   3.018   0.252
  715WAT     H1 2387   6.739   3.043   0.346
  715WAT     H2 2388   6.626   2.978   0.248
  716WAT      O 2389   6.875   1.879   2.494
  716WAT     H1 2390   6.912   1.918   2.410
  716WAT     H2 2391   6.844   1.953   2.554
  717WAT      O 2392   7.731   0.638   7.723
  717WAT     H1 2393   7.631   0.643   7.730
  717WAT     H2 2394   7.771   0.674   7.807
  718WAT      O 2395   9.524   0.859   4.455
  718WAT     H1 2396   9.513   0.788   4.524
  718WAT     H2 2397   9.437   0.907   4.443
  719WAT      O 2398   5.061   7.660   8.974
  719WAT     H1 2399   5.031   7.565   8.969
  719WAT     H2 2400   4.982   7.718   8.996
  720WAT      O 2401   2.888   5.966   6.118
  720WAT     H1 2402   2.929   5.894   6.174
  720WAT     H2 2403   2.954   6.000   6.052
  721WAT      O 2404   6.690   4.692   8.816
  721WAT     H1 2405   6.753   4.759   8.776
  721WAT     H2 2406   6.701   4.693   8.916
  722WAT      O 2407   3.946   3.842   5.696
  722WAT     H1 2408   3.911   3.901   5.769
  722WAT     H2 2409   4.000   3.897   5.633
  723WAT      O 2410   2.793   8.111   9.753
  723WAT     H1 2411   2.723   8.067   9.809
  723WAT     H2 2412   2.871   8.136   9.811
  724WAT      O 2413   7.803   3.778   8.917
  724WAT     H1 2414   7.751   3.741   8.994
  724WAT     H2 2415   7.778   3.874   8.902
  725WAT      O 2416   6.801   9.091   3.895
  725WAT     H1 2417   6.861   9.166   3.865
  725WAT     H2 2418   6.835   9.053   3.981
  726WAT      O 2419   4.989   7.896   1.408
  726WAT     H1 2420   4.915   7.879   1.343
  726WAT     H2 2421   4.992   7.993   1.432
  727WAT      O 2422   8.353   0.003   7.805
  727WAT     H1 2423   8.419   0.025   7.877
  727WAT     H2 2424   8.358   0.073   7.734
  728WAT      O 2425   3.672   5.548   8.134
  728WAT     H1 2426   3.631   5.530   8.224
  728WAT     H2 2427   3.633   5.631   8.095
  729WAT      O 2428   9.469   8.930   2.869
  729WAT     H1 2429   9.419   8.884   2.796
  729WAT     H2 2430   9.550   8.876   2.893
  730WAT      O 2431   7.008   9.348   9.338
  730WAT     H1 2432   7.020   9.310   9.247
  730WAT     H2 2433   6.951   9.287   9.393
  731WAT      O 2434   3.663   3.198   0.528
  731WAT     H1 2435   3.577   3.203   0.478
  731WAT     H2 2436   3.665   3.113   0.581
  732WAT      O 2437   5.938   1.173   2.624
  732WAT     H1 2438   5.901   1.189   2.715
  732WAT     H2 2439   6.031   1.135   2.632
  733WAT      O 2440   7.438   6.028   6.981
  733WAT     H1 2441   7.509   6.060   7.044
  733WAT     H2 2442   7.453   5.931   6.959
  734WAT      O 2443   5.500   1.776   7.300
  734WAT     H1 2444   5.464   1.805   7.389
  734WAT     H2 2445   5.436   1.712   7.257
  735WAT      O 2446   9.837   8.521   4.989
  735WAT     H1 2447   9.840   8.524   5.089
  735WAT     H2 2448   9.784   8.599   4.955
  736WAT      O 2449   5.243   6.073   3.644
  736WAT     H1 2450   5.326   6.019   3.633
  736WAT     H2 2451   5.249   6.125   3.730
  737WAT      O 2452   3.481   6.423   9.103
  737WAT     H1 2453   3.407   6.388   9.161
  737WAT     H2 2454   3.564   6.369   9.119
  738WAT      O 2455   3.820   8.102   5.890
  738WAT     H1 2456   3.770   8.056   5.963
  738WAT     H2 2457   3.836   8.198   5.917
  739WAT      O 2458   0.884   9.759   4.671
  739WAT     H1 2459   0.964   9.715   4.630
  739WAT     H2 2460   0.885   9.857   4.651
  740WAT      O 2461   4.585   6.351   4.892
  740WAT     H1 2462   4.602   6.446   4.867
  740WAT     H2 2463   4.667   6.296   4.873
  741WAT      O 2464   8.184   6.931   1.208
  741WAT     H1 2465   8.116   6.861   1.231
  741WAT     H2 2466   8.168   6.963   1.115
  742WAT      O 2467   4.289   5.615   5.565
  742WAT     H1 2468   4.212   5.671   5.533
  742WAT     H2 2469   4.315   5.550   5.494
  743WAT      O 2470   4.848   4.992   8.941
  743WAT     H1 2471   4.864   5.075   8.888
  743WAT     H2 2472   4.875   5.007   9.036
  744WAT      O 2473   6.567   6.744   7.413
  744WAT     H1 2474   6.544   6.675   7.344
  744WAT     H2 2475   6.665   6.742   7.431
  745WAT      O 2476   5.540   4.955   8.525
  745WAT     H1 2477   5.560   5.051   8.544
  745WAT     H2 2478   5.519   4.908   8.611
  746WAT      O 2479   3.692   2.614   2.327
  746WAT     H1 2480   3.733   2.529   2.360
  746WAT     H2 2481   3.725   2.691   2.381
  747WAT      O 2482   0.856   7.811   7.374
  747WAT     H1 2483   0.845   7.771   7.283
  747WAT     H2 2484   0.953   7.811   7.399
  748WAT      O 2485   2.163   3.227   6.715
  748WAT     H1 2486   2.140   3.130   6.710
  748WAT     H2 2487   2.161   3.267   6.623
  749WAT      O 2488   6.635   5.887   3.996
  749WAT     H1 2489   6.626   5.917   3.901
  749WAT     H2 2490   6.701   5.812   4.000
  750WAT      O 2491   8.406   0.994   1.082
  750WAT     H1 2492   8.384   0.913   1.137
  750WAT     H2 2493   8.347   1.070   1.109
  751WAT      O 2494   3.788   7.158   6.909
  751WAT     H1 2495   3.803   7.132   7.005
  751WAT     H2 2496   3.810   7.255   6.897
  752WAT      O 2497   6.375   2.322   7.154
  752WAT     H1 2498   6.440   2.269   7.209
  752WAT     H2 2499   6.424   2.396   7.108
  753WAT      O 2500   6.741   9.273   3.548
  753WAT     H1 2501   6.704   9.362   3.576
  753WAT     H2 2502   6.666   9.210   3.528
  754WAT      O 2503   2.428   8.589   4.274
  754WAT     H1 2504   2.388   8.507   4.231
  754WAT     H2 2505   2.522   8.568   4.303
  755WAT      O 2506   4.349   1.658   8.046
  755WAT     H1 2507   4.345   1.707   8.133
  755WAT     H2 2508   4.265   1.604   8.035
  756WAT      O 2509   0.379   0.162   9.683
  756WAT     H1 2510   0.376   0.163   9.583
  756WAT     H2 2511   0.302   0.213   9.719
  757WAT      O 2512   4.228   8.910   8.416
  757WAT     H1 2513   4.267   9.002   8.414
  757WAT     H2 2514   4.283   8.852   8.476
  758WAT      O 2515   3.047   2.120   3.583
  758WAT     H1 2516   3.121   2.166   3.632
  758WAT     H2 2517   3.066   2.121   3.485
  759WAT      O 2518   4.010   0.434   6.480
  759WAT     H1 2519   3.926   0.467   6.436
  759WAT     H2 2520   4.089   0.473   6.434
  760WAT      O 2521   8.150   3.319   4.459
  760WAT     H1 2522   8.153   3.313   4.559
  760WAT     H2 2523   8.097   3.399   4.431
  761WAT      O 2524   2.887   0.362   1.700
  761WAT     H1 2525   2.870   0.373   1.602
  761WAT     H2 2526   2.880   0.265   1.724
  762WAT      O 2527   2.196   5.088   4.573
  762WAT     H1 2528   2.125   5.043   4.628
  762WAT     H2 2529   2.208   5.182   4.606
  763WAT      O 2530   1.528   4.839   8.907
  763WAT     H1 2531   1.604   4.895   8.874
  763WAT     H2 2532   1.560   4.781   8.982
  764WAT      O 2533   7.440   7.665   5.358
  764WAT     H1 2534   7.452   7.566   5.349
  764WAT     H2 2535   7.458   7.692   5.453
  765WAT      O 2536   4.344   7.688   0.249
  765WAT     H1 2537   4.320   7.647   0.161
  765WAT     H2 2538   4.404   7.766   0.235
  766WAT      O 2539   9.763   2.340   4.143
  766WAT     H1 2540   9.841   2.373   4.197
  766WAT     H2 2541   9.707   2.417   4.114
  767WAT      O 2542   4.599   7.650   7.144
  767WAT     H1 2543   4.679   7.595   7.121
  767WAT     H2 2544   4.628   7.741   7.175
  768WAT      O 2545   6.302   9.106   4.842
  768WAT     H1 2546   6.391   9.105   4.888
  768WAT     H2 2547   6.295   9.188   4.786
  769WAT      O 2548   8.131   8.557   4.460
  769WAT     H1 2549   8.194   8.578   4.385
  769WAT     H2 2550   8.131   8.459   4.477
  770WAT      O 2551   3.251   1.701   3.661
  770WAT     H1 2552   3.154   1.688   3.641
  770WAT     H2 2553   3.300   1.719   3.575
  771WAT      O 2554   1.801   4.575   4.145
  771WAT     H1 2555   1.714   4.623   4.132
  771WAT     H2 2556   1.787   4.493   4.200
  772WAT      O 2557   7.573   9.150   8.030
  772WAT     H1 2558   7.673   9.142   8.037
  772WAT     H2 2559   7.544   9.130   7.937
  773WAT      O 2560   7.710   5.523   0.375
  773WAT     H1 2561   7.754   5.581   0.307
  773WAT     H2 2562   7.653   5.455   0.330
  774WAT      O 2563   6.585   4.259   1.260
  774WAT     H1 2564   6.535   4.206   1.328
  774WAT     H2 2565   6.613   4.199   1.185
  775WAT      O 2566   3.824   5.014   9.610
  775WAT     H1 2567   3.898   4.976   9.554
  775WAT     H2 2568   3.790   5.098   9.567
  776WAT      O 2569   8.831   5.518   4.943
  776WAT     H1 2570   8.892   5.457   4.892
  776WAT     H2 2571   8.854   5.514   5.041
  777WAT      O 2572   6.571   1.825   8.347
  777WAT     H1 2573   6.641   1.841   8.417
  777WAT     H2 2574   6.503   1.761   8.383
  778WAT      O 2575   1.310   6.317   6.855
  778WAT     H1 2576   1.368   6.353   6.782
  778WAT     H2 2577   1.340   6.354   6.942
  779WAT      O 2578   3.196   0.945   1.308
  779WAT     H1 2579   3.213   0.848   1.329
  779WAT     H2 2580   3.191   0.957   1.209
  780WAT      O 2581   4.465   0.004   5.609
  780WAT     H1 2582   4.453   0.030   5.705
  780WAT     H2 2583   4.563  -0.008   5.590
  781WAT      O 2584   3.105   1.062   5.744
  781WAT     H1 2585   3.151   0.999   5.681
  781WAT     H2 2586   3.123   1.156   5.716
  782WAT      O 2587   5.013   4.052   0.239
  782WAT     H1 2588   5.070   3.995   0.298
  782WAT     H2 2589   4.917   4.034   0.258
  783WAT      O 2590   4.351   5.956   9.320
  783WAT     H1 2591   4.428   5.902   9.286
  783WAT     H2 2592   4.371   6.054   9.309
  784WAT      O 2593   1.005   7.879   9.033
  784WAT     H1 2594   0.999   7.974   9.001
  784WAT     H2 2595   1.005   7.878   9.133
  785WAT      O 2596   2.726   0.954   4.326
  785WAT     H1 2597   2.781   0.890   4.380
  785WAT     H2 2598   2.786   1.012   4.271
  786WAT      O 2599   0.830   7.662   1.372
  786WAT     H1 2600   0.736   7.696   1.376
  786WAT     H2 2601   0.830   7.569   1.334
  787WAT      O 2602   1.275   2.516   2.595
  787WAT     H1 2603   1.294   2.452   2.670
  787WAT     H2 2604   1.357   2.568   2.573
  788WAT      O 2605   4.628   3.534   2.254
  788WAT     H1 2606   4.618   3.564   2.159
  788WAT     H2 2607   4.599   3.608   2.315
  789WAT      O 2608   4.965   2.393   8.626
  789WAT     H1 2609   4.978   2.306   8.578
  789WAT     H2 2610   5.051   2.421   8.668
  790WAT      O 2611   9.318   5.782   3.535
  790WAT     H1 2612   9.241   5.836   3.570
  790WAT     H2 2613   9.304   5.765   3.438
  791WAT      O 2614   8.265   1.126   9.461
  791WAT     H1 2615   8.263   1.189   9.383
  791WAT     H2 2616   8.290   1.035   9.429
  792WAT      O 2617   1.480   8.761   5.978
  792WAT     H1 2618   1.462   8.854   5.944
  792WAT     H2 2619   1.414   8.739   6.050
  793WAT      O 2620   1.711   9.221   0.859
  793WAT     H1 2621   1.631   9.169   0.890
  793WAT     H2 2622   1.792   9.163   0.867
  794WAT      O 2623   4.200   1.916   4.874
  794WAT     H1 2624   4.149   1.836   4.906
  794WAT     H2 2625   4.298   1.893   4.868
  795WAT      O 2626   9.558   1.407   1.622
  795WAT     H1 2627   9.652   1.380   1.601
  795WAT     H2 2628   9.547   1.505   1.604
  796WAT      O 2629   0.447   3.061   6.957
  796WAT     H1 2630   0.490   2.994   7.017
  796WAT     H2 2631   0.355   3.029   6.932
  797WAT      O 2632   6.022   0.724   3.191
  797WAT     H1 2633   6.045   0.723   3.093
  797WAT     H2 2634   5.928   0.754   3.202
  798WAT      O 2635   1.324   8.109   3.514
  798WAT     H1 2636   1.407   8.158   3.541
  798WAT     H2 2637   1.350   8.022   3.470
  799WAT      O 2638   2.499   2.001   5.064
  799WAT     H1 2639   2.406   2.028   5.090
  799WAT     H2 2640   2.545   2.077   5.018
  800WAT      O 2641   3.844   7.773   2.506
  800WAT     H1 2642   3.825   7.842   2.436
  800WAT     H2 2643   3.939   7.743   2.498
  801WAT      O 2644   6.512   5.170   3.098
  801WAT     H1 2645   6.491   5.251   3.043
  801WAT     H2 2646   6.606   5.141   3.082
  802WAT      O 2647   2.731   3.383   8.506
  802WAT     H1 2648   2.661   3.395   8.576
  802WAT     H2 2649   2.814   3.432   8.535
  803WAT      O 2650   1.584   1.464   9.153
  803WAT     H1 2651   1.532   1.521   9.216
  803WAT     H2 2652   1.526   1.390   9.118
  804WAT      O 2653   0.865   8.177   6.123
  804WAT     H1 2654   0.911   8.096   6.161
  804WAT     H2 2655   0.783   8.148   6.075
  805WAT      O 2656   9.135   6.043   8.311
  805WAT     H1 2657   9.122   5.945   8.293
  805WAT     H2 2658   9.062   6.095   8.266
  806WAT      O 2659   9.610   5.435   9.705
  806WAT     H1 2660   9.512   5.430   9.720
  806WAT     H2 2661   9.630   5.438   9.607
  807WAT      O 2662   5.315   3.240   9.546
  807WAT     H1 2663   5.348   3.303   9.475
  807WAT     H2 2664   5.383   3.168   9.560
  808WAT      O 2665   8.704   7.482   8.789
  808WAT     H1 2666   8.789   7.528   8.763
  808WAT     H2 2667   8.651   7.461   8.707
  809WAT      O 2668   5.632   6.438   0.095
  809WAT     H1 2669   5.637   6.489   0.009
  809WAT     H2 2670   5.554   6.375   0.092
  810WAT      O 2671   8.627   3.503   1.407
  810WAT     H1 2672   8.684   3.494   1.489
  810WAT     H2 2673   8.533   3.524   1.433
  811WAT      O 2674   5.524   7.058   9.179
  811WAT     H1 2675   5.432   7.096   9.173
  811WAT     H2 2676   5.569   7.066   9.090
  812WAT      O 2677   8.558   1.128   0.603
  812WAT     H1 2678   8.530   1.063   0.674
  812WAT     H2 2679   8.616   1.081   0.536
  813WAT      O 2680   3.431   6.657   5.356
  813WAT     H1 2681   3.502   6.724   5.374
  813WAT     H2 2682   3.405   6.660   5.260
  814WAT      O 2683   4.509   8.796   9.873
  814WAT     H1 2684   4.558   8.769   9.956
  814WAT     H2 2685   4.557   8.761   9.793
  815WAT      O 2686   8.136   1.890   3.043
  815WAT     H1 2687   8.215   1.876   3.102
  815WAT     H2 2688   8.103   1.802   3.009
  816WAT      O 2689   8.962   0.585   0.050
  816WAT     H1 2690   8.930   0.632  -0.032
  816WAT     H2 2691   9.056   0.554   0.036
  817WAT      O 2692   6.213   7.940   3.299
  817WAT     H1 2693   6.193   7.865   3.362
  817WAT     H2 2694   6.162   7.927   3.214
  818WAT      O 2695   6.384   6.230   7.913
  818WAT     H1 2696   6.470   6.181   7.899
  818WAT     H2 2697   6.309   6.180   7.871
  819WAT      O 2698   2.856   3.508   8.851
  819WAT     H1 2699   2.912   3.574   8.801
  819WAT     H2 2700   2.906   3.422   8.859
  820WAT      O 2701   7.950   2.838   7.816
  820WAT     H1 2702   7.873   2.831   7.879
  820WAT     H2 2703   7.916   2.865   7.725
  821WAT      O 2704   4.508   5.543   6.686
  821WAT     H1 2705   4.414   5.548   6.652
  821WAT     H2 2706   4.570   5.520   6.611
  822WAT      O 2707   3.972   3.543   0.543
  822WAT     H1 2708   3.905   3.568   0.612
  822WAT     H2 2709   3.963   3.446   0.521
  823WAT      O 2710   5.258   4.704   7.520
  823WAT     H1 2711   5.237   4.780   7.458
  823WAT     H2 2712   5.315   4.637   7.472
  824WAT      O 2713   1.432   2.811   7.718
  824WAT     H1 2714   1.385   2.801   7.806
  824WAT     H2 2715   1.488   2.894   7.719
  825WAT      O 2716   3.582   0.437   9.808
  825WAT     H1 2717   3.586   0.524   9.857
  825WAT     H2 2718   3.507   0.439   9.741
  826WAT      O 2719   2.414   3.095   0.351
  826WAT     H1 2720   2.509   3.089   0.321
  826WAT     H2 2721   2.378   3.185   0.328
  827WAT      O 2722   0.852   0.568   9.713
  827WAT     H1 2723   0.827   0.472   9.725
  827WAT     H2 2724   0.870   0.586   9.617
  828WAT      O 2725   9.710   6.456   3.743
  828WAT     H1 2726   9.642   6.522   3.774
  828WAT     H2 2727   9.765   6.424   3.821
  829WAT      O 2728   6.387   3.995   1.695
  829WAT     H1 2729   6.412   3.984   1.598
  829WAT     H2 2730   6.415   4.086   1.726
  830WAT      O 2731   8.254   4.879   0.621
  830WAT     H1 2732   8.330   4.944   0.617
  830WAT     H2 2733   8.168   4.929   0.621
  831WAT      O 2734   1.150   6.475   4.197
  831WAT     H1 2735   1.115   6.420   4.273
  831WAT     H2 2736   1.090   6.553   4.182
  832WAT      O 2737   3.209   3.935   9.182
  832WAT     H1 2738   3.240   3.853   9.229
  832WAT     H2 2739   3.154   3.909   9.103
  833WAT      O 2740   5.574   4.372   3.961
  833WAT     H1 2741   5.550   4.469   3.963
  833WAT     H2 2742   5.571   4.334   4.053
  834WAT      O 2743   2.964   7.462   9.705
  834WAT     H1 2744   3.026   7.521   9.653
  834WAT     H2 2745   3.014   7.422   9.783
  835WAT      O 2746   5.199   7.316   2.097
  835WAT     H1 2747   5.164   7.231   2.058
  835WAT     H2 2748   5.298   7.312   2.105
  836WAT      O 2749   5.263   7.176   8.943
  836WAT     H1 2750   5.316   7.210   8.866
  836WAT     H2 2751   5.288   7.227   9.025
  837WAT      O 2752   2.112   8.121   9.756
  837WAT     H1 2753   2.079   8.211   9.727
  837WAT     H2 2754   2.155   8.128   9.846
  838WAT      O 2755   7.437   1.516   7.824
  838WAT     H1 2756   7.424   1.604   7.869
  838WAT     H2 2757   7.351   1.465   7.824
  839WAT      O 2758   5.511   4.753   2.530
  839WAT     H1 2759   5.497   4.794   2.621
  839WAT     H2 2760   5.495   4.823   2.460
  840WAT      O 2761   8.946   6.733   8.980
  840WAT     H1 2762   8.940   6.658   8.915
  840WAT     H2 2763   8.938   6.820   8.932
  841WAT      O 2764   0.749   5.472   0.163
  841WAT     H1 2765   0.664   5.458   0.212
  841WAT     H2 2766   0.757   5.568   0.136
  842WAT      O 2767   5.854   8.147   3.148
  842WAT     H1 2768   5.837   8.129   3.051
  842WAT     H2 2769   5.802   8.227   3.176
  843WAT      O 2770   7.219   8.117   8.137
  843WAT     H1 2771   7.225   8.136   8.039
  843WAT     H2 2772   7.160   8.185   8.181
  844WAT      O 2773   9.109   9.577   4.104
  844WAT     H1 2774   9.143   9.558   4.012
  844WAT     H2 2775   9.174   9.636   4.153
  845WAT      O 2776   0.916   5.068   2.665
  845WAT     H1 2777   0.929   5.072   2.566
  845WAT     H2 2778   0.932   4.975   2.698
  846WAT      O 2779   4.704   5.282   3.352
  846WAT     H1 2780   4.610   5.315   3.364
  846WAT     H2 2781   4.735   5.241   3.438
  847WAT      O 2782   8.461   9.237   9.113
  847WAT     H1 2783   8.380   9.214   9.060
  847WAT     H2 2784   8.514   9.154   9.131
  848WAT      O 2785   6.994   9.658   4.631
  848WAT     H1 2786   7.070   9.670   4.695
  848WAT     H2 2787   6.933   9.738   4.637
  849WAT      O 2788   1.047   9.534   7.635
  849WAT     H1 2789   1.042   9.597   7.713
  849WAT     H2 2790   1.010   9.445   7.662
  850WAT      O 2791   0.784   9.629   6.663
  850WAT     H1 2792   0.779   9.601   6.567
  850WAT     H2 2793   0.695   9.615   6.706
  851WAT      O 2794   6.585   2.518   9.431
  851WAT     H1 2795   6.595   2.419   9.440
  851WAT     H2 2796   6.662   2.564   9.477
  852WAT      O 2797   1.208   4.501   5.535
  852WAT     H1 2798   1.212   4.597   5.507
  852WAT     H2 2799   1.220   4.494   5.634
  853WAT      O 2800   5.331   3.328   0.902
  853WAT     H1 2801   5.406   3.389   0.926
  853WAT     H2 2802   5.315   3.332   0.803
  854WAT      O 2803   1.449   8.888   7.686
  854WAT     H1 2804   1.415   8.967   7.738
  854WAT     H2 2805   1.436   8.805   7.740
  855WAT      O 2806   7.190   8.863   9.748
  855WAT     H1 2807   7.090   8.858   9.745
  855WAT     H2 2808   7.228   8.771   9.749
  856WAT      O 2809   1.208   1.685   4.627
  856WAT     H1 2810   1.217   1.597   4.673
  856WAT     H2 2811   1.188   1.756   4.694
  857WAT      O 2812   7.761   4.157   5.474
  857WAT     H1 2813   7.688   4.225   5.464
  857WAT     H2 2814   7.774   4.111   5.386
  858WAT      O 2815   5.218   2.849   5.527
  858WAT     H1 2816   5.269   2.774   5.484
  858WAT     H2 2817   5.223   2.840   5.626
  859WAT      O 2818   5.095   2.849   3.215
  859WAT     H1 2819   5.047   2.853   3.127
  859WAT     H2 2820   5.032   2.869   3.289
  860WAT      O 2821   5.433   6.528   2.635
  860WAT     H1 2822   5.422   6.615   2.682
  860WAT     H2 2823   5.527   6.521   2.599
  861WAT      O 2824   3.099   3.277   0.419
  861WAT     H1 2825   3.159   3.200   0.435
  861WAT     H2 2826   3.147   3.347   0.366
  862WAT      O 2827   0.102   5.156   1.989
  862WAT     H1 2828   0.157   5.095   2.045
  862WAT     H2 2829   0.100   5.247   2.031
  863WAT      O 2830   9.548   3.747   4.964
  863WAT     H1 2831   9.452   3.719   4.963
  863WAT     H2 2832   9.566   3.806   5.043
  864WAT      O 2833   3.702   4.716   3.651
  864WAT     H1 2834   3.665   4.662   3.726
  864WAT     H2 2835   3.801   4.703   3.645
  865WAT      O 2836   0.220   8.886   4.309
  865WAT     H1 2837   0.290   8.849   4.247
  865WAT     H2 2838   0.204   8.821   4.383
  866WAT      O 2839   9.367   6.351   6.346
  866WAT     H1 2840   9.426   6.305   6.412
  866WAT     H2 2841   9.288   6.294   6.326
  867WAT      O 2842   8.451   5.076   0.591
  867WAT     H1 2843   8.539   5.123   0.604
  867WAT     H2 2844   8.376   5.139   0.612
  868WAT      O 2845   5.436   3.363   4.124
  868WAT     H1 2846   5.397   3.407   4.043
  868WAT     H2 2847   5.534   3.347   4.108
  869WAT      O 2848   0.466   5.010   5.009
  869WAT     H1 2849   0.451   4.951   5.089
  869WAT     H2 2850   0.561   5.042   5.009
  870WAT      O 2851   7.550   3.477   5.728
  870WAT     H1 2852   7.571   3.574   5.721
  870WAT     H2 2853   7.503   3.459   5.815
  871WAT      O 2854   7.189   5.974   8.059
  871WAT     H1 2855   7.119   6.000   8.125
  871WAT     H2 2856   7.266   5.932   8.107
  872WAT      O 2857   8.714   7.212   5.164
  872WAT     H1 2858   8.796   7.218   5.106
  872WAT     H2 2859   8.714   7.123   5.211
  873WAT      O 2860   9.081   3.541   5.806
  873WAT     H1 2861   8.988   3.548   5.771
  873WAT     H2 2862   9.088   3.462   5.867
  874WAT      O 2863   7.409   8.794   7.293
  874WAT     H1 2864   7.402   8.788   7.393
  874WAT     H2 2865   7.483   8.734   7.262
  875WAT      O 2866   8.675   8.662   5.886
  875WAT     H1 2867   8.697   8.580   5.833
  875WAT     H2 2868   8.589   8.701   5.853
  876WAT      O 2869   2.600   8.075   9.023
  876WAT     H1 2870   2.627   7.986   8.987
  876WAT     H2 2871   2.599   8.142   8.949
  877WAT      O 2872   5.810   9.002   3.030
  877WAT     H1 2873   5.725   9.041   3.065
  877WAT     H2 2874   5.882   9.012   3.099
  878WAT      O 2875   0.596   1.804   0.694
  878WAT     H1 2876   0.666   1.791   0.624
  878WAT     H2 2877   0.514   1.751   0.670
  879WAT      O 2878   0.132   2.159   1.072
  879WAT     H1 2879   0.144   2.228   1.001
  879WAT     H2 2880   0.156   2.069   1.036
  880WAT      O 2881   1.111   8.150   4.310
  880WAT     H1 2882   1.122   8.223   4.242
  880WAT     H2 2883   1.043   8.084   4.277
  881WAT      O 2884   6.245   0.735   3.579
  881WAT     H1 2885   6.339   0.724   3.611
  881WAT     H2 2886   6.188   0.664   3.619
  882WAT      O 2887   8.350   1.912   3.234
  882WAT     H1 2888   8.332   1.991   3.293
  882WAT     H2 2889   8.437   1.925   3.187
  883WAT      O 2890   2.255   1.877   5.642
  883WAT     H1 2891   2.195   1.797   5.630
  883WAT     H2 2892   2.254   1.931   5.558
  884WAT      O 2893   4.568   9.643   2.343
  884WAT     H1 2894   4.499   9.572   2.329
  884WAT     H2 2895   4.604   9.672   2.255
  885WAT      O 2896   8.650   5.798   4.608
  885WAT     H1 2897   8.622   5.705   4.584
  885WAT     H2 2898   8.721   5.794   4.679
  886WAT      O 2899   2.702   7.829   1.918
  886WAT     H1 2900   2.664   7.915   1.881
  886WAT     H2 2901   2.681   7.823   2.015
  887WAT      O 2902   2.730   8.793   0.667
  887WAT     H1 2903   2.695   8.766   0.578
  887WAT     H2 2904   2.688   8.736   0.738
  888WAT      O 2905   9.060   4.764   2.227
  888WAT     H1 2906   9.098   4.736   2.315
  888WAT     H2 2907   9.064   4.686   2.163
  889WAT      O 2908   9.250   5.200   8.158
  889WAT     H1 2909   9.316   5.256   8.109
  889WAT     H2 2910   9.291   5.111   8.180
  890WAT      O 2911   7.504   0.188   1.266
  890WAT     H1 2912   7.531   0.118   1.200
  890WAT     H2 2913   7.472   0.269   1.217
  891WAT      O 2914   7.347   1.044   5.068
  891WAT     H1 2915   7.419   1.113   5.068
  891WAT     H2 2916   7.372   0.970   5.005
  892WAT      O 2917   8.563   7.366   2.449
  892WAT     H1 2918   8.644   7.312   2.471
  892WAT     H2 2919   8.534   7.347   2.356
  893WAT      O 2920   7.644   0.931   9.807
  893WAT     H1 2921   7.712   0.881   9.861
  893WAT     H2 2922   7.646   0.899   9.713
  894WAT      O 2923   8.340   7.743   7.049
  894WAT     H1 2924   8.255   7.769   7.094
  894WAT     H2 2925   8.370   7.816   6.988
  895WAT      O 2926   0.858   5.519   3.466
  895WAT     H1 2927   0.841   5.578   3.545
  895WAT     H2 2928   0.956   5.501   3.458
  896WAT      O 2929   2.774   9.434   2.874
  896WAT     H1 2930   2.773   9.442   2.774
  896WAT     H2 2931   2.685   9.461   2.910
  897WAT      O 2932   9.129   1.959   3.096
  897WAT     H1 2933   9.121   1.992   3.191
  897WAT     H2 2934   9.042   1.918   3.068
  898WAT      O 2935   9.115   6.303   5.451
  898WAT     H1 2936   9.193   6.351   5.411
  898WAT     H2 2937   9.032   6.357   5.436
  899WAT      O 2938   7.788   6.098   4.869
  899WAT     H1 2939   7.849   6.175   4.889
  899WAT     H2 2940   7.699   6.133   4.839
  900WAT      O 2941   0.702   6.783   0.082
  900WAT     H1 2942   0.663   6.724   0.154
  900WAT     H2 2943   0.736   6.726   0.007
  901WAT      O 2944   1.363   5.762   4.765
  901WAT     H1 2945   1.371   5.664   4.782
  901WAT     H2 2946   1.387   5.812   4.848
  902WAT      O 2947   3.486   8.350   5.635
  902WAT     H1 2948   3.444   8.348   5.544
  902WAT     H2 2949   3.475   8.261   5.679
  903WAT      O 2950   1.714   0.902   1.245
  903WAT     H1 2951   1.722   0.829   1.177
  903WAT     H2 2952   1.620   0.906   1.278
  904WAT      O 2953   6.182   8.870   1.423
  904WAT     H1 2954   6.147   8.850   1.514
  904WAT     H2 2955   6.170   8.967   1.403
  905WAT      O 2956   3.263   9.519   2.445
  905WAT     H1 2957   3.256   9.436   2.500
  905WAT     H2 2958   3.334   9.578   2.482
  906WAT      O 2959   7.264   5.799   5.564
  906WAT     H1 2960   7.331   5.799   5.639
  906WAT     H2 2961   7.172   5.792   5.603
  907WAT      O 2962   6.232   0.261   1.194
  907WAT     H1 2963   6.137   0.230   1.200
  907WAT     H2 2964   6.247   0.309   1.108
  908WAT      O 2965   2.169   2.681   2.375
  908WAT     H1 2966   2.088   2.691   2.432
  908WAT     H2 2967   2.165   2.593   2.327
  909WAT      O 2968   0.414   5.930   8.877
  909WAT     H1 2969   0.362   5.949   8.794
  909WAT     H2 2970   0.507   5.968   8.868
  910WAT      O 2971   1.873   7.661   6.808
  910WAT     H1 2972   1.921   7.731   6.860
  910WAT     H2 2973   1.927   7.637   6.727
  911WAT      O 2974   4.235   2.788   2.039
  911WAT     H1 2975   4.296   2.860   2.006
  911WAT     H2 2976   4.289   2.710   2.071
  912WAT      O 2977   0.890   0.606   7.317
  912WAT     H1 2978   0.837   0.647   7.392
  912WAT     H2 2979   0.845   0.522   7.287
  913WAT      O 2980   4.325   7.970   3.506
  913WAT     H1 2981   4.392   8.020   3.561
  913WAT     H2 2982   4.240   7.962   3.558
  914WAT      O 2983   2.722   6.574   5.956
  914WAT     H1 2984   2.708   6.479   5.927
  914WAT     H2 2985   2.689   6.636   5.884
  915WAT      O 2986   9.280   5.779   8.283
  915WAT     H1 2987   9.326   5.690   8.277
  915WAT     H2 2988   9.232   5.797   8.197
  916WAT      O 2989   7.312   2.323   7.268
  916WAT     H1 2990   7.225   2.274   7.273
  916WAT     H2 2991   7.310   2.403   7.328
  917WAT      O 2992   3.648   0.176   8.822
  917WAT     H1 2993   3.561   0.166   8.872
  917WAT     H2 2994   3.719   0.125   8.870
  918WAT      O 2995   8.917   5.001   8.774
  918WAT     H1 2996   8.969   5.080   8.741
  918WAT     H2 2997   8.980   4.933   8.812
  919WAT      O 2998   2.936   4.907   5.606
  919WAT     H1 2999   2.891   4.991   5.639
  919WAT     H2 3000   2.870   4.832   5.605
  920WAT      O 3001   8.775   1.935   9.308
  920WAT     H1 3002   8.869   1.965   9.293
  920WAT     H2 3003   8.721   1.956   9.226
  921WAT      O 3004   6.625   4.848   8.016
  921WAT     H1 3005   6.714   4.892   8.003
  921WAT     H2 3006   6.558   4.891   7.956
  922WAT      O 3007   7.841   8.323   3.407
  922WAT     H1 3008   7.851   8.389   3.482
  922WAT     H2 3009   7.745   8.294   3.400
  923WAT      O 3010   4.766   2.185   7.999
  923WAT     H1 3011   4.796   2.091   7.985
  923WAT     H2 3012   4.786   2.239   7.917
  924WAT      O 3013   8.155   4.557   4.302
  924WAT     H1 3014   8.067   4.521   4.335
  924WAT     H2 3015   8.169   4.648   4.339
  925WAT      O 3016   8.445   6.359   0.173
  925WAT     H1 3017   8.535   6.403   0.169
  925WAT     H2 3018   8.451   6.266   0.138
  926WAT      O 3019   7.731   6.995   3.117
  926WAT     H1 3020   7.775   6.957   3.036
  926WAT     H2 3021   7.721   7.094   3.105
  927WAT      O 3022   6.545   6.119   5.803
  927WAT     H1 3023   6.595   6.036   5.779
  927WAT     H2 3024   6.448   6.098   5.815
  928WAT      O 3025   0.510   6.336   0.172
  928WAT     H1 3026   0.473   6.290   0.253
  928WAT     H2 3027   0.530   6.268   0.101
  929WAT      O 3028   8.253   4.932   8.331
  929WAT     H1 3029   8.332   4.871   8.330
  929WAT     H2 3030   8.248   4.982   8.244
  930WAT      O 3031   0.794   6.893   7.784
  930WAT     H1 3032   0.738   6.864   7.861
  930WAT     H2 3033   0.781   6.829   7.708
  931WAT      O 3034   8.253   6.928   8.568
  931WAT     H1 3035   8.325   6.989   8.537
  931WAT     H2 3036   8.288   6.871   8.643
  932WAT      O 3037   4.207   1.532   1.705
  932WAT     H1 3038   4.198   1.504   1.801
  932WAT     H2 3039   4.125   1.507   1.655
  933WAT      O 3040   6.823   1.129   4.638
  933WAT     H1 3041   6.821   1.034   4.608
  933WAT     H2 3042   6.771   1.186   4.574
  934WAT      O 3043   5.639   0.320   8.780
  934WAT     H1 3044   5.603   0.363   8.697
  934WAT     H2 3045   5.574   0.332   8.854
  935WAT      O 3046   1.237   5.091   2.145
  935WAT     H1 3047   1.325   5.058   2.109
  935WAT     H2 3048   1.177   5.013   2.161
  936WAT      O 3049   5.645   7.609   7.456
  936WAT     H1 3050   5.741   7.600   7.430
  936WAT     H2 3051   5.624   7.545   7.530
  937WAT      O 3052   8.909   7.862   0.308
  937WAT     H1 3053   8.820   7.907   0.301
  937WAT     H2 3054   8.977   7.914   0.255
  938WAT      O 3055   2.300   3.570   8.671
  938WAT     H1 3056   2.252   3.620   8.743
  938WAT     H2 3057   2.240   3.561   8.591
  939WAT      O 3058   8.860   3.514   9.391
  939WAT     H1 3059   8.835   3.459   9.312
  939WAT     H2 3060   8.915   3.459   9.454
  940WAT      O 3061   2.420   3.820   4.405
  940WAT     H1 3062   2.419   3.765   4.321
  940WAT     H2 3063   2.483   3.896   4.394
  941WAT      O 3064   1.528   4.027   5.849
  941WAT     H1 3065   1.606   3.972   5.819
  941WAT     H2 3066   1.554   4.081   5.929
  942WAT      O 3067   8.123   0.296   9.554
  942WAT     H1 3068   8.206   0.346   9.578
  942WAT     H2 3069   8.148   0.205   9.522
  943WAT      O 3070   9.540   3.388   5.982
  943WAT     H1 3071   9.495   3.390   6.072
  943WAT     H2 3072   9.476   3.417   5.912
  944WAT      O 3073   0.741   3.902   0.490
  944WAT     H1 3074   0.803   3.977   0.467
  944WAT     H2 3075   0.777   3.852   0.568
  945WAT      O 3076   6.382   4.375   8.259
  945WAT     H1 3077   6.461   4.396   8.316
  945WAT     H2 3078   6.378   4.440   8.183
  946WAT      O 3079   6.710   9.726   4.443
  946WAT     H1 3080   6.623   9.767   4.469
  946WAT     H2 3081   6.707   9.627   4.459
  947WAT      O 3082   6.172   5.653   6.665
  947WAT     H1 3083   6.118   5.736   6.680
  947WAT     H2 3084   6.185   5.606   6.753
  948WAT      O 3085   1.628   1.991   4.080
  948WAT     H1 3086   1.703   1.950   4.131
  948WAT     H2 3087   1.620   1.946   3.991
  949WAT      O 3088   8.165   2.107   7.610
  949WAT     H1 3089   8.188   2.168   7.685
  949WAT     H2 3090   8.248   2.078   7.563
  950WAT      O 3091   0.010   1.674   4.246
  950WAT     H1 3092   0.080   1.736   4.211
  950WAT     H2 3093   0.054   1.601   4.298
  951WAT      O 3094   2.923   7.579   5.425
  951WAT     H1 3095   3.020   7.601   5.423
  951WAT     H2 3096   2.910   7.481   5.409
  952WAT      O 3097   6.857   8.347   0.958
  952WAT     H1 3098   6.785   8.406   0.993
  952WAT     H2 3099   6.820   8.286   0.888
  953WAT      O 3100   5.439   9.678   5.471
  953WAT     H1 3101   5.465   9.774   5.464
  953WAT     H2 3102   5.501   9.623   5.416
  954WAT      O 3103   1.963   0.353   7.917
  954WAT     H1 3104   1.875   0.323   7.881
  954WAT     H2 3105   1.996   0.287   7.984
  955WAT      O 3106   7.785   8.283   5.337
  955WAT     H1 3107   7.693   8.254   5.309
  955WAT     H2 3108   7.849   8.208   5.325
  956WAT      O 3109   1.616   6.322   1.183
  956WAT     H1 3110   1.569   6.272   1.256
  956WAT     H2 3111   1.707   6.348   1.213
  957WAT      O 3112   8.975   5.202   0.475
  957WAT     H1 3113   9.068   5.176   0.502
  957WAT     H2 3114   8.967   5.301   0.472
  958WAT      O 3115   3.591   2.303   6.708
  958WAT     H1 3116   3.643   2.331   6.788
  958WAT     H2 3117   3.648   2.312   6.626
  959WAT      O 3118   2.255   9.094   3.858
  959WAT     H1 3119   2.180   9.102   3.923
  959WAT     H2 3120   2.340   9.076   3.907
  960WAT      O 3121   4.690   2.654   7.989
  960WAT     H1 3122   4.703   2.576   8.050
  960WAT     H2 3123   4.608   2.639   7.933
  961WAT      O 3124   9.597   1.927   4.557
  961WAT     H1 3125   9.537   1.941   4.479
  961WAT     H2 3126   9.578   1.995   4.627
  962WAT      O 3127   1.611   4.946   6.522
  962WAT     H1 3128   1.614   5.005   6.602
  962WAT     H2 3129   1.521   4.902   6.515
  963WAT      O 3130   3.040   8.746   6.449
  963WAT     H1 3131   3.095   8.664   6.462
  963WAT     H2 3132   3.098   8.827   6.459
  964WAT      O 3133   2.747   4.424   3.275
  964WAT     H1 3134   2.798   4.367   3.339
  964WAT     H2 3135   2.649   4.407   3.286
  965WAT      O 3136   9.093   4.480   2.883
  965WAT     H1 3137   9.182   4.469   2.840
  965WAT     H2 3138   9.036   4.401   2.862
  966WAT      O 3139   8.382   6.494   9.024
  966WAT     H1 3140   8.458   6.559   9.033
  966WAT     H2 3141   8.300   6.543   8.996
  967WAT      O 3142   4.907   4.839   7.645
  967WAT     H1 3143   4.817   4.811   7.613
  967WAT     H2 3144   4.897   4.899   7.724
  968WAT      O 3145   4.573   0.088   3.109
  968WAT     H1 3146   4.566   0.119   3.015
  968WAT     H2 3147   4.639   0.012   3.115
  969WAT      O 3148   6.937   5.322   8.753
  969WAT     H1 3149   6.877   5.243   8.745
  969WAT     H2 3150   7.030   5.296   8.725
  970WAT      O 3151   1.989   9.584   0.523
  970WAT     H1 3152   1.922   9.567   0.595
  970WAT     H2 3153   2.076   9.542   0.547
  971WAT      O 3154   6.588   1.623   6.237
  971WAT     H1 3155   6.650   1.681   6.183
  971WAT     H2 3156   6.586   1.656   6.332
  972WAT      O 3157   3.472   3.681   6.052
  972WAT     H1 3158   3.526   3.765   6.065
  972WAT     H2 3159   3.400   3.677   6.121
  973WAT      O 3160   5.294   5.232   1.411
  973WAT     H1 3161   5.392   5.224   1.394
  973WAT     H2 3162   5.267   5.166   1.481
  974WAT      O 3163   3.817   8.270   6.596
  974WAT     H1 3164   3.837   8.175   6.619
  974WAT     H2 3165   3.845   8.329   6.671
  975WAT      O 3166   0.745   4.833   4.485
  975WAT     H1 3167   0.657   4.876   4.507
  975WAT     H2 3168   0.811   4.905   4.461
  976WAT      O 3169   9.352   1.279   1.773
  976WAT     H1 3170   9.289   1.335   1.718
  976WAT     H2 3171   9.446   1.306   1.752
  977WAT      O 3172   8.599   7.946   3.325
  977WAT     H1 3173   8.577   8.037   3.290
  977WAT     H2 3174   8.639   7.954   3.416
  978WAT      O 3175   9.753   1.929   8.771
  978WAT     H1 3176   9.705   1.886   8.694
  978WAT     H2 3177   9.691   1.991   8.818
  979WAT      O 3178   9.734   8.715   8.492
  979WAT     H1 3179   9.816   8.771   8.509
  979WAT     H2 3180   9.760   8.630   8.447
  980WAT      O 3181   9.702   8.337   6.595
  980WAT     H1 3182   9.677   8.370   6.686
  980WAT     H2 3183   9.630   8.278   6.560
  981WAT      O 3184   7.552   3.168   2.383
  981WAT     H1 3185   7.465   3.126   2.408
  981WAT     H2 3186   7.596   3.114   2.310
  982WAT      O 3187   3.157   3.812   4.489
  982WAT     H1 3188   3.150   3.897   4.540
  982WAT     H2 3189   3.094   3.745   4.528
  983WAT      O 3190   6.445   3.344   5.345
  983WAT     H1 3191   6.431   3.434   5.303
  983WAT     H2 3192   6.435   3.352   5.444
  984WAT      O 3193   7.660   4.999   3.382
  984WAT     H1 3194   7.697   5.076   3.433
  984WAT     H2 3195   7.685   5.007   3.286
  985WAT      O 3196   8.717   8.538   6.440
  985WAT     H1 3197   8.712   8.492   6.351
  985WAT     H2 3198   8.650   8.612   6.442
  986WAT      O 3199   6.864   0.405   0.688
  986WAT     H1 3200   6.778   0.380   0.643
  986WAT     H2 3201   6.903   0.324   0.732
  987WAT      O 3202   5.398   1.363   0.781
  987WAT     H1 3203   5.307   1.336   0.812
  987WAT     H2 3204   5.405   1.349   0.682
  988WAT      O 3205   7.306   4.929   3.575
  988WAT     H1 3206   7.342   4.837   3.590
  988WAT     H2 3207   7.319   4.984   3.658
  989WAT      O 3208   5.169   0.869   0.218
  989WAT     H1 3209   5.263   0.841   0.199
  989WAT     H2 3210   5.159   0.888   0.316
  990WAT      O 3211   5.157   5.486   1.406
  990WAT     H1 3212   5.106   5.502   1.321
  990WAT     H2 3213   5.209   5.401   1.398
  991WAT      O 3214   8.468   0.952   3.357
  991WAT     H1 3215   8.440   1.045   3.383
  991WAT     H2 3216   8.563   0.955   3.323
  992WAT      O 3217   9.869   2.584   0.033
  992WAT     H1 3218   9.862   2.494  -0.009
  992WAT     H2 3219   9.804   2.647  -0.010
  993WAT      O 3220   2.999   3.205   1.251
  993WAT     H1 3221   3.051   3.119   1.249
  993WAT     H2 3222   2.923   3.199   1.187
  994WAT      O 3223   3.648   2.812   1.268
  994WAT     H1 3224   3.710   2.813   1.347
  994WAT     H2 3225   3.677   2.881   1.203
  995WAT      O 3226   7.634   8.184   4.747
  995WAT     H1 3227   7.570   8.144   4.813
  995WAT     H2 3228   7.586   8.205   4.662
  996WAT      O 3229   2.275   7.429   6.071
  996WAT     H1 3230   2.335   7.400   6.146
  996WAT     H2 3231   2.303   7.520   6.039
  997WAT      O 3232   3.604   4.117   6.760
  997WAT     H1 3233   3.620   4.184   6.833
  997WAT     H2 3234   3.678   4.050   6.759
  998WAT      O 3235   8.648   0.216   9.581
  998WAT     H1 3236   8.608   0.173   9.500
  998WAT     H2 3237   8.674   0.310   9.559
  999WAT      O 3238   4.505   5.957   6.499
  999WAT     H1 3239   4.417   5.988   6.464
  999WAT     H2 3240   4.579   6.003   6.450
 1000WAT      O 3241   6.731   6.785   7.929
 1000WAT     H1 3242   6.699   6.873   7.893
 1000WAT     H2 3243   6.816   6.759   7.881
 1001WAT      O 3244   0.751   7.310   9.023
 1001WAT     H1 3245   0.819   7.348   9.087
 1001WAT     H2 3246   0.735   7.375   8.949
 1002WAT      O 3247   3.243   3.351   5.240
 1002WAT     H1 3248   3.158   3.366   5.290
 1002WAT     H2 3249   3.311   3.310   5.301
 1003WAT      O 3250   7.247   0.267   1.019
 1003WAT     H1 3251   7.237   0.189   1.081
 1003WAT     H2 3252   7.294   0.341   1.066
 1004WAT      O 3253   4.171   3.143   7.212
 1004WAT     H1 3254   4.196   3.183   7.123
 1004WAT     H2 3255   4.249   3.150   7.274
 1005WAT      O 3256   8.382   0.478   9.261
 1005WAT     H1 3257   8.468   0.529   9.260
 1005WAT     H2 3258   8.401   0.380   9.257
 1006WAT      O 3259   4.812   0.466   8.726
 1006WAT     H1 3260   4.717   0.489   8.702
 1006WAT     H2 3261   4.869   0.469   8.644
 1007WAT      O 3262   4.374   6.169   4.812
 1007WAT     H1 3263   4.438   6.245   4.826
 1007WAT     H2 3264   4.416   6.084   4.845
 1008WAT      O 3265   4.845   2.027   6.148
 1008WAT     H1 3266   4.792   2.053   6.067
 1008WAT     H2 3267   4.821   1.934   6.175
 1009WAT      O 3268   1.243   5.184   7.643
 1009WAT     H1 3269   1.330   5.162   7.687
 1009WAT     H2 3270   1.214   5.276   7.668
 1010WAT      O 3271   2.390   5.339   3.118
 1010WAT     H1 3272   2.418   5.254   3.073
 1010WAT     H2 3273   2.303   5.324   3.166
 1011WAT      O 3274   5.313   6.138   3.088
 1011WAT     H1 3275   5.410   6.160   3.092
 1011WAT     H2 3276   5.289   6.081   3.167
 1012WAT      O 3277   4.599   4.769   2.749
 1012WAT     H1 3278   4.645   4.736   2.832
 1012WAT     H2 3279   4.647   4.850   2.715
 1013WAT      O 3280   0.619   8.692   6.725
 1013WAT     H1 3281   0.612   8.727   6.818
 1013WAT     H2 3282   0.530   8.656   6.696
 1014WAT      O 3283   7.678   2.987   4.576
 1014WAT     H1 3284   7.600   2.991   4.638
 1014WAT     H2 3285   7.760   2.962   4.627
 1015WAT      O 3286   5.098   3.420   3.732
 1015WAT     H1 3287   5.119   3.442   3.637
 1015WAT     H2 3288   5.035   3.342   3.735
 1016WAT      O 3289   1.652   7.168   8.592
 1016WAT     H1 3290   1.726   7.138   8.652
 1016WAT     H2 3291   1.690   7.198   8.504
 1017WAT      O 3292   4.262   0.966   2.414
 1017WAT     H1 3293   4.271   1.060   2.447
 1017WAT     H2 3294   4.234   0.907   2.491
 1018WAT      O 3295   2.931   7.431   8.443
 1018WAT     H1 3296   2.862   7.361   8.428
 1018WAT     H2 3297   2.935   7.452   8.541
 1019WAT      O 3298   7.953   9.324   1.000
 1019WAT     H1 3299   8.042   9.351   1.036
 1019WAT     H2 3300   7.951   9.226   0.984
 1020WAT      O 3301   6.331   2.815   0.958
 1020WAT     H1 3302   6.352   2.898   0.907
 1020WAT     H2 3303   6.296   2.840   1.049
 1021WAT      O 3304   8.169   0.914   8.295
 1021WAT     H1 3305   8.109   0.835   8.283
 1021WAT     H2 3306   8.126   0.980   8.357
 1022WAT      O 3307   6.858   4.569   0.958
 1022WAT     H1 3308   6.810   4.530   1.037
 1022WAT     H2 3309   6.923   4.638   0.988
 1023WAT      O 3310   0.642   6.762   5.535
 1023WAT     H1 3311   0.585   6.756   5.617
 1023WAT     H2 3312   0.584   6.789   5.457
 1024WAT      O 3313   2.268   6.161   9.874
 1024WAT     H1 3314   2.229   6.205   9.954
 1024WAT     H2 3315   2.332   6.089   9.903
 1025WAT      O 3316   0.802   5.304   5.816
 1025WAT     H1 3317   0.898   5.320   5.837
 1025WAT     H2 3318   0.746   5.322   5.897
 1026WAT      O 3319   7.381   5.776   2.429
 1026WAT     H1 3320   7.366   5.840   2.354
 1026WAT     H2 3321   7.295   5.732   2.454
 1027WAT      O 3322   1.364   1.068   1.784
 1027WAT     H1 3323   1.407   1.156   1.764
 1027WAT     H2 3324   1.265   1.080   1.786
 1028WAT      O 3325   1.783   1.852   1.143
 1028WAT     H1 3326   1.839   1.897   1.213
 1028WAT     H2 3327   1.824   1.866   1.053
 1029WAT      O 3328   4.646   1.553   6.222
 1029WAT     H1 3329   4.658   1.457   6.197
 1029WAT     H2 3330   4.597   1.601   6.150
 1030WAT      O 3331   0.441   3.271   7.425
 1030WAT     H1 3332   0.351   3.257   7.384
 1030WAT     H2 3333   0.455   3.369   7.442
 1031WAT      O 3334   0.451   1.125   5.031
 1031WAT     H1 3335   0.413   1.068   4.959
 1031WAT     H2 3336   0.543   1.092   5.056
 1032WAT      O 3337   3.452   6.044   9.554
 1032WAT     H1 3338   3.547   6.076   9.554
 1032WAT     H2 3339   3.406   6.075   9.637
 1033WAT      O 3340   0.455   4.390   5.575
 1033WAT     H1 3341   0.419   4.479   5.601
 1033WAT     H2 3342   0.555   4.391   5.578
 1034WAT      O 3343   1.829   3.024   1.950
 1034WAT     H1 3344   1.908   3.059   2.000
 1034WAT     H2 3345   1.818   2.926   1.968
 1035WAT      O 3346   6.364   1.573   0.638
 1035WAT     H1 3347   6.357   1.618   0.549
 1035WAT     H2 3348   6.283   1.516   0.654
 1036WAT      O 3349   6.784   3.307   6.670
 1036WAT     H1 3350   6.691   3.341   6.654
 1036WAT     H2 3351   6.848   3.384   6.673
 1037WAT      O 3352   9.349   0.189   5.371
 1037WAT     H1 3353   9.340   0.195   5.471
 1037WAT     H2 3354   9.278   0.246   5.329
 1038WAT      O 3355   9.579   6.003   2.486
 1038WAT     H1 3356   9.653   6.016   2.420
 1038WAT     H2 3357   9.570   5.906   2.508
 1039WAT      O 3358   6.887   8.682   6.563
 1039WAT     H1 3359   6.926   8.718   6.648
 1039WAT     H2 3360   6.957   8.633   6.512
 1040WAT      O 3361   3.668   5.828   7.770
 1040WAT     H1 3362   3.672   5.823   7.870
 1040WAT     H2 3363   3.715   5.910   7.738
 1041WAT      O 3364   6.432   4.546   6.812
 1041WAT     H1 3365   6.433   4.625   6.751
 1041WAT     H2 3366   6.435   4.577   6.907
 1042WAT      O 3367   0.816   9.506   9.541
 1042WAT     H1 3368   0.789   9.584   9.598
 1042WAT     H2 3369   0.914   9.490   9.552
 1043WAT      O 3370   4.186   2.896   7.798
 1043WAT     H1 3371   4.177   2.829   7.724
 1043WAT     H2 3372   4.097   2.908   7.842
 1044WAT      O 3373   3.378   4.439   3.455
 1044WAT     H1 3374   3.399   4.348   3.491
 1044WAT     H2 3375   3.338   4.431   3.364
 1045WAT      O 3376   5.798   5.099   0.996
 1045WAT     H1 3377   5.755   5.065   0.912
 1045WAT     H2 3378   5.819   5.022   1.056
 1046WAT      O 3379   1.392   1.595   5.903
 1046WAT     H1 3380   1.418   1.502   5.875
 1046WAT     H2 3381   1.322   1.630   5.842
 1047WAT      O 3382   5.052   1.907   8.598
 1047WAT     H1 3383   5.082   1.910   8.694
 1047WAT     H2 3384   5.050   2.000   8.561
 1048WAT      O 3385   1.456   1.213   9.069
 1048WAT     H1 3386   1.371   1.216   9.016
 1048WAT     H2 3387   1.507   1.130   9.046
 1049WAT      O 3388   1.026   4.264   7.753
 1049WAT     H1 3389   1.065   4.320   7.826
 1049WAT     H2 3390   1.088   4.189   7.732
 1050WAT      O 3391   0.940   7.858   0.617
 1050WAT     H1 3392   0.898   7.944   0.646
 1050WAT     H2 3393   1.037   7.873   0.598
 1051WAT      O 3394   3.535   5.816   2.934
 1051WAT     H1 3395   3.441   5.833   2.903
 1051WAT     H2 3396   3.575   5.742   2.879
 1052WAT      O 3397   8.951   5.798   5.822
 1052WAT     H1 3398   9.048   5.789   5.799
 1052WAT     H2 3399   8.901   5.829   5.741
 1053WAT      O 3400   8.772   3.527   1.680
 1053WAT     H1 3401   8.855   3.582   1.684
 1053WAT     H2 3402   8.697   3.576   1.724
 1054WAT      O 3403   6.911   9.804   9.334
 1054WAT     H1 3404   6.967   9.886   9.342
 1054WAT     H2 3405   6.939   9.738   9.404
 1055WAT      O 3406   0.753   2.398   5.697
 1055WAT     H1 3407   0.747   2.441   5.606
 1055WAT     H2 3408   0.661   2.381   5.732
 1056WAT      O 3409   5.526   7.139   3.844
 1056WAT     H1 3410   5.602   7.183   3.796
 1056WAT     H2 3411   5.445   7.199   3.841
 1057WAT      O 3412   7.516   6.321   7.515
 1057WAT     H1 3413   7.570   6.318   7.432
 1057WAT     H2 3414   7.532   6.239   7.570
 1058WAT      O 3415   1.758   8.472   7.666
 1058WAT     H1 3416   1.721   8.483   7.759
 1058WAT     H2 3417   1.754   8.559   7.618
 1059WAT      O 3418   5.995   7.802   0.025
 1059WAT     H1 3419   6.065   7.786   0.095
 1059WAT     H2 3420   5.952   7.715  -0.000
 1060WAT      O 3421   5.042   7.171   5.449
 1060WAT     H1 3422   5.013   7.249   5.394
 1060WAT     H2 3423   5.131   7.139   5.417
 1061WAT      O 3424   6.734   9.037   0.939
 1061WAT     H1 3425   6.795   9.115   0.925
 1061WAT     H2 3426   6.647   9.068   0.978
 1062WAT      O 3427   7.608   3.223   4.447
 1062WAT     H1 3428   7.510   3.219   4.466
 1062WAT     H2 3429   7.655   3.153   4.499
 1063WAT      O 3430   0.596   9.224   9.365
 1063WAT     H1 3431   0.693   9.206   9.382
 1063WAT     H2 3432   0.556   9.147   9.315
 1064WAT      O 3433   2.230   5.517   3.920
 1064WAT     H1 3434   2.327   5.533   3.903
 1064WAT     H2 3435   2.196   5.584   3.986
 1065WAT      O 3436   5.861   6.518   6.168
 1065WAT     H1 3437   5.830   6.509   6.263
 1065WAT     H2 3438   5.893   6.612   6.153
 1066WAT      O 3439   3.434   8.583   8.445
 1066WAT     H1 3440   3.427   8.682   8.445
 1066WAT     H2 3441   3.443   8.550   8.351
 1067WAT      O 3442   7.415   8.683   2.808
 1067WAT     H1 3443   7.373   8.652   2.894
 1067WAT     H2 3444   7.471   8.610   2.771
 1068WAT      O 3445   7.324   0.593   4.293
 1068WAT     H1 3446   7.394   0.656   4.327
 1068WAT     H2 3447   7.265   0.566   4.369
 1069WAT      O 3448   3.453   0.726   7.279
 1069WAT     H1 3449   3.516   0.780   7.335
 1069WAT     H2 3450   3.505   0.660   7.225
 1070WAT      O 3451   2.879   9.408   8.808
 1070WAT     H1 3452   2.941   9.486   8.818
 1070WAT     H2 3453   2.793   9.428   8.857
 1071WAT      O 3454   1.120   5.727   2.379
 1071WAT     H1 3455   1.115   5.800   2.448
 1071WAT     H2 3456   1.069   5.755   2.298
 1072WAT      O 3457   7.451   6.618   4.918
 1072WAT     H1 3458   7.358   6.649   4.939
 1072WAT     H2 3459   7.511   6.638   4.996
 1073WAT      O 3460   6.356   0.775   9.516
 1073WAT     H1 3461   6.407   0.694   9.489
 1073WAT     H2 3462   6.276   0.748   9.570
 1074WAT      O 3463   7.285   8.308   6.103
 1074WAT     H1 3464   7.315   8.289   6.197
 1074WAT     H2 3465   7.289   8.224   6.049
 1075WAT      O 3466   6.820   8.643   9.882
 1075WAT     H1 3467   6.802   8.650   9.980
 1075WAT     H2 3468   6.736   8.618   9.834
 1076WAT      O 3469   2.028   7.572   4.905
 1076WAT     H1 3470   2.060   7.553   4.811
 1076WAT     H2 3471   1.964   7.501   4.933
 1077WAT      O 3472   4.212   0.328   4.256
 1077WAT     H1 3473   4.284   0.309   4.322
 1077WAT     H2 3474   4.227   0.418   4.215
 1078WAT      O 3475   3.805   7.486   6.177
 1078WAT     H1 3476   3.882   7.426   6.159
 1078WAT     H2 3477   3.831   7.581   6.156
 1079WAT      O 3478   0.803   1.469   5.353
 1079WAT     H1 3479   0.857   1.385   5.355
 1079WAT     H2 3480   0.713   1.450   5.313
 1080WAT      O 3481   3.139   2.211   5.826
 1080WAT     H1 3482   3.236   2.185   5.823
 1080WAT     H2 3483   3.095   2.167   5.904
 1081WAT      O 3484   7.508   3.723   5.003
 1081WAT     H1 3485   7.447   3.654   4.965
 1081WAT     H2 3486   7.516   3.710   5.102
 1082WAT      O 3487   8.449   1.769   2.869
 1082WAT     H1 3488   8.375   1.736   2.810
 1082WAT     H2 3489   8.502   1.690   2.901
 1083WAT      O 3490   5.992   0.514   9.061
 1083WAT     H1 3491   5.946   0.505   8.973
 1083WAT     H2 3492   5.949   0.452   9.127
 1084WAT      O 3493   5.499   8.349   8.658
 1084WAT     H1 3494   5.444   8.326   8.739
 1084WAT     H2 3495   5.459   8.305   8.577
 1085WAT      O 3496   4.368   9.459   2.241
 1085WAT     H1 3497   4.367   9.374   2.294
 1085WAT     H2 3498   4.278   9.475   2.201
 1086WAT      O 3499   2.656   4.126   8.711
 1086WAT     H1 3500   2.572   4.150   8.759
 1086WAT     H2 3501   2.718   4.206   8.710
 1087WAT      O 3502   4.102   8.104   2.315
 1087WAT     H1 3503   4.093   8.196   2.276
 1087WAT     H2 3504   4.199   8.078   2.315
 1088WAT      O 3505   1.660   6.516   5.168
 1088WAT     H1 3506   1.612   6.532   5.081
 1088WAT     H2 3507   1.597   6.531   5.244
 1089WAT      O 3508   4.981   9.124   8.218
 1089WAT     H1 3509   4.945   9.172   8.138
 1089WAT     H2 3510   5.075   9.153   8.235
 1090WAT      O 3511   1.341   3.883   8.827
 1090WAT     H1 3512   1.259   3.826   8.825
 1090WAT     H2 3513   1.362   3.908   8.922
 1091WAT      O 3514   8.445   9.817   5.405
 1091WAT     H1 3515   8.537   9.845   5.433
 1091WAT     H2 3516   8.404   9.761   5.477
 1092WAT      O 3517   5.267   5.376   7.798
 1092WAT     H1 3518   5.172   5.387   7.769
 1092WAT     H2 3519   5.327   5.421   7.733
 1093WAT      O 3520   3.870   9.380   1.731
 1093WAT     H1 3521   3.872   9.475   1.700
 1093WAT     H2 3522   3.826   9.323   1.662
 1094WAT      O 3523   0.014   7.398   1.749
 1094WAT     H1 3524   0.104   7.387   1.790
 1094WAT     H2 3525   0.022   7.395   1.649
 1095WAT      O 3526   0.645   9.199   3.477
 1095WAT     H1 3527   0.702   9.245   3.409
 1095WAT     H2 3528   0.560   9.167   3.434
 1096WAT      O 3529   0.342   9.201   0.943
 1096WAT     H1 3530   0.278   9.162   1.009
 1096WAT     H2 3531   0.292   9.246   0.870
 1097WAT      O 3532   8.527   4.333   2.814
 1097WAT     H1 3533   8.458   4.397   2.780
 1097WAT     H2 3534   8.497   4.240   2.796
 1098WAT      O 3535   0.705   8.897   9.032
 1098WAT     H1 3536   0.696   8.838   9.113
 1098WAT     H2 3537   0.663   8.852   8.953
 1099WAT      O 3538   9.425   3.099   3.679
 1099WAT     H1 3539   9.366   3.158   3.733
 1099WAT     H2 3540   9.373   3.061   3.602
 1100WAT      O 3541   1.446   5.800   8.657
 1100WAT     H1 3542   1.405   5.861   8.725
 1100WAT     H2 3543   1.543   5.820   8.649
 1101WAT      O 3544   9.646   3.449   9.861
 1101WAT     H1 3545   9.727   3.423   9.914
 1101WAT     H2 3546   9.623   3.544   9.880
 1102WAT      O 3547   9.605   4.339   8.031
 1102WAT     H1 3548   9.543   4.286   7.973
 1102WAT     H2 3549   9.559   4.422   8.063
 1103WAT      O 3550   3.722   6.205   7.470
 1103WAT     H1 3551   3.708   6.106   7.471
 1103WAT     H2 3552   3.638   6.250   7.440
 1104WAT      O 3553   0.187   2.948   6.451
 1104WAT     H1 3554   0.178   2.873   6.385
 1104WAT     H2 3555   0.197   3.035   6.402
 1105WAT      O 3556   1.225   1.258   2.845
 1105WAT     H1 3557   1.151   1.325   2.837
 1105WAT     H2 3558   1.297   1.279   2.779
 1106WAT      O 3559   1.835   7.803   1.222
 1106WAT     H1 3560   1.826   7.786   1.124
 1106WAT     H2 3561   1.766   7.749   1.271
 1107WAT      O 3562   5.387   5.470   1.144
 1107WAT     H1 3563   5.424   5.539   1.206
 1107WAT     H2 3564   5.460   5.428   1.090
 1108WAT      O 3565   7.762   2.086   5.193
 1108WAT     H1 3566   7.773   1.988   5.175
 1108WAT     H2 3567   7.759   2.135   5.106
 1109WAT      O 3568   9.469   9.036   5.484
 1109WAT     H1 3569   9.479   9.080   5.573
 1109WAT     H2 3570   9.543   8.970   5.471
 1110WAT      O 3571   2.827   8.487   7.205
 1110WAT     H1 3572   2.916   8.482   7.160
 1110WAT     H2 3573   2.810   8.402   7.256
 1111WAT      O 3574   3.823   7.975   0.346
 1111WAT     H1 3575   3.829   7.914   0.267
 1111WAT     H2 3576   3.886   7.943   0.418
 1112WAT      O 3577   4.440   3.823   4.361
 1112WAT     H1 3578   4.390   3.753   4.309
 1112WAT     H2 3579   4.530   3.788   4.386
 1113WAT      O 3580   0.613   9.193   0.946
 1113WAT     H1 3581   0.631   9.136   0.866
 1113WAT     H2 3582   0.515   9.215   0.949
 1114WAT      O 3583   7.497   4.403   9.574
 1114WAT     H1 3584   7.427   4.461   9.616
 1114WAT     H2 3585   7.582   4.455   9.562
 1115WAT      O 3586   3.687   0.574   7.541
 1115WAT     H1 3587   3.610   0.627   7.576
 1115WAT     H2 3588   3.754   0.636   7.500
 1116WAT      O 3589   6.005   4.997   1.882
 1116WAT     H1 3590   5.952   4.960   1.806
 1116WAT     H2 3591   5.972   5.089   1.903
 1117WAT      O 3592   5.367   4.450   1.565
 1117WAT     H1 3593   5.434   4.396   1.515
 1117WAT     H2 3594   5.379   4.435   1.664
 1118WAT      O 3595   5.068   0.080   8.951
 1118WAT     H1 3596   4.980   0.037   8.970
 1118WAT     H2 3597   5.136   0.045   9.016
 1119WAT      O 3598   7.588   6.678   2.814
 1119WAT     H1 3599   7.545   6.592   2.841
 1119WAT     H2 3600   7.681   6.682   2.850
 1120WAT      O 3601   7.805   5.557   6.857
 1120WAT     H1 3602   7.721   5.504   6.866
 1120WAT     H2 3603   7.783   5.651   6.830
 1121WAT      O 3604   5.480   2.834   6.649
 1121WAT     H1 3605   5.530   2.748   6.660
 1121WAT     H2 3606   5.465   2.874   6.739
 1122WAT      O 3607   7.500   8.172   2.673
 1122WAT     H1 3608   7.487   8.172   2.574
 1122WAT     H2 3609   7.413   8.189   2.718
 1123WAT      O 3610   9.476   7.264   7.456
 1123WAT     H1 3611   9.409   7.317   7.404
 1123WAT     H2 3612   9.519   7.196   7.397
 1124WAT      O 3613   8.080   9.265   7.689
 1124WAT     H1 3614   8.048   9.335   7.753
 1124WAT     H2 3615   8.010   9.195   7.680
 1125WAT      O 3616   1.939   4.616   8.381
 1125WAT     H1 3617   1.882   4.691   8.414
 1125WAT     H2 3618   1.913   4.532   8.427
 1126WAT      O 3619   2.054   9.380   0.238
 1126WAT     H1 3620   2.041   9.333   0.150
 1126WAT     H2 3621   2.105   9.320   0.300
 1127WAT      O 3622   4.040   9.091   2.133
 1127WAT     H1 3623   4.065   9.040   2.215
 1127WAT     H2 3624   4.119   9.147   2.104
 1128WAT      O 3625   3.662   8.643   3.898
 1128WAT     H1 3626   3.687   8.686   3.985
 1128WAT     H2 3627   3.728   8.670   3.828
 1129WAT      O 3628   0.521   2.426   5.838
 1129WAT     H1 3629   0.463   2.345   5.841
 1129WAT     H2 3630   0.562   2.441   5.927
 1130WAT      O 3631   5.351   5.461   3.979
 1130WAT     H1 3632   5.364   5.557   4.002
 1130WAT     H2 3633   5.368   5.404   4.060
 1131WAT      O 3634   6.883   6.004   3.289
 1131WAT     H1 3635   6.836   5.947   3.221
 1131WAT     H2 3636   6.982   5.998   3.277
 1132WAT      O 3637   8.105   5.890   2.848
 1132WAT     H1 3638   8.015   5.900   2.890
 1132WAT     H2 3639   8.175   5.892   2.919
 1133WAT      O 3640   0.986   8.411   6.145
 1133WAT     H1 3641   0.953   8.322   6.114
 1133WAT     H2 3642   1.046   8.451   6.076
 1134WAT      O 3643   2.756   0.092   2.657
 1134WAT     H1 3644   2.819   0.144   2.714
 1134WAT     H2 3645   2.672   0.145   2.641
 1135WAT      O 3646   2.994   0.815   1.866
 1135WAT     H1 3647   2.974   0.718   1.883
 1135WAT     H2 3648   2.909   0.867   1.876
 1136WAT      O 3649   6.552   1.815   2.187
 1136WAT     H1 3650   6.623   1.769   2.240
 1136WAT     H2 3651   6.467   1.763   2.192
 1137WAT      O 3652   6.893   9.764   4.166
 1137WAT     H1 3653   6.895   9.863   4.178
 1137WAT     H2 3654   6.947   9.721   4.239
 1138WAT      O 3655   6.596   4.936   1.365
 1138WAT     H1 3656   6.569   4.997   1.439
 1138WAT     H2 3657   6.621   4.990   1.284
 1139WAT      O 3658   6.415   7.041   0.116
 1139WAT     H1 3659   6.371   7.109   0.057
 1139WAT     H2 3660   6.362   6.956   0.113
 1140WAT      O 3661   6.625   4.612   5.846
 1140WAT     H1 3662   6.669   4.636   5.933
 1140WAT     H2 3663   6.622   4.693   5.787
 1141WAT      O 3664   8.181   8.347   5.165
 1141WAT     H1 3665   8.190   8.390   5.255
 1141WAT     H2 3666   8.170   8.248   5.177
 1142WAT      O 3667   6.612   4.419   4.860
 1142WAT     H1 3668   6.522   4.462   4.860
 1142WAT     H2 3669   6.603   4.321   4.881
 1143WAT      O 3670   4.267   7.478   7.727
 1143WAT     H1 3671   4.347   7.452   7.781
 1143WAT     H2 3672   4.288   7.562   7.677
 1144WAT      O 3673   1.773   0.488   0.251
 1144WAT     H1 3674   1.693   0.442   0.289
 1144WAT     H2 3675   1.830   0.422   0.202
 1145WAT      O 3676   2.250   0.652   3.905
 1145WAT     H1 3677   2.252   0.715   3.827
 1145WAT     H2 3678   2.339   0.651   3.950
 1146WAT      O 3679   5.946   3.080   6.555
 1146WAT     H1 3680   5.849   3.056   6.557
 1146WAT     H2 3681   5.987   3.046   6.470
 1147WAT      O 3682   9.516   3.147   9.010
 1147WAT     H1 3683   9.470   3.124   8.924
 1147WAT     H2 3684   9.613   3.124   9.003
 1148WAT      O 3685   2.026   5.427   3.396
 1148WAT     H1 3686   1.966   5.498   3.359
 1148WAT     H2 3687   2.083   5.467   3.468
 1149WAT      O 3688   1.030   4.017   3.600
 1149WAT     H1 3689   0.951   4.042   3.656
 1149WAT     H2 3690   1.109   4.072   3.627
 1150WAT      O 3691   0.461   6.770   7.126
 1150WAT     H1 3692   0.535   6.792   7.190
 1150WAT     H2 3693   0.411   6.690   7.160
 1151WAT      O 3694   1.245   5.596   8.276
 1151WAT     H1 3695   1.324   5.545   8.311
 1151WAT     H2 3696   1.276   5.668   8.214
 1152WAT      O 3697   8.429   0.686   7.988
 1152WAT     H1 3698   8.507   0.624   7.981
 1152WAT     H2 3699   8.448   0.755   8.058
 1153WAT      O 3700   9.553   8.847   4.307
 1153WAT     H1 3701   9.604   8.763   4.294
 1153WAT     H2 3702   9.507   8.845   4.396
 1154WAT      O 3703   1.923   3.140   0.746
 1154WAT     H1 3704   1.969   3.225   0.773
 1154WAT     H2 3705   1.854   3.161   0.677
 1155WAT      O 3706   0.997   1.056   9.177
 1155WAT     H1 3707   0.931   1.007   9.234
 1155WAT     H2 3708   1.012   1.148   9.215
 1156WAT      O 3709   2.480   8.846   7.169
 1156WAT     H1 3710   2.556   8.800   7.215
 1156WAT     H2 3711   2.510   8.935   7.135
 1157WAT      O 3712   0.529   5.392   2.483
 1157WAT     H1 3713   0.446   5.336   2.493
 1157WAT     H2 3714   0.606   5.332   2.459
 1158WAT      O 3715   9.328   3.262   8.360
 1158WAT     H1 3716   9.365   3.187   8.304
 1158WAT     H2 3717   9.301   3.337   8.300
 1159WAT      O 3718   0.787   2.895   3.724
 1159WAT     H1 3719   0.876   2.891   3.771
 1159WAT     H2 3720   0.716   2.920   3.789
 1160WAT      O 3721   3.471   3.711   4.791
 1160WAT     H1 3722   3.382   3.756   4.801
 1160WAT     H2 3723   3.538   3.776   4.755
 1161WAT      O 3724   5.560   4.367   2.235
 1161WAT     H1 3725   5.589   4.441   2.296
 1161WAT     H2 3726   5.468   4.337   2.259
 1162WAT      O 3727   0.701   7.118   7.663
 1162WAT     H1 3728   0.743   7.056   7.729
 1162WAT     H2 3729   0.614   7.152   7.700
 1163WAT      O 3730   4.123   3.541   2.117
 1163WAT     H1 3731   4.055   3.472   2.093
 1163WAT     H2 3732   4.207   3.525   2.065
 1164WAT      O 3733   3.943   5.864   2.002
 1164WAT     H1 3734   3.943   5.963   1.984
 1164WAT     H2 3735   3.854   5.826   1.980
 1165WAT      O 3736   6.804   2.646   9.503
 1165WAT     H1 3737   6.815   2.688   9.413
 1165WAT     H2 3738   6.812   2.716   9.574
 1166WAT      O 3739   2.996   4.897   7.391
 1166WAT     H1 3740   2.913   4.895   7.336
 1166WAT     H2 3741   3.055   4.820   7.367
 1167WAT      O 3742   4.075   2.974   3.464
 1167WAT     H1 3743   4.144   2.934   3.525
 1167WAT     H2 3744   4.040   3.058   3.505
 1168WAT      O 3745   6.901   6.469   4.802
 1168WAT     H1 3746   6.850   6.528   4.739
 1168WAT     H2 3747   6.999   6.484   4.790
 1169WAT      O 3748   6.162   2.773   9.734
 1169WAT     H1 3749   6.163   2.714   9.815
 1169WAT     H2 3750   6.069   2.804   9.715
 1170WAT      O 3751   6.333   9.243   3.228
 1170WAT     H1 3752   6.273   9.241   3.307
 1170WAT     H2 3753   6.378   9.154   3.218
 1171WAT      O 3754   1.924   9.386   2.278
 1171WAT     H1 3755   2.013   9.404   2.236
 1171WAT     H2 3756   1.900   9.290   2.267
 1172WAT      O 3757   2.952   5.657   5.805
 1172WAT     H1 3758   2.876   5.603   5.769
 1172WAT     H2 3759   2.969   5.735   5.743
 1173WAT      O 3760   9.642   6.894   3.128
 1173WAT     H1 3761   9.658   6.981   3.082
 1173WAT     H2 3762   9.727   6.841   3.130
 1174WAT      O 3763   2.887   8.875   9.801
 1174WAT     H1 3764   2.933   8.959   9.771
 1174WAT     H2 3765   2.866   8.881   9.898
 1175WAT      O 3766   3.487   6.859   9.469
 1175WAT     H1 3767   3.510   6.797   9.544
 1175WAT     H2 3768   3.528   6.949   9.486
 1176WAT      O 3769   2.046   7.708   3.710
 1176WAT     H1 3770   2.042   7.613   3.738
 1176WAT     H2 3771   2.117   7.756   3.762
 1177WAT      O 3772   3.598   3.169   1.910
 1177WAT     H1 3773   3.509   3.215   1.916
 1177WAT     H2 3774   3.594   3.100   1.838
 1178WAT      O 3775   2.900   2.036   2.512
 1178WAT     H1 3776   2.840   1.975   2.459
 1178WAT     H2 3777   2.847   2.079   2.585
 1179WAT      O 3778   1.043   8.731   3.838
 1179WAT     H1 3779   1.011   8.720   3.932
 1179WAT     H2 3780   0.976   8.784   3.786
 1180WAT      O 3781   0.649   9.650   3.724
 1180WAT     H1 3782   0.709   9.576   3.753
 1180WAT     H2 3783   0.590   9.677   3.801
 1181WAT      O 3784   0.985   5.630   8.306
 1181WAT     H1 3785   1.085   5.630   8.300
 1181WAT     H2 3786   0.949   5.701   8.244
 1182WAT      O 3787   0.805   6.735   6.989
 1182WAT     H1 3788   0.898   6.698   6.979
 1182WAT     H2 3789   0.739   6.669   6.956
 1183WAT      O 3790   9.029   4.015   8.182
 1183WAT     H1 3791   9.064   3.952   8.252
 1183WAT     H2 3792   8.954   3.971   8.133
 1184WAT      O 3793   0.389   6.683   6.356
 1184WAT     H1 3794   0.339   6.704   6.272
 1184WAT     H2 3795   0.358   6.595   6.391
 1185WAT      O 3796   8.164   9.254   6.633
 1185WAT     H1 3797   8.177   9.352   6.621
 1185WAT     H2 3798   8.181   9.230   6.729
 1186WAT      O 3799   6.380   4.037   2.916
 1186WAT     H1 3800   6.345   3.950   2.950
 1186WAT     H2 3801   6.394   4.099   2.993
 1187WAT      O 3802   4.005   1.157   8.849
 1187WAT     H1 3803   4.038   1.199   8.765
 1187WAT     H2 3804   3.919   1.200   8.877
 1188WAT      O 3805   3.705   7.018   0.576
 1188WAT     H1 3806   3.626   6.957   0.572
 1188WAT     H2 3807   3.678   7.109   0.544
 1189WAT      O 3808   2.078   4.334   0.195
 1189WAT     H1 3809   2.002   4.336   0.131
 1189WAT     H2 3810   2.114   4.426   0.208
 1190WAT      O 3811   1.748   0.192   4.525
 1190WAT     H1 3812   1.761   0.152   4.616
 1190WAT     H2 3813   1.737   0.119   4.458
 1191WAT      O 3814   0.060   0.129   4.036
 1191WAT     H1 3815   0.134   0.178   3.991
 1191WAT     H2 3816  -0.021   0.130   3.977
 1192WAT      O 3817   1.763   4.139   2.568
 1192WAT     H1 3818   1.692   4.181   2.625
 1192WAT     H2 3819   1.782   4.198   2.490
 1193WAT      O 3820   9.590   1.010   4.913
 1193WAT     H1 3821   9.539   0.927   4.893
 1193WAT     H2 3822   9.658   1.025   4.841
 1194WAT      O 3823   3.401   3.959   3.405
 1194WAT     H1 3824   3.467   3.930   3.475
 1194WAT     H2 3825   3.434   4.041   3.359
 1195WAT      O 3826   8.166   6.519   3.040
 1195WAT     H1 3827   8.153   6.524   2.941
 1195WAT     H2 3828   8.248   6.569   3.066
 1196WAT      O 3829   1.828   8.618   3.808
 1196WAT     H1 3830   1.864   8.709   3.830
 1196WAT     H2 3831   1.760   8.592   3.877
 1197WAT      O 3832   6.127   9.587   5.633
 1197WAT     H1 3833   6.128   9.616   5.538
 1197WAT     H2 3834   6.213   9.612   5.677
 1198WAT      O 3835   9.782   9.402   5.952
 1198WAT     H1 3836   9.871   9.373   5.987
 1198WAT     H2 3837   9.710   9.344   5.991
 1199WAT      O 3838   7.199   2.449   9.559
 1199WAT     H1 3839   7.118   2.410   9.516
 1199WAT     H2 3840   7.172   2.522   9.622
 1200WAT      O 3841   5.492   3.363   2.411
 1200WAT     H1 3842   5.474   3.359   2.313
 1200WAT     H2 3843   5.517   3.272   2.445
 1201WAT      O 3844   0.886   6.710   4.787
 1201WAT     H1 3845   0.868   6.693   4.690
 1201WAT     H2 3846   0.882   6.808   4.805
 1202WAT      O 3847   3.625   2.681   9.433
 1202WAT     H1 3848   3.587   2.638   9.515
 1202WAT     H2 3849   3.553   2.695   9.365
 1203WAT      O 3850   9.375   0.676   9.031
 1203WAT     H1 3851   9.363   0.577   9.036
 1203WAT     H2 3852   9.392   0.712   9.122
 1204WAT      O 3853   3.873   2.512   3.287
 1204WAT     H1 3854   3.949   2.575   3.300
 1204WAT     H2 3855   3.795   2.562   3.248
 1205WAT      O 3856   9.388   3.970   3.323
 1205WAT     H1 3857   9.436   3.973   3.410
 1205WAT     H2 3858   9.444   3.924   3.254
 1206WAT      O 3859   9.278   6.943   6.391
 1206WAT     H1 3860   9.378   6.949   6.386
 1206WAT     H2 3861   9.252   6.909   6.481
 1207WAT      O 3862   5.496   4.900   2.778
 1207WAT     H1 3863   5.509   4.834   2.852
 1207WAT     H2 3864   5.416   4.956   2.798
 1208WAT      O 3865   5.297   6.778   3.130
 1208WAT     H1 3866   5.350   6.847   3.180
 1208WAT     H2 3867   5.356   6.700   3.108
 1209WAT      O 3868   0.021   7.831   9.381
 1209WAT     H1 3869  -0.029   7.760   9.431
 1209WAT     H2 3870   0.030   7.803   9.285
 1210WAT      O 3871   6.822   6.844   0.899
 1210WAT     H1 3872   6.744   6.894   0.937
 1210WAT     H2 3873   6.905   6.870   0.947
 1211WAT      O 3874   6.277   1.001   0.873
 1211WAT     H1 3875   6.294   0.941   0.952
 1211WAT     H2 3876   6.345   0.981   0.802
 1212WAT      O 3877   6.703   4.511   1.179
 1212WAT     H1 3878   6.718   4.593   1.234
 1212WAT     H2 3879   6.663   4.440   1.236
 1213WAT      O 3880   6.307   7.149   8.179
 1213WAT     H1 3881   6.282   7.194   8.093
 1213WAT     H2 3882   6.359   7.212   8.236
 1214WAT      O 3883   4.603   1.753   1.110
 1214WAT     H1 3884   4.594   1.659   1.145
 1214WAT     H2 3885   4.522   1.776   1.057
 1215WAT      O 3886   2.200   2.441   8.097
 1215WAT     H1 3887   2.216   2.443   7.998
 1215WAT     H2 3888   2.231   2.528   8.137
 1216WAT      O 3889   6.603   1.090   1.308
 1216WAT     H1 3890   6.578   1.149   1.232
 1216WAT     H2 3891   6.669   1.022   1.277
 1217WAT      O 3892   9.883   4.933   1.019
 1217WAT     H1 3893   9.834   4.913   0.934
 1217WAT     H2 3894   9.855   5.023   1.053
 1218WAT      O 3895   7.466   8.029   4.921
 1218WAT     H1 3896   7.509   7.941   4.942
 1218WAT     H2 3897   7.371   8.015   4.895
 1219WAT      O 3898   3.347   1.780   8.561
 1219WAT     H1 3899   3.296   1.861   8.532
 1219WAT     H2 3900   3.305   1.699   8.521
 1220WAT      O 3901   9.026   7.065   0.011
 1220WAT     H1 3902   9.075   7.031   0.092
 1220WAT     H2 3903   9.007   6.989  -0.051
 1221WAT      O 3904   8.554   2.223   0.567
 1221WAT     H1 3905   8.530   2.291   0.497
 1221WAT     H2 3906   8.479   2.217   0.634
 1222WAT      O 3907   5.685   2.063   4.530
 1222WAT     H1 3908   5.644   2.137   4.476
 1222WAT     H2 3909   5.618   1.991   4.543
 1223WAT      O 3910   0.412   2.722   5.226
 1223WAT     H1 3911   0.437   2.666   5.304
 1223WAT     H2 3912   0.409   2.818   5.253
 1224WAT      O 3913   2.824   6.216   4.604
 1224WAT     H1 3914   2.792   6.271   4.681
 1224WAT     H2 3915   2.860   6.277   4.533
 1225WAT      O 3916   2.936   7.675   1.952
 1225WAT     H1 3917   2.907   7.579   1.949
 1225WAT     H2 3918   2.856   7.734   1.937
 1226WAT      O 3919   3.047   5.458   7.621
 1226WAT     H1 3920   2.967   5.412   7.582
 1226WAT     H2 3921   3.074   5.533   7.561
 1227WAT      O 3922   6.171   7.398   3.081
 1227WAT     H1 3923   6.144   7.490   3.106
 1227WAT     H2 3924   6.165   7.387   2.982
 1228WAT      O 3925   2.697   1.590   9.351
 1228WAT     H1 3926   2.680   1.525   9.277
 1228WAT     H2 3927   2.718   1.680   9.312
 1229WAT      O 3928   4.198   6.745   5.252
 1229WAT     H1 3929   4.285   6.731   5.205
 1229WAT     H2 3930   4.123   6.729   5.188
 1230WAT      O 3931   6.199   8.950   7.513
 1230WAT     H1 3932   6.262   9.019   7.480
 1230WAT     H2 3933   6.115   8.993   7.547
 1231WAT      O 3934   9.047   0.802   4.033
 1231WAT     H1 3935   9.062   0.901   4.039
 1231WAT     H2 3936   9.094   0.756   4.108
 1232WAT      O 3937   2.571   6.108   8.928
 1232WAT     H1 3938   2.511   6.066   8.996
 1232WAT     H2 3939   2.521   6.178   8.877
 1233WAT      O 3940   1.075   3.096   5.690
 1233WAT     H1 3941   1.155   3.115   5.633
 1233WAT     H2 3942   1.099   3.029   5.760
 1234WAT      O 3943   8.852   8.249   2.449
 1234WAT     H1 3944   8.838   8.345   2.473
 1234WAT     H2 3945   8.944   8.237   2.412
 1235WAT      O 3946   0.423   2.281   8.895
 1235WAT     H1 3947   0.462   2.189   8.890
 1235WAT     H2 3948   0.330   2.276   8.930
 1236WAT      O 3949   8.846   7.122   2.042
 1236WAT     H1 3950   8.818   7.096   1.950
 1236WAT     H2 3951   8.940   7.155   2.041
 1237WAT      O 3952   2.413   8.081   8.580
 1237WAT     H1 3953   2.362   8.016   8.525
 1237WAT     H2 3954   2.358   8.164   8.593
 1238WAT      O 3955   6.691   3.690   9.594
 1238WAT     H1 3956   6.614   3.751   9.574
 1238WAT     H2 3957   6.671   3.599   9.557
 1239WAT      O 3958   0.648   3.570   0.529
 1239WAT     H1 3959   0.698   3.643   0.483
 1239WAT     H2 3960   0.712   3.507   0.573
 1240WAT      O 3961   4.987   9.300   1.922
 1240WAT     H1 3962   4.889   9.321   1.920
 1240WAT     H2 3963   5.012   9.267   2.013
 1241WAT      O 3964   2.699   1.277   5.430
 1241WAT     H1 3965   2.696   1.376   5.418
 1241WAT     H2 3966   2.773   1.239   5.375
 1242WAT      O 3967   5.532   3.101   9.237
 1242WAT     H1 3968   5.489   3.186   9.266
 1242WAT     H2 3969   5.622   3.121   9.197
 1243WAT      O 3970   1.158   6.165   5.479
 1243WAT     H1 3971   1.163   6.218   5.394
 1243WAT     H2 3972   1.136   6.070   5.459
 1244WAT      O 3973   0.502   2.568   8.910
 1244WAT     H1 3974   0.510   2.487   8.853
 1244WAT     H2 3975   0.406   2.594   8.919
 1245WAT      O 3976   7.806   2.337   4.289
 1245WAT     H1 3977   7.789   2.428   4.251
 1245WAT     H2 3978   7.731   2.276   4.265
 1246WAT      O 3979   6.951   8.129   1.111
 1246WAT     H1 3980   6.905   8.197   1.053
 1246WAT     H2 3981   6.937   8.152   1.207
 1247WAT      O 3982   9.071   2.086   6.084
 1247WAT     H1 3983   9.140   2.094   6.012
 1247WAT     H2 3984   9.049   1.989   6.098
 1248WAT      O 3985   0.312   6.319   9.721
 1248WAT     H1 3986   0.249   6.344   9.648
 1248WAT     H2 3987   0.261   6.282   9.799
 1249WAT      O 3988   1.810   0.172   7.322
 1249WAT     H1 3989   1.730   0.213   7.277
 1249WAT     H2 3990   1.805   0.073   7.314
 1250WAT      O 3991   1.842   3.732   2.066
 1250WAT     H1 3992   1.766   3.671   2.044
 1250WAT     H2 3993   1.928   3.690   2.036
 1251WAT      O 3994   3.595   7.966   4.217
 1251WAT     H1 3995   3.622   8.060   4.237
 1251WAT     H2 3996   3.676   7.908   4.208
 1252WAT      O 3997   0.748   0.657   2.788
 1252WAT     H1 3998   0.820   0.726   2.791
 1252WAT     H2 3999   0.671   0.688   2.845
 1253WAT      O 4000   6.389   1.320   0.145
 1253WAT     H1 4001   6.312   1.377   0.116
 1253WAT     H2 4002   6.415   1.259   0.071
 1254WAT      O 4003   5.844   8.105   8.084
 1254WAT     H1 4004   5.765   8.069   8.133
 1254WAT     H2 4005   5.831   8.091   7.986
 1255WAT      O 4006   2.281   3.485   1.299
 1255WAT     H1 4007   2.273   3.412   1.367
 1255WAT     H2 4008   2.315   3.447   1.213
 1256WAT      O 4009   2.371   7.454   9.848
 1256WAT     H1 4010   2.394   7.397   9.769
 1256WAT     H2 4011   2.298   7.411   9.900
 1257WAT      O 4012   8.276   1.230   1.205
 1257WAT     H1 4013   8.307   1.325   1.204
 1257WAT     H2 4014   8.235   1.210   1.294
 1258WAT      O 4015   8.900   5.556   2.782
 1258WAT     H1 4016   8.821   5.498   2.802
 1258WAT     H2 4017   8.886   5.647   2.821
 1259WAT      O 4018   3.763   9.746   4.635
 1259WAT     H1 4019   3.843   9.768   4.579
 1259WAT     H2 4020   3.725   9.658   4.606
 1260WAT      O 4021   5.090   2.156   8.530
 1260WAT     H1 4022   5.189   2.156   8.547
 1260WAT     H2 4023   5.073   2.151   8.432
 1261WAT      O 4024   2.570   0.753   1.031
 1261WAT     H1 4025   2.542   0.712   0.944
 1261WAT     H2 4026   2.517   0.836   1.048
 1262WAT      O 4027   9.492   3.893   8.150
 1262WAT     H1 4028   9.468   3.867   8.056
 1262WAT     H2 4029   9.589   3.914   8.155
 1263WAT      O 4030   9.520   7.588   9.090
 1263WAT     H1 4031   9.594   7.536   9.132
 1263WAT     H2 4032   9.462   7.525   9.037
 1264WAT      O 4033   4.064   7.649   6.849
 1264WAT     H1 4034   4.142   7.688   6.800
 1264WAT     H2 4035   4.097   7.586   6.919
 1265WAT      O 4036   0.050   6.495   2.107
 1265WAT     H1 4037   0.109   6.438   2.048
 1265WAT     H2 4038   0.096   6.512   2.194
 1266WAT      O 4039   0.371   2.043   4.412
 1266WAT     H1 4040   0.296   1.982   4.439
 1266WAT     H2 4041   0.429   1.996   4.346
 1267WAT      O 4042   9.867   4.584   1.971
 1267WAT     H1 4043   9.790   4.575   1.908
 1267WAT     H2 4044   9.833   4.587   2.065
 1268WAT      O 4045   1.891   0.447   4.528
 1268WAT     H1 4046   1.838   0.362   4.520
 1268WAT     H2 4047   1.845   0.520   4.477
 1269WAT      O 4048   2.844   1.696   1.576
 1269WAT     H1 4049   2.887   1.654   1.497
 1269WAT     H2 4050   2.766   1.752   1.546
 1270WAT      O 4051   7.496   8.788   8.966
 1270WAT     H1 4052   7.588   8.752   8.949
 1270WAT     H2 4053   7.477   8.785   9.065
 1271WAT      O 4054   6.385   1.354   7.691
 1271WAT     H1 4055   6.318   1.427   7.674
 1271WAT     H2 4056   6.403   1.349   7.789
 1272WAT      O 4057   9.797   5.706   9.653
 1272WAT     H1 4058   9.780   5.642   9.579
 1272WAT     H2 4059   9.838   5.658   9.730
 1273WAT      O 4060   6.090   2.374   2.168
 1273WAT     H1 4061   6.100   2.277   2.150
 1273WAT     H2 4062   6.175   2.421   2.142
 1274WAT      O 4063   8.297   2.677   7.190
 1274WAT     H1 4064   8.209   2.675   7.143
 1274WAT     H2 4065   8.310   2.591   7.240
 1275WAT      O 4066   2.768   2.624   7.708
 1275WAT     H1 4067   2.795   2.553   7.643
 1275WAT     H2 4068   2.776   2.713   7.664
 1276WAT      O 4069   2.650   5.043   0.172
 1276WAT     H1 4070   2.638   5.086   0.262
 1276WAT     H2 4071   2.564   5.049   0.121
 1277WAT      O 4072   9.235   9.065   9.197
 1277WAT     H1 4073   9.268   8.980   9.239
 1277WAT     H2 4074   9.225   9.135   9.267
 1278WAT      O 4075   8.233   7.447   4.591
 1278WAT     H1 4076   8.244   7.520   4.524
 1278WAT     H2 4077   8.225   7.486   4.683
 1279WAT      O 4078   7.600   7.862   1.211
 1279WAT     H1 4079   7.529   7.912   1.261
 1279WAT     H2 4080   7.639   7.920   1.140
 1280WAT      O 4081   4.071   2.435   7.738
 1280WAT     H1 4082   4.041   2.508   7.800
 1280WAT     H2 4083   4.163   2.456   7.703
 1281WAT      O 4084   8.184   0.656   9.305
 1281WAT     H1 4085   8.242   0.575   9.292
 1281WAT     H2 4086   8.090   0.634   9.279
 1282WAT      O 4087   6.339   2.165   5.867
 1282WAT     H1 4088   6.329   2.260   5.838
 1282WAT     H2 4089   6.309   2.156   5.962
 1283WAT      O 4090   1.114   6.377   1.156
 1283WAT     H1 4091   1.143   6.428   1.237
 1283WAT     H2 4092   1.088   6.284   1.183
 1284WAT      O 4093   8.559   1.102   1.852
 1284WAT     H1 4094   8.638   1.050   1.885
 1284WAT     H2 4095   8.565   1.196   1.884
 1285WAT      O 4096   8.481   7.579   3.106
 1285WAT     H1 4097   8.570   7.533   3.114
 1285WAT     H2 4098   8.495   7.678   3.107
 1286WAT      O 4099   8.406   7.984   6.789
 1286WAT     H1 4100   8.440   8.038   6.712
 1286WAT     H2 4101   8.333   7.923   6.758
 1287WAT      O 4102   0.827   5.433   8.220
 1287WAT     H1 4103   0.824   5.350   8.275
 1287WAT     H2 4104   0.903   5.491   8.253
 1288WAT      O 4105   3.240   0.889   7.539
 1288WAT     H1 4106   3.220   0.876   7.442
 1288WAT     H2 4107   3.318   0.950   7.550
 1289WAT      O 4108   5.326   0.612   3.830
 1289WAT     H1 4109   5.325   0.559   3.915
 1289WAT     H2 4110   5.232   0.634   3.805
 1290WAT      O 4111   2.471   6.142   9.356
 1290WAT     H1 4112   2.541   6.214   9.349
 1290WAT     H2 4113   2.453   6.104   9.266
 1291WAT      O 4114   2.412   3.810   6.738
 1291WAT     H1 4115   2.484   3.865   6.695
 1291WAT     H2 4116   2.453   3.748   6.804
 1292WAT      O 4117   3.873   3.565   5.749
 1292WAT     H1 4118   3.929   3.639   5.711
 1292WAT     H2 4119   3.787   3.603   5.783
 1293WAT      O 4120   3.046   6.636   5.553
 1293WAT     H1 4121   3.129   6.601   5.510
 1293WAT     H2 4122   3.069   6.675   5.642
 1294WAT      O 4123   5.692   5.213   3.562
 1294WAT     H1 4124   5.625   5.270   3.608
 1294WAT     H2 4125   5.646   5.147   3.503
 1295WAT      O 4126   3.684   5.416   2.163
 1295WAT     H1 4127   3.600   5.468   2.166
 1295WAT     H2 4128   3.673   5.331   2.215
 1296WAT      O 4129   7.913   8.499   0.559
 1296WAT     H1 4130   8.010   8.507   0.580
 1296WAT     H2 4131   7.869   8.588   0.570
 1297WAT      O 4132   9.644   3.422   9.372
 1297WAT     H1 4133   9.676   3.455   9.461
 1297WAT     H2 4134   9.662   3.324   9.364
 1298WAT      O 4135   8.582   3.032   0.581
 1298WAT     H1 4136   8.647   3.067   0.513
 1298WAT     H2 4137   8.527   3.108   0.616
 1299WAT      O 4138   8.798   1.355   0.870
 1299WAT     H1 4139   8.828   1.379   0.962
 1299WAT     H2 4140   8.868   1.381   0.803
 1300WAT      O 4141   2.084   2.756   4.863
 1300WAT     H1 4142   2.089   2.815   4.782
 1300WAT     H2 4143   2.174   2.750   4.905
 1301WAT      O 4144   4.624   5.063   4.072
 1301WAT     H1 4145   4.594   5.040   3.980
 1301WAT     H2 4146   4.558   5.029   4.139
 1302WAT      O 4147   3.511   7.417   7.333
 1302WAT     H1 4148   3.428   7.453   7.377
 1302WAT     H2 4149   3.534   7.328   7.372
 1303WAT      O 4150   9.329   1.195   8.910
 1303WAT     H1 4151   9.291   1.224   8.998
 1303WAT     H2 4152   9.405   1.131   8.926
 1304WAT      O 4153   7.820   7.099   6.790
 1304WAT     H1 4154   7.805   7.197   6.805
 1304WAT     H2 4155   7.742   7.062   6.739
 1305WAT      O 4156   3.848   4.895   8.447
 1305WAT     H1 4157   3.898   4.876   8.363
 1305WAT     H2 4158   3.894   4.852   8.524
 1306WAT      O 4159   9.069   3.059   8.668
 1306WAT     H1 4160   9.121   3.143   8.655
 1306WAT     H2 4161   8.976   3.072   8.635
 1307WAT      O 4162   2.410   0.746   7.868
 1307WAT     H1 4163   2.425   0.843   7.849
 1307WAT     H2 4164   2.369   0.701   7.788
 1308WAT      O 4165   6.755   9.717   2.816
 1308WAT     H1 4166   6.715   9.738   2.905
 1308WAT     H2 4167   6.853   9.700   2.827
 1309WAT      O 4168   1.090   1.190   7.599
 1309WAT     H1 4169   1.075   1.242   7.683
 1309WAT     H2 4170   1.161   1.122   7.615
 1310WAT      O 4171   3.015   0.785   2.910
 1310WAT     H1 4172   2.988   0.794   3.006
 1310WAT     H2 4173   2.936   0.762   2.854
 1311WAT      O 4174   2.194   9.238   0.424
 1311WAT     H1 4175   2.118   9.211   0.482
 1311WAT     H2 4176   2.195   9.180   0.342
 1312WAT      O 4177   1.912   0.311   1.816
 1312WAT     H1 4178   1.998   0.283   1.859
 1312WAT     H2 4179   1.891   0.249   1.740
 1313WAT      O 4180   2.552   5.304   2.125
 1313WAT     H1 4181   2.494   5.300   2.043
 1313WAT     H2 4182   2.574   5.212   2.155
 1314WAT      O 4183   3.742   3.282   2.303
 1314WAT     H1 4184   3.736   3.306   2.206
 1314WAT     H2 4185   3.833   3.244   2.322
 1315WAT      O 4186   3.290   4.858   4.747
 1315WAT     H1 4187   3.301   4.957   4.737
 1315WAT     H2 4188   3.253   4.838   4.837
 1316WAT      O 4189   1.523   3.928   3.484
 1316WAT     H1 4190   1.495   3.961   3.573
 1316WAT     H2 4191   1.511   3.828   3.480
 1317WAT      O 4192   9.715   3.375   6.329
 1317WAT     H1 4193   9.697   3.277   6.335
 1317WAT     H2 4194   9.739   3.399   6.235
 1318WAT      O 4195   3.194   0.957   3.885
 1318WAT     H1 4196   3.217   0.924   3.977
 1318WAT     H2 4197   3.115   0.907   3.850
 1319WAT      O 4198   1.236   1.854   5.964
 1319WAT     H1 4199   1.215   1.772   6.017
 1319WAT     H2 4200   1.166   1.868   5.894
 1320WAT      O 4201   1.558   6.499   2.395
 1320WAT     H1 4202   1.650   6.459   2.394
 1320WAT     H2 4203   1.523   6.505   2.302
 1321WAT      O 4204   6.432   3.806   3.512
 1321WAT     H1 4205   6.495   3.747   3.461
 1321WAT     H2 4206   6.338   3.786   3.484
 1322WAT      O 4207   9.695   3.116   5.546
 1322WAT     H1 4208   9.745   3.166   5.617
 1322WAT     H2 4209   9.741   3.030   5.526
 1323WAT      O 4210   3.764   6.406   6.615
 1323WAT     H1 4211   3.693   6.474   6.598
 1323WAT     H2 4212   3.738   6.350   6.693
 1324WAT      O 4213   3.560   3.980   7.365
 1324WAT     H1 4214   3.571   4.036   7.283
 1324WAT     H2 4215   3.630   3.910   7.368
 1325WAT      O 4216   1.686   3.847   0.940
 1325WAT     H1 4217   1.592   3.828   0.968
 1325WAT     H2 4218   1.733   3.896   1.014
 1326WAT      O 4219   1.830   1.917   7.159
 1326WAT     H1 4220   1.809   1.913   7.062
 1326WAT     H2 4221   1.924   1.946   7.173
 1327WAT      O 4222   4.840   3.509   5.076
 1327WAT     H1 4223   4.757   3.565   5.075
 1327WAT     H2 4224   4.817   3.414   5.055
 1328WAT      O 4225   6.409   0.862   3.027
 1328WAT     H1 4226   6.375   0.776   2.991
 1328WAT     H2 4227   6.354   0.889   3.107
 1329WAT      O 4228   7.735   4.031   8.882
 1329WAT     H1 4229   7.731   4.078   8.970
 1329WAT     H2 4230   7.803   4.076   8.824
 1330WAT      O 4231   8.927   5.621   8.831
 1330WAT     H1 4232   8.981   5.548   8.873
 1330WAT     H2 4233   8.984   5.673   8.768
 1331WAT      O 4234   9.349   2.359   0.832
 1331WAT     H1 4235   9.415   2.324   0.765
 1331WAT     H2 4236   9.261   2.313   0.819
 1332WAT      O 4237   6.604   0.906   6.313
 1332WAT     H1 4238   6.607   0.989   6.257
 1332WAT     H2 4239   6.660   0.920   6.395
 1333WAT      O 4240   5.543   2.357   1.486
 1333WAT     H1 4241   5.557   2.421   1.562
 1333WAT     H2 4242   5.446   2.355   1.462
 1334WAT      O 4243   0.457   6.029   6.624
 1334WAT     H1 4244   0.463   6.116   6.574
 1334WAT     H2 4245   0.368   6.023   6.668
 1335WAT      O 4246   5.953   0.665   6.563
 1335WAT     H1 4247   6.043   0.705   6.579
 1335WAT     H2 4248   5.944   0.642   6.466
 1336WAT      O 4249   1.961   5.023   8.336
 1336WAT     H1 4250   2.034   5.000   8.401
 1336WAT     H2 4251   1.925   5.114   8.358
 1337WAT      O 4252   5.792   5.502   2.125
 1337WAT     H1 4253   5.875   5.448   2.113
 1337WAT     H2 4254   5.723   5.475   2.058
 1338WAT      O 4255   5.462   8.767   1.323
 1338WAT     H1 4256   5.469   8.750   1.224
 1338WAT     H2 4257   5.536   8.829   1.351
 1339WAT      O 4258   2.547   9.033   1.799
 1339WAT     H1 4259   2.488   9.076   1.867
 1339WAT     H2 4260   2.507   9.043   1.708
 1340WAT      O 4261   6.646   4.734   2.803
 1340WAT     H1 4262   6.579   4.776   2.742
 1340WAT     H2 4263   6.671   4.799   2.875
 1341WAT      O 4264   8.806   6.463   7.777
 1341WAT     H1 4265   8.804   6.557   7.813
 1341WAT     H2 4266   8.712   6.432   7.761
 1342WAT      O 4267   4.327   9.710   1.129
 1342WAT     H1 4268   4.403   9.773   1.142
 1342WAT     H2 4269   4.359   9.616   1.142
 1343WAT      O 4270   6.036   4.327   7.593
 1343WAT     H1 4271   5.967   4.285   7.653
 1343WAT     H2 4272   6.119   4.271   7.595
 1344WAT      O 4273   1.146   2.816   1.243
 1344WAT     H1 4274   1.182   2.812   1.336
 1344WAT     H2 4275   1.217   2.788   1.178
 1345WAT      O 4276   1.934   7.488   4.251
 1345WAT     H1 4277   2.026   7.456   4.227
 1345WAT     H2 4278   1.883   7.509   4.167
 1346WAT      O 4279   9.447   0.800   2.491
 1346WAT     H1 4280   9.498   0.882   2.464
 1346WAT     H2 4281   9.350   0.813   2.471
 1347WAT      O 4282   1.518   7.070   6.357
 1347WAT     H1 4283   1.607   7.099   6.320
 1347WAT     H2 4284   1.521   6.972   6.377
 1348WAT      O 4285   3.156   8.337   6.068
 1348WAT     H1 4286   3.096   8.292   6.134
 1348WAT     H2 4287   3.247   8.296   6.072
 1349WAT      O 4288   7.051   4.835   7.008
 1349WAT     H1 4289   7.117   4.809   6.939
 1349WAT     H2 4290   7.019   4.928   6.991
 1350WAT      O 4291   3.733   1.948   7.812
 1350WAT     H1 4292   3.670   1.990   7.877
 1350WAT     H2 4293   3.827   1.975   7.834
 1351WAT      O 4294   1.739   5.288   7.994
 1351WAT     H1 4295   1.792   5.348   7.934
 1351WAT     H2 4296   1.756   5.193   7.970
 1352WAT      O 4297   2.139   4.873   2.699
 1352WAT     H1 4298   2.082   4.955   2.701
 1352WAT     H2 4299   2.080   4.792   2.695
 1353WAT      O 4300   8.847   0.495   6.809
 1353WAT     H1 4301   8.847   0.570   6.743
 1353WAT     H2 4302   8.773   0.508   6.875
 1354WAT      O 4303   9.369   6.790   7.000
 1354WAT     H1 4304   9.427   6.867   6.970
 1354WAT     H2 4305   9.392   6.709   6.946
 1355WAT      O 4306   7.344   9.804   0.924
 1355WAT     H1 4307   7.290   9.842   0.999
 1355WAT     H2 4308   7.442   9.817   0.944
 1356WAT      O 4309   3.635   1.174   7.474
 1356WAT     H1 4310   3.582   1.105   7.425
 1356WAT     H2 4311   3.725   1.138   7.496
 1357WAT      O 4312   4.211   8.073   6.678
 1357WAT     H1 4313   4.115   8.080   6.706
 1357WAT     H2 4314   4.235   8.149   6.618
 1358WAT      O 4315   1.877   0.383   8.579
 1358WAT     H1 4316   1.883   0.455   8.511
 1358WAT     H2 4317   1.923   0.301   8.545
 1359WAT      O 4318   3.859   5.045   0.858
 1359WAT     H1 4319   3.774   5.035   0.806
 1359WAT     H2 4320   3.855   4.988   0.940
 1360WAT      O 4321   0.203   6.634   9.244
 1360WAT     H1 4322   0.104   6.644   9.247
 1360WAT     H2 4323   0.227   6.538   9.257
 1361WAT      O 4324   0.219   2.470   6.341
 1361WAT     H1 4325   0.188   2.401   6.407
 1361WAT     H2 4326   0.225   2.429   6.250
 1362WAT      O 4327   6.374   0.925   3.955
 1362WAT     H1 4328   6.304   0.857   3.933
 1362WAT     H2 4329   6.407   0.966   3.870
 1363WAT      O 4330   2.111   1.470   1.292
 1363WAT     H1 4331   2.186   1.470   1.225
 1363WAT     H2 4332   2.025   1.453   1.244
 1364WAT      O 4333   3.737   7.549   2.250
 1364WAT     H1 4334   3.663   7.497   2.294
 1364WAT     H2 4335   3.725   7.646   2.269
 1365WAT      O 4336   0.336   3.732   7.900
 1365WAT     H1 4337   0.256   3.732   7.839
 1365WAT     H2 4338   0.327   3.658   7.966
 1366WAT      O 4339   7.885   9.289   3.339
 1366WAT     H1 4340   7.914   9.252   3.427
 1366WAT     H2 4341   7.965   9.327   3.291
 1367WAT      O 4342   1.463   4.857   0.914
 1367WAT     H1 4343   1.382   4.800   0.896
 1367WAT     H2 4344   1.545   4.808   0.886
 1368WAT      O 4345   0.366   1.527   3.466
 1368WAT     H1 4346   0.301   1.601   3.449
 1368WAT     H2 4347   0.441   1.562   3.522
 1369WAT      O 4348   9.716   8.635   2.201
 1369WAT     H1 4349   9.668   8.556   2.240
 1369WAT     H2 4350   9.776   8.605   2.127
 1370WAT      O 4351   6.023   2.310   6.199
 1370WAT     H1 4352   6.072   2.265   6.274
 1370WAT     H2 4353   6.063   2.399   6.180
 1371WAT      O 4354   0.546   1.533   9.806
 1371WAT     H1 4355   0.507   1.614   9.762
 1371WAT     H2 4356   0.632   1.510   9.761
 1372WAT      O 4357   5.642   4.440   1.220
 1372WAT     H1 4358   5.651   4.532   1.182
 1372WAT     H2 4359   5.732   4.397   1.225
 1373WAT      O 4360   5.360   7.358   8.007
 1373WAT     H1 4361   5.366   7.445   7.958
 1373WAT     H2 4362   5.447   7.340   8.053
 1374WAT      O 4363   0.366   5.918   5.414
 1374WAT     H1 4364   0.385   5.905   5.512
 1374WAT     H2 4365   0.446   5.960   5.371
 1375WAT      O 4366   3.352   7.941   0.540
 1375WAT     H1 4367   3.418   8.015   0.527
 1375WAT     H2 4368   3.398   7.861   0.578
 1376WAT      O 4369   7.125   8.733   5.369
 1376WAT     H1 4370   7.114   8.831   5.350
 1376WAT     H2 4371   7.114   8.681   5.284
 1377WAT      O 4372   7.493   7.231   2.120
 1377WAT     H1 4373   7.589   7.229   2.094
 1377WAT     H2 4374   7.485   7.221   2.219
 1378WAT      O 4375   0.071   2.525   1.348
 1378WAT     H1 4376   0.055   2.552   1.443
 1378WAT     H2 4377   0.168   2.531   1.327
 1379WAT      O 4378   3.671   5.089   4.093
 1379WAT     H1 4379   3.708   5.108   4.184
 1379WAT     H2 4380   3.595   5.025   4.101
 1380WAT      O 4381   2.237   4.288   0.709
 1380WAT     H1 4382   2.212   4.208   0.764
 1380WAT     H2 4383   2.190   4.285   0.621
 1381WAT      O 4384   3.300   3.419   4.977
 1381WAT     H1 4385   3.284   3.381   5.069
 1381WAT     H2 4386   3.218   3.407   4.921
 1382WAT      O 4387   0.502   9.460   3.536
 1382WAT     H1 4388   0.585   9.412   3.563
 1382WAT     H2 4389   0.498   9.549   3.582
 1383WAT      O 4390   6.049   8.650   6.221
 1383WAT     H1 4391   6.137   8.634   6.175
 1383WAT     H2 4392   6.030   8.748   6.224
 1384WAT      O 4393   1.001   4.173   0.775
 1384WAT     H1 4394   0.918   4.153   0.827
 1384WAT     H2 4395   0.985   4.155   0.678
 1385WAT      O 4396   7.372   4.406   6.887
 1385WAT     H1 4397   7.365   4.380   6.984
 1385WAT     H2 4398   7.357   4.505   6.879
 1386WAT      O 4399   0.988   9.476   3.541
 1386WAT     H1 4400   0.932   9.414   3.485
 1386WAT     H2 4401   0.950   9.482   3.633
 1387WAT      O 4402   7.890   4.376   8.823
 1387WAT     H1 4403   7.919   4.287   8.787
 1387WAT     H2 4404   7.795   4.392   8.797
 1388WAT      O 4405   8.202   6.434   0.042
 1388WAT     H1 4406   8.281   6.408   0.097
 1388WAT     H2 4407   8.178   6.529   0.060
 1389WAT      O 4408   4.712   0.858   0.990
 1389WAT     H1 4409   4.748   0.880   0.900
 1389WAT     H2 4410   4.771   0.791   1.035
 1390WAT      O 4411   8.428   5.168   6.235
 1390WAT     H1 4412   8.354   5.203   6.293
 1390WAT     H2 4413   8.439   5.227   6.155
 1391WAT      O 4414   8.509   4.539   7.801
 1391WAT     H1 4415   8.456   4.500   7.727
 1391WAT     H2 4416   8.601   4.560   7.769
 1392WAT      O 4417   7.276   9.389   2.101
 1392WAT     H1 4418   7.209   9.447   2.147
 1392WAT     H2 4419   7.331   9.445   2.039
 1393WAT      O 4420   8.215   6.760   7.950
 1393WAT     H1 4421   8.254   6.701   8.022
 1393WAT     H2 4422   8.211   6.854   7.983
 1394WAT      O 4423   8.871   8.644   4.846
 1394WAT     H1 4424   8.814   8.661   4.926
 1394WAT     H2 4425   8.836   8.696   4.768
 1395WAT      O 4426   3.557   8.161   6.938
 1395WAT     H1 4427   3.518   8.084   6.990
 1395WAT     H2 4428   3.652   8.174   6.965
 1396WAT      O 4429   2.367   4.263   2.361
 1396WAT     H1 4430   2.435   4.213   2.416
 1396WAT     H2 4431   2.404   4.354   2.339
 1397WAT      O 4432   4.214   0.594   8.842
 1397WAT     H1 4433   4.150   0.603   8.918
 1397WAT     H2 4434   4.265   0.679   8.830
 1398WAT      O 4435   2.773   7.665   9.762
 1398WAT     H1 4436   2.832   7.585   9.751
 1398WAT     H2 4437   2.812   7.742   9.711
 1399WAT      O 4438   9.816   9.661   0.300
 1399WAT     H1 4439   9.794   9.612   0.216
 1399WAT     H2 4440   9.732   9.690   0.345
 1400WAT      O 4441   1.339   2.514   7.908
 1400WAT     H1 4442   1.269   2.528   7.978
 1400WAT     H2 4443   1.402   2.591   7.907
 1401WAT      O 4444   3.671   7.509   1.969
 1401WAT     H1 4445   3.744   7.478   1.910
 1401WAT     H2 4446   3.707   7.527   2.061
 1402WAT      O 4447   1.456   5.481   1.403
 1402WAT     H1 4448   1.506   5.458   1.486
 1402WAT     H2 4449   1.516   5.471   1.324
 1403WAT      O 4450   1.542   2.525   6.432
 1403WAT     H1 4451   1.618   2.466   6.402
 1403WAT     H2 4452   1.475   2.470   6.481
 1404WAT      O 4453   4.957   3.780   0.413
 1404WAT     H1 4454   4.871   3.757   0.460
 1404WAT     H2 4455   5.006   3.850   0.465
 1405WAT      O 4456   3.437   9.005   8.700
 1405WAT     H1 4457   3.444   8.953   8.615
 1405WAT     H2 4458   3.423   9.101   8.678
 1406WAT      O 4459   4.546   0.351   1.527
 1406WAT     H1 4460   4.550   0.266   1.579
 1406WAT     H2 4461   4.635   0.398   1.533
 1407WAT      O 4462   8.092   2.976   5.495
 1407WAT     H1 4463   8.122   3.032   5.418
 1407WAT     H2 4464   8.163   2.910   5.519
 1408WAT      O 4465   6.485   2.254   8.272
 1408WAT     H1 4466   6.564   2.315   8.274
 1408WAT     H2 4467   6.439   2.262   8.184
 1409WAT      O 4468   2.859   0.952   7.365
 1409WAT     H1 4469   2.853   1.049   7.342
 1409WAT     H2 4470   2.829   0.938   7.460
 1410WAT      O 4471   7.457   0.432   1.097
 1410WAT     H1 4472   7.511   0.407   1.016
 1410WAT     H2 4473   7.504   0.505   1.147
 1411WAT      O 4474   7.900   8.505   2.884
 1411WAT     H1 4475   7.995   8.495   2.915
 1411WAT     H2 4476   7.890   8.460   2.795
 1412WAT      O 4477   1.898   0.686   8.986
 1412WAT     H1 4478   1.847   0.769   8.964
 1412WAT     H2 4479   1.986   0.710   9.027
 1413WAT      O 4480   5.704   2.959   6.521
 1413WAT     H1 4481   5.624   2.967   6.581
 1413WAT     H2 4482   5.742   2.866   6.528
 1414WAT      O 4483   5.025   8.184   8.156
 1414WAT     H1 4484   4.977   8.096   8.147
 1414WAT     H2 4485   5.085   8.181   8.236
 1415WAT      O 4486   2.491   1.548   1.477
 1415WAT     H1 4487   2.469   1.633   1.429
 1415WAT     H2 4488   2.584   1.521   1.456
 1416WAT      O 4489   6.330   8.113   8.160
 1416WAT     H1 4490   6.279   8.113   8.246
 1416WAT     H2 4491   6.320   8.202   8.116
 1417WAT      O 4492   2.507   2.102   7.216
 1417WAT     H1 4493   2.444   2.174   7.246
 1417WAT     H2 4494   2.473   2.014   7.248
 1418WAT      O 4495   8.036   3.182   6.122
 1418WAT     H1 4496   7.945   3.212   6.094
 1418WAT     H2 4497   8.096   3.176   6.043
 1419WAT      O 4498   6.824   4.789   5.000
 1419WAT     H1 4499   6.765   4.851   4.948
 1419WAT     H2 4500   6.901   4.840   5.038
 1420WAT      O 4501   0.532   1.770   8.401
 1420WAT     H1 4502   0.444   1.745   8.361
 1420WAT     H2 4503   0.517   1.822   8.486
 1421WAT      O 4504   6.049   5.798   9.000
 1421WAT     H1 4505   6.078   5.844   9.084
 1421WAT     H2 4506   6.129   5.785   8.941
 1422WAT      O 4507   8.872   7.393   4.338
 1422WAT     H1 4508   8.855   7.352   4.428
 1422WAT     H2 4509   8.818   7.477   4.330
 1423WAT      O 4510   9.623   6.220   2.670
 1423WAT     H1 4511   9.614   6.142   2.609
 1423WAT     H2 4512   9.630   6.188   2.765
 1424WAT      O 4513   6.332   9.176   1.585
 1424WAT     H1 4514   6.385   9.128   1.655
 1424WAT     H2 4515   6.240   9.138   1.581
 1425WAT      O 4516   6.455   1.122   2.222
 1425WAT     H1 4517   6.366   1.157   2.196
 1425WAT     H2 4518   6.526   1.190   2.202
 1426WAT      O 4519   9.695   1.737   6.773
 1426WAT     H1 4520   9.716   1.804   6.845
 1426WAT     H2 4521   9.761   1.748   6.698
 1427WAT      O 4522   0.969   4.645   7.122
 1427WAT     H1 4523   0.920   4.659   7.036
 1427WAT     H2 4524   0.953   4.552   7.155
 1428WAT      O 4525   5.533   6.163   8.252
 1428WAT     H1 4526   5.600   6.099   8.291
 1428WAT     H2 4527   5.465   6.112   8.199
 1429WAT      O 4528   4.159   5.894   3.420
 1429WAT     H1 4529   4.067   5.932   3.426
 1429WAT     H2 4530   4.159   5.817   3.357
 1430WAT      O 4531   5.586   1.435   8.173
 1430WAT     H1 4532   5.677   1.420   8.135
 1430WAT     H2 4533   5.523   1.461   8.099
 1431WAT      O 4534   9.435   0.537   1.489
 1431WAT     H1 4535   9.377   0.577   1.560
 1431WAT     H2 4536   9.447   0.603   1.414
 1432WAT      O 4537   7.683   1.026   4.377
 1432WAT     H1 4538   7.717   1.104   4.429
 1432WAT     H2 4539   7.760   0.974   4.340
 1433WAT      O 4540   1.263   4.371   7.893
 1433WAT     H1 4541   1.194   4.394   7.961
 1433WAT     H2 4542   1.336   4.317   7.935
 1434WAT      O 4543   2.960   2.749   8.426
 1434WAT     H1 4544   2.882   2.706   8.472
 1434WAT     H2 4545   2.945   2.749   8.327
 1435WAT      O 4546   3.008   8.245   4.181
 1435WAT     H1 4547   3.020   8.148   4.159
 1435WAT     H2 4548   2.981   8.254   4.276
 1436WAT      O 4549   1.106   5.124   7.112
 1436WAT     H1 4550   1.107   5.128   7.212
 1436WAT     H2 4551   1.199   5.136   7.077
 1437WAT      O 4552   6.279   3.819   3.028
 1437WAT     H1 4553   6.237   3.737   2.990
 1437WAT     H2 4554   6.237   3.840   3.116
 1438WAT      O 4555   4.956   8.874   6.713
 1438WAT     H1 4556   4.958   8.807   6.787
 1438WAT     H2 4557   5.036   8.933   6.719
 1439WAT      O 4558   2.539   8.031   2.776
 1439WAT     H1 4559   2.567   8.058   2.868
 1439WAT     H2 4560   2.549   8.108   2.713
 1440WAT      O 4561   5.567   1.698   5.691
 1440WAT     H1 4562   5.635   1.734   5.756
 1440WAT     H2 4563   5.612   1.636   5.627
 1441WAT      O 4564   9.256   7.036   8.411
 1441WAT     H1 4565   9.352   7.059   8.391
 1441WAT     H2 4566   9.208   7.017   8.325
 1442WAT      O 4567   2.383   4.137   5.169
 1442WAT     H1 4568   2.422   4.079   5.098
 1442WAT     H2 4569   2.455   4.187   5.216
 1443WAT      O 4570   5.724   6.843   2.557
 1443WAT     H1 4571   5.764   6.901   2.486
 1443WAT     H2 4572   5.654   6.894   2.606
 1444WAT      O 4573   8.025   9.778   6.890
 1444WAT     H1 4574   8.024   9.678   6.895
 1444WAT     H2 4575   7.989   9.815   6.976
 1445WAT      O 4576   7.704   1.487   7.689
 1445WAT     H1 4577   7.730   1.557   7.622
 1445WAT     H2 4578   7.620   1.516   7.736
 1446WAT      O 4579   0.082   3.186   0.341
 1446WAT     H1 4580   0.025   3.113   0.304
 1446WAT     H2 4581   0.162   3.199   0.283
 1447WAT      O 4582   7.636   0.202   3.708
 1447WAT     H1 4583   7.539   0.228   3.699
 1447WAT     H2 4584   7.643   0.120   3.764
 1448WAT      O 4585   6.362   3.187   8.742
 1448WAT     H1 4586   6.423   3.264   8.723
 1448WAT     H2 4587   6.408   3.101   8.720
 1449WAT      O 4588   8.263   1.273   6.372
 1449WAT     H1 4589   8.267   1.184   6.417
 1449WAT     H2 4590   8.320   1.338   6.421
 1450WAT      O 4591   7.024   3.175   1.529
 1450WAT     H1 4592   7.035   3.231   1.611
 1450WAT     H2 4593   7.086   3.208   1.457
 1451WAT      O 4594   3.888   1.855   3.746
 1451WAT     H1 4595   3.953   1.806   3.688
 1451WAT     H2 4596   3.930   1.940   3.778
 1452WAT      O 4597   1.858   5.779   8.112
 1452WAT     H1 4598   1.819   5.739   8.195
 1452WAT     H2 4599   1.806   5.862   8.088
 1453WAT      O 4600   3.191   8.152   2.828
 1453WAT     H1 4601   3.234   8.229   2.876
 1453WAT     H2 4602   3.262   8.087   2.801
 1454WAT      O 4603   3.477   3.514   8.600
 1454WAT     H1 4604   3.523   3.428   8.618
 1454WAT     H2 4605   3.545   3.587   8.588
 1455WAT      O 4606   7.872   4.746   0.839
 1455WAT     H1 4607   7.809   4.754   0.762
 1455WAT     H2 4608   7.964   4.729   0.804
 1456WAT      O 4609   8.183   0.703   8.711
 1456WAT     H1 4610   8.215   0.621   8.758
 1456WAT     H2 4611   8.137   0.763   8.776
 1457WAT      O 4612   5.933   8.056   7.513
 1457WAT     H1 4613   6.021   8.065   7.465
 1457WAT     H2 4614   5.945   7.998   7.593
 1458WAT      O 4615   7.263   0.683   4.025
 1458WAT     H1 4616   7.338   0.648   3.969
 1458WAT     H2 4617   7.276   0.654   4.120
 1459WAT      O 4618   6.251   2.765   6.505
 1459WAT     H1 4619   6.348   2.756   6.525
 1459WAT     H2 4620   6.205   2.814   6.579
 1460WAT      O 4621   6.594   4.883   5.800
 1460WAT     H1 4622   6.516   4.871   5.738
 1460WAT     H2 4623   6.645   4.964   5.773
 1461WAT      O 4624   6.238   5.494   9.080
 1461WAT     H1 4625   6.201   5.544   9.158
 1461WAT     H2 4626   6.204   5.400   9.082
 1462WAT      O 4627   7.357   6.208   2.419
 1462WAT     H1 4628   7.289   6.281   2.420
 1462WAT     H2 4629   7.449   6.248   2.419
 1463WAT      O 4630   8.214   7.703   4.443
 1463WAT     H1 4631   8.156   7.649   4.383
 1463WAT     H2 4632   8.158   7.767   4.495
 1464WAT      O 4633   7.921   0.448   0.629
 1464WAT     H1 4634   7.869   0.369   0.597
 1464WAT     H2 4635   8.013   0.445   0.591
 1465WAT      O 4636   3.140   2.969   4.183
 1465WAT     H1 4637   3.221   3.023   4.158
 1465WAT     H2 4638   3.088   3.017   4.253
 1466WAT      O 4639   7.461   6.456   4.501
 1466WAT     H1 4640   7.425   6.426   4.589
 1466WAT     H2 4641   7.560   6.464   4.506
 1467WAT      O 4642   4.990   9.807   3.388
 1467WAT     H1 4643   5.022   9.892   3.431
 1467WAT     H2 4644   5.012   9.730   3.448
 1468WAT      O 4645   1.035   5.542   4.583
 1468WAT     H1 4646   0.940   5.558   4.554
 1468WAT     H2 4647   1.058   5.607   4.655
 1469WAT      O 4648   7.004   8.595   2.461
 1469WAT     H1 4649   6.929   8.617   2.523
 1469WAT     H2 4650   6.975   8.524   2.397
 1470WAT      O 4651   1.435   9.470   9.445
 1470WAT     H1 4652   1.367   9.402   9.472
 1470WAT     H2 4653   1.392   9.560   9.442
 1471WAT      O 4654   7.527   5.361   3.559
 1471WAT     H1 4655   7.581   5.325   3.635
 1471WAT     H2 4656   7.476   5.441   3.590
 1472WAT      O 4657   2.583   7.181   4.000
 1472WAT     H1 4658   2.568   7.087   3.970
 1472WAT     H2 4659   2.531   7.198   4.084
 1473WAT      O 4660   2.903   6.188   4.912
 1473WAT     H1 4661   2.996   6.172   4.880
 1473WAT     H2 4662   2.890   6.145   5.001
 1474WAT      O 4663   8.788   3.985   5.985
 1474WAT     H1 4664   8.739   3.899   5.974
 1474WAT     H2 4665   8.738   4.043   6.050
 1475WAT      O 4666   3.118   0.027   9.159
 1475WAT     H1 4667   3.186   0.017   9.231
 1475WAT     H2 4668   3.092   0.124   9.150
 1476WAT      O 4669   3.183   1.970   0.222
 1476WAT     H1 4670   3.135   1.992   0.137
 1476WAT     H2 4671   3.253   2.040   0.239
 1477WAT      O 4672   8.656   6.399   9.005
 1477WAT     H1 4673   8.626   6.420   8.912
 1477WAT     H2 4674   8.604   6.321   9.040
 1478WAT      O 4675   9.286   9.489   0.384
 1478WAT     H1 4676   9.254   9.430   0.458
 1478WAT     H2 4677   9.244   9.461   0.298
 1479WAT      O 4678   5.571   9.382   6.212
 1479WAT     H1 4679   5.649   9.374   6.274
 1479WAT     H2 4680   5.585   9.461   6.152
 1480WAT      O 4681   7.028   0.537   2.955
 1480WAT     H1 4682   7.091   0.531   3.033
 1480WAT     H2 4683   6.941   0.574   2.986
 1481WAT      O 4684   9.106   6.557   5.764
 1481WAT     H1 4685   9.023   6.501   5.765
 1481WAT     H2 4686   9.087   6.647   5.801
 1482WAT      O 4687   2.326   4.332   5.896
 1482WAT     H1 4688   2.344   4.293   5.805
 1482WAT     H2 4689   2.400   4.308   5.958
 1483WAT      O 4690   6.818   5.671   1.604
 1483WAT     H1 4691   6.917   5.679   1.595
 1483WAT     H2 4692   6.784   5.605   1.537
 1484WAT      O 4693   2.197   6.851   2.217
 1484WAT     H1 4694   2.166   6.856   2.312
 1484WAT     H2 4695   2.275   6.912   2.204
 1485WAT      O 4696   9.677   8.829   5.327
 1485WAT     H1 4697   9.626   8.783   5.253
 1485WAT     H2 4698   9.697   8.923   5.300
 1486WAT      O 4699   2.240   2.376   9.639
 1486WAT     H1 4700   2.301   2.398   9.715
 1486WAT     H2 4701   2.147   2.402   9.662
 1487WAT      O 4702   0.482   4.521   3.773
 1487WAT     H1 4703   0.424   4.520   3.855
 1487WAT     H2 4704   0.576   4.498   3.799
 1488WAT      O 4705   5.358   7.634   8.171
 1488WAT     H1 4706   5.454   7.660   8.176
 1488WAT     H2 4707   5.348   7.539   8.199
 1489WAT      O 4708   6.413   2.473   0.562
 1489WAT     H1 4709   6.466   2.520   0.491
 1489WAT     H2 4710   6.316   2.472   0.536
 1490WAT      O 4711   0.703   6.421   0.535
 1490WAT     H1 4712   0.623   6.474   0.505
 1490WAT     H2 4713   0.674   6.331   0.565
 1491WAT      O 4714   6.465   0.077   8.391
 1491WAT     H1 4715   6.486   0.070   8.488
 1491WAT     H2 4716   6.546   0.108   8.341
 1492WAT      O 4717   0.995   4.397   7.522
 1492WAT     H1 4718   1.000   4.351   7.610
 1492WAT     H2 4719   1.085   4.396   7.478
 1493WAT      O 4720   6.212   6.933   3.408
 1493WAT     H1 4721   6.169   7.017   3.440
 1493WAT     H2 4722   6.311   6.943   3.409
 1494WAT      O 4723   5.901   8.026   5.405
 1494WAT     H1 4724   5.909   8.095   5.334
 1494WAT     H2 4725   5.845   8.061   5.480
 1495WAT      O 4726   0.853   1.671   9.273
 1495WAT     H1 4727   0.913   1.725   9.214
 1495WAT     H2 4728   0.907   1.604   9.324
 1496WAT      O 4729   9.362   4.740   7.484
 1496WAT     H1 4730   9.337   4.777   7.573
 1496WAT     H2 4731   9.401   4.812   7.427
 1497WAT      O 4732   1.730   5.607   8.726
 1497WAT     H1 4733   1.727   5.601   8.826
 1497WAT     H2 4734   1.725   5.515   8.687
 1498WAT      O 4735   0.548   2.491   3.065
 1498WAT     H1 4736   0.630   2.479   3.009
 1498WAT     H2 4737   0.533   2.588   3.083
 1499WAT      O 4738   7.337   3.213   4.519
 1499WAT     H1 4739   7.279   3.131   4.514
 1499WAT     H2 4740   7.281   3.292   4.546
 1500WAT      O 4741   0.947   0.256   6.193
 1500WAT     H1 4742   0.936   0.184   6.124
 1500WAT     H2 4743   0.947   0.345   6.148
 1501WAT      O 4744   2.192   5.405   8.307
 1501WAT     H1 4745   2.144   5.436   8.389
 1501WAT     H2 4746   2.285   5.443   8.307
 1502WAT      O 4747   3.016   2.912   5.173
 1502WAT     H1 4748   2.939   2.920   5.109
 1502WAT     H2 4749   3.076   2.990   5.163
 1503WAT      O 4750   6.512   9.629   3.973
 1503WAT     H1 4751   6.415   9.649   3.985
 1503WAT     H2 4752   6.527   9.531   3.986
 1504WAT      O 4753   1.090   9.080   8.761
 1504WAT     H1 4754   1.053   9.151   8.701
 1504WAT     H2 4755   1.154   9.023   8.709
 1505WAT      O 4756   3.016   2.355   4.251
 1505WAT     H1 4757   3.013   2.255   4.249
 1505WAT     H2 4758   3.024   2.390   4.157
 1506WAT      O 4759   1.845   9.364   8.677
 1506WAT     H1 4760   1.870   9.455   8.643
 1506WAT     H2 4761   1.772   9.373   8.744
 1507WAT      O 4762   4.454   3.612   8.556
 1507WAT     H1 4763   4.373   3.660   8.591
 1507WAT     H2 4764   4.524   3.678   8.532
 1508WAT      O 4765   1.018   8.213   5.320
 1508WAT     H1 4766   1.049   8.246   5.409
 1508WAT     H2 4767   0.945   8.146   5.333
 1509WAT      O 4768   9.074   4.904   8.452
 1509WAT     H1 4769   9.157   4.956   8.473
 1509WAT     H2 4770   8.995   4.964   8.454
 1510WAT      O 4771   5.081   3.114   9.689
 1510WAT     H1 4772   5.018   3.071   9.623
 1510WAT     H2 4773   5.156   3.158   9.639
 1511WAT      O 4774   2.916   1.051   5.409
 1511WAT     H1 4775   3.003   1.094   5.384
 1511WAT     H2 4776   2.911   0.959   5.371
 1512WAT      O 4777   5.175   6.589   6.461
 1512WAT     H1 4778   5.120   6.505   6.453
 1512WAT     H2 4779   5.260   6.569   6.509
 1513WAT      O 4780   5.588   4.733   7.471
 1513WAT     H1 4781   5.560   4.641   7.445
 1513WAT     H2 4782   5.684   4.731   7.501
 1514WAT      O 4783   7.807   0.710   0.676
 1514WAT     H1 4784   7.839   0.618   0.652
 1514WAT     H2 4785   7.774   0.756   0.594
 1515WAT      O 4786   5.688   5.504   0.241
 1515WAT     H1 4787   5.717   5.511   0.336
 1515WAT     H2 4788   5.633   5.584   0.216
 1516WAT      O 4789   6.872   2.543   3.826
 1516WAT     H1 4790   6.932   2.578   3.754
 1516WAT     H2 4791   6.796   2.606   3.839
 1517WAT      O 4792   3.345   7.207   5.345
 1517WAT     H1 4793   3.363   7.302   5.372
 1517WAT     H2 4794   3.358   7.197   5.246
 1518WAT      O 4795   3.984   8.201   9.074
 1518WAT     H1 4796   3.999   8.261   9.152
 1518WAT     H2 4797   4.061   8.137   9.066
 1519WAT      O 4798   2.661   3.645   7.796
 1519WAT     H1 4799   2.601   3.581   7.749
 1519WAT     H2 4800   2.715   3.696   7.730
 1520WAT      O 4801   2.612   2.545   3.496
 1520WAT     H1 4802   2.579   2.540   3.590
 1520WAT     H2 4803   2.565   2.477   3.440
 1521WAT      O 4804   4.300   8.586   2.180
 1521WAT     H1 4805   4.361   8.510   2.155
 1521WAT     H2 4806   4.255   8.621   2.098
 1522WAT      O 4807   7.245   5.891   4.558
 1522WAT     H1 4808   7.313   5.827   4.594
 1522WAT     H2 4809   7.245   5.887   4.458
 1523WAT      O 4810   3.408   2.877   5.313
 1523WAT     H1 4811   3.334   2.827   5.359
 1523WAT     H2 4812   3.414   2.846   5.218
 1524WAT      O 4813   7.484   5.326   8.352
 1524WAT     H1 4814   7.559   5.316   8.287
 1524WAT     H2 4815   7.507   5.398   8.419
 1525WAT      O 4816   1.262   1.876   4.973
 1525WAT     H1 4817   1.190   1.862   4.905
 1525WAT     H2 4818   1.340   1.818   4.950
 1526WAT      O 4819   2.588   4.281   2.844
 1526WAT     H1 4820   2.604   4.184   2.825
 1526WAT     H2 4821   2.663   4.335   2.806
 1527WAT      O 4822   4.292   3.274   7.015
 1527WAT     H1 4823   4.216   3.256   6.953
 1527WAT     H2 4824   4.328   3.365   6.998
 1528WAT      O 4825   4.063   4.835   2.686
 1528WAT     H1 4826   4.103   4.743   2.681
 1528WAT     H2 4827   4.134   4.904   2.676
 1529WAT      O 4828   3.089   1.061   3.251
 1529WAT     H1 4829   3.091   0.966   3.220
 1529WAT     H2 4830   2.995   1.094   3.252
 1530WAT      O 4831   1.590   7.679   4.340
 1530WAT     H1 4832   1.613   7.712   4.249
 1530WAT     H2 4833   1.661   7.708   4.405
 1531WAT      O 4834   9.838   4.753   6.410
 1531WAT     H1 4835   9.908   4.797   6.466
 1531WAT     H2 4836   9.754   4.743   6.463
 1532WAT      O 4837   7.715   7.182   7.235
 1532WAT     H1 4838   7.814   7.169   7.238
 1532WAT     H2 4839   7.687   7.206   7.142
 1533WAT      O 4840   3.722   5.235   7.407
 1533WAT     H1 4841   3.742   5.318   7.355
 1533WAT     H2 4842   3.703   5.260   7.502
 1534WAT      O 4843   3.081   0.519   6.998
 1534WAT     H1 4844   2.997   0.566   6.971
 1534WAT     H2 4845   3.127   0.572   7.069
 1535WAT      O 4846   7.456   0.653   7.757
 1535WAT     H1 4847   7.401   0.574   7.782
 1535WAT     H2 4848   7.467   0.713   7.836
 1536WAT      O 4849   3.435   8.203   1.225
 1536WAT     H1 4850   3.513   8.247   1.182
 1536WAT     H2 4851   3.464   8.160   1.311
 1537WAT      O 4852   1.653   4.786   7.889
 1537WAT     H1 4853   1.690   4.879   7.885
 1537WAT     H2 4854   1.601   4.774   7.973
 1538WAT      O 4855   4.184   4.221   8.663
 1538WAT     H1 4856   4.133   4.289   8.612
 1538WAT     H2 4857   4.261   4.188   8.608
 1539WAT      O 4858   5.900   8.014   2.016
 1539WAT     H1 4859   5.967   8.078   2.053
 1539WAT     H2 4860   5.816   8.019   2.070
 1540WAT      O 4861   6.782   2.609   0.923
 1540WAT     H1 4862   6.792   2.701   0.886
 1540WAT     H2 4863   6.691   2.600   0.964
 1541WAT      O 4864   9.334   9.701   9.483
 1541WAT     H1 4865   9.265   9.739   9.421
 1541WAT     H2 4866   9.402   9.652   9.430
 1542WAT      O 4867   3.142   5.439   5.823
 1542WAT     H1 4868   3.107   5.533   5.814
 1542WAT     H2 4869   3.067   5.377   5.844
 1543WAT      O 4870   8.032   1.947   0.452
 1543WAT     H1 4871   8.092   1.910   0.380
 1543WAT     H2 4872   7.940   1.961   0.415
 1544WAT      O 4873   0.138   0.813   8.136
 1544WAT     H1 4874   0.154   0.824   8.234
 1544WAT     H2 4875   0.225   0.793   8.090
 1545WAT      O 4876   6.879   4.738   3.407
 1545WAT     H1 4877   6.820   4.740   3.488
 1545WAT     H2 4878   6.874   4.646   3.366
 1546WAT      O 4879   4.770   7.784   8.856
 1546WAT     H1 4880   4.729   7.719   8.921
 1546WAT     H2 4881   4.832   7.845   8.905
 1547WAT      O 4882   8.321   6.285   9.213
 1547WAT     H1 4883   8.228   6.249   9.204
 1547WAT     H2 4884   8.337   6.354   9.143
 1548WAT      O 4885   3.048   8.779   7.945
 1548WAT     H1 4886   3.140   8.740   7.952
 1548WAT     H2 4887   2.982   8.715   7.983
 1549WAT      O 4888   6.280   0.575   2.814
 1549WAT     H1 4889   6.337   0.595   2.894
 1549WAT     H2 4890   6.229   0.490   2.830
 1550WAT      O 4891   9.181   6.172   8.581
 1550WAT     H1 4892   9.183   6.114   8.500
 1550WAT     H2 4893   9.272   6.209   8.598
 1551WAT      O 4894   4.462   3.349   8.575
 1551WAT     H1 4895   4.406   3.315   8.651
 1551WAT     H2 4896   4.469   3.448   8.580
 1552WAT      O 4897   8.418   1.520   7.213
 1552WAT     H1 4898   8.397   1.422   7.222
 1552WAT     H2 4899   8.332   1.572   7.208
 1553WAT      O 4900   6.801   5.043   6.377
 1553WAT     H1 4901   6.732   4.979   6.342
 1553WAT     H2 4902   6.782   5.134   6.341
 1554WAT      O 4903   1.989   7.779   4.318
 1554WAT     H1 4904   1.990   7.686   4.357
 1554WAT     H2 4905   1.995   7.773   4.218
 1555WAT      O 4906   6.397   9.069   2.023
 1555WAT     H1 4907   6.304   9.105   2.037
 1555WAT     H2 4908   6.460   9.117   2.083
 1556WAT      O 4909   9.163   9.723   5.562
 1556WAT     H1 4910   9.085   9.665   5.589
 1556WAT     H2 4911   9.148   9.758   5.470
 1557WAT      O 4912   3.063   6.709   3.434
 1557WAT     H1 4913   3.097   6.626   3.391
 1557WAT     H2 4914   3.049   6.693   3.532
 1558WAT      O 4915   8.293   3.560   8.194
 1558WAT     H1 4916   8.253   3.561   8.285
 1558WAT     H2 4917   8.280   3.469   8.153
 1559WAT      O 4918   0.121   3.413   9.657
 1559WAT     H1 4919   0.151   3.331   9.707
 1559WAT     H2 4920   0.139   3.400   9.560
 1560WAT      O 4921   6.842   1.355   7.795
 1560WAT     H1 4922   6.894   1.298   7.731
 1560WAT     H2 4923   6.773   1.299   7.841
 1561WAT      O 4924   8.767   8.986   1.964
 1561WAT     H1 4925   8.864   8.992   1.989
 1561WAT     H2 4926   8.724   9.075   1.975
 1562WAT      O 4927   6.742   0.883   2.973
 1562WAT     H1 4928   6.644   0.887   2.989
 1562WAT     H2 4929   6.779   0.801   3.015
 1563WAT      O 4930   6.571   7.422   4.442
 1563WAT     H1 4931   6.522   7.397   4.526
 1563WAT     H2 4932   6.520   7.388   4.363
 1564WAT      O 4933   6.050   0.958   1.435
 1564WAT     H1 4934   6.123   0.889   1.445
 1564WAT     H2 4935   6.011   0.952   1.344
 1565WAT      O 4936   0.439   1.366   6.746
 1565WAT     H1 4937   0.345   1.402   6.752
 1565WAT     H2 4938   0.504   1.442   6.751
 1566WAT      O 4939   1.836   0.776   8.515
 1566WAT     H1 4940   1.829   0.874   8.533
 1566WAT     H2 4941   1.927   0.744   8.542
 1567WAT      O 4942   2.027   2.749   3.727
 1567WAT     H1 4943   1.947   2.808   3.735
 1567WAT     H2 4944   2.110   2.806   3.725
 1568WAT      O 4945   6.619   6.502   6.494
 1568WAT     H1 4946   6.586   6.473   6.584
 1568WAT     H2 4947   6.546   6.491   6.427
 1569WAT      O 4948   4.650   6.231   2.262
 1569WAT     H1 4949   4.555   6.239   2.291
 1569WAT     H2 4950   4.655   6.173   2.181
 1570WAT      O 4951   1.546   3.303   3.047
 1570WAT     H1 4952   1.507   3.274   2.959
 1570WAT     H2 4953   1.535   3.402   3.057
 1571WAT      O 4954   1.229   6.563   2.334
 1571WAT     H1 4955   1.187   6.493   2.392
 1571WAT     H2 4956   1.237   6.528   2.240
 1572WAT      O 4957   5.776   9.561   9.439
 1572WAT     H1 4958   5.739   9.515   9.358
 1572WAT     H2 4959   5.858   9.612   9.415
 1573WAT      O 4960   2.230   4.805   6.441
 1573WAT     H1 4961   2.250   4.880   6.503
 1573WAT     H2 4962   2.131   4.797   6.430
 1574WAT      O 4963   6.674   8.299   9.880
 1574WAT     H1 4964   6.725   8.276   9.962
 1574WAT     H2 4965   6.614   8.377   9.899
 1575WAT      O 4966   3.301   9.383   6.059
 1575WAT     H1 4967   3.359   9.423   5.987
 1575WAT     H2 4968   3.219   9.440   6.070
 1576WAT      O 4969   3.985   8.058   5.687
 1576WAT     H1 4970   3.956   7.975   5.637
 1576WAT     H2 4971   3.923   8.075   5.763
 1577WAT      O 4972   5.815   8.311   7.486
 1577WAT     H1 4973   5.830   8.215   7.510
 1577WAT     H2 4974   5.722   8.337   7.512
 1578WAT      O 4975   0.714   5.178   0.244
 1578WAT     H1 4976   0.739   5.251   0.181
 1578WAT     H2 4977   0.619   5.150   0.227
 1579WAT      O 4978   9.512   1.091   9.512
 1579WAT     H1 4979   9.530   1.074   9.609
 1579WAT     H2 4980   9.570   1.166   9.479
 1580WAT      O 4981   2.140   4.151   6.466
 1580WAT     H1 4982   2.151   4.226   6.530
 1580WAT     H2 4983   2.164   4.065   6.511
 1581WAT      O 4984   7.121   9.552   3.464
 1581WAT     H1 4985   7.174   9.520   3.385
 1581WAT     H2 4986   7.042   9.605   3.433
 1582WAT      O 4987   3.321   6.253   9.264
 1582WAT     H1 4988   3.349   6.157   9.266
 1582WAT     H2 4989   3.267   6.274   9.346
 1583WAT      O 4990   1.728   8.757   0.154
 1583WAT     H1 4991   1.709   8.662   0.130
 1583WAT     H2 4992   1.827   8.769   0.168
 1584WAT      O 4993   3.583   7.302   2.383
 1584WAT     H1 4994   3.629   7.266   2.302
 1584WAT     H2 4995   3.641   7.288   2.463
 1585WAT      O 4996   7.345   4.713   9.042
 1585WAT     H1 4997   7.318   4.794   8.991
 1585WAT     H2 4998   7.422   4.669   8.996
 1586WAT      O 4999   8.879   8.225   7.639
 1586WAT     H1 5000   8.830   8.229   7.727
 1586WAT     H2 5001   8.840   8.151   7.584
 1587WAT      O 5002   0.679   1.681   7.646
 1587WAT     H1 5003   0.631   1.744   7.584
 1587WAT     H2 5004   0.744   1.626   7.593
 1588WAT      O 5005   8.662   5.746   8.678
 1588WAT     H1 5006   8.621   5.730   8.768
 1588WAT     H2 5007   8.745   5.692   8.669
 1589WAT      O 5008   9.474   2.356   3.287
 1589WAT     H1 5009   9.486   2.283   3.219
 1589WAT     H2 5010   9.562   2.403   3.301
 1590WAT      O 5011   5.789   1.432   2.032
 1590WAT     H1 5012   5.703   1.484   2.041
 1590WAT     H2 5013   5.865   1.495   2.019
 1591WAT      O 5014   9.325   6.807   4.480
 1591WAT     H1 5015   9.263   6.738   4.518
 1591WAT     H2 5016   9.276   6.894   4.470
 1592WAT      O 5017   2.244   0.484   8.791
 1592WAT     H1 5018   2.145   0.479   8.801
 1592WAT     H2 5019   2.275   0.412   8.729
 1593WAT      O 5020   8.730   4.804   2.045
 1593WAT     H1 5021   8.722   4.803   2.145
 1593WAT     H2 5022   8.809   4.859   2.018
 1594WAT      O 5023   6.017   6.009   2.588
 1594WAT     H1 5024   6.040   6.088   2.532
 1594WAT     H2 5025   5.941   6.032   2.649
 1595WAT      O 5026   2.699   6.939   9.462
 1595WAT     H1 5027   2.794   6.971   9.466
 1595WAT     H2 5028   2.673   6.923   9.367
 1596WAT      O 5029   7.350   4.081   9.166
 1596WAT     H1 5030   7.350   4.153   9.236
 1596WAT     H2 5031   7.263   4.081   9.117
 1597WAT      O 5032   3.810   4.456   1.794
 1597WAT     H1 5033   3.827   4.415   1.884
 1597WAT     H2 5034   3.726   4.418   1.756
 1598WAT      O 5035   6.697   2.258   8.082
 1598WAT     H1 5036   6.693   2.182   8.147
 1598WAT     H2 5037   6.779   2.250   8.027
 1599WAT      O 5038   8.911   7.359   5.811
 1599WAT     H1 5039   8.871   7.329   5.724
 1599WAT     H2 5040   8.994   7.412   5.793
 1600WAT      O 5041   3.491   7.209   2.832
 1600WAT     H1 5042   3.447   7.227   2.920
 1600WAT     H2 5043   3.448   7.265   2.761
 1601WAT      O 5044   2.315   2.383   8.961
 1601WAT     H1 5045   2.364   2.444   9.022
 1601WAT     H2 5046   2.378   2.344   8.894
 1602WAT      O 5047   0.346   6.775   9.021
 1602WAT     H1 5048   0.318   6.751   9.114
 1602WAT     H2 5049   0.442   6.804   9.022
 1603WAT      O 5050   3.387   1.246   3.050
 1603WAT     H1 5051   3.476   1.237   3.095
 1603WAT     H2 5052   3.394   1.213   2.956
 1604WAT      O 5053   5.663   4.502   6.440
 1604WAT     H1 5054   5.638   4.411   6.472
 1604WAT     H2 5055   5.669   4.565   6.517
 1605WAT      O 5056   7.528   2.706   6.612
 1605WAT     H1 5057   7.471   2.763   6.671
 1605WAT     H2 5058   7.594   2.656   6.668
 1606WAT      O 5059   0.118   7.048   1.578
 1606WAT     H1 5060   0.100   7.107   1.498
 1606WAT     H2 5061   0.038   7.050   1.638
 1607WAT      O 5062   8.143   8.324   7.483
 1607WAT     H1 5063   8.222   8.263   7.484
 1607WAT     H2 5064   8.095   8.315   7.396
 1608WAT      O 5065   0.843   0.881   4.463
 1608WAT     H1 5066   0.878   0.844   4.377
 1608WAT     H2 5067   0.867   0.820   4.538
 1609WAT      O 5068   9.184   6.627   7.439
 1609WAT     H1 5069   9.243   6.651   7.516
 1609WAT     H2 5070   9.093   6.665   7.453
 1610WAT      O 5071   3.873   3.665   3.642
 1610WAT     H1 5072   3.968   3.638   3.656
 1610WAT     H2 5073   3.814   3.584   3.647
 1611WAT      O 5074   6.071   2.745   2.079
 1611WAT     H1 5075   6.030   2.724   1.990
 1611WAT     H2 5076   6.068   2.665   2.138
 1612WAT      O 5077   2.659   0.522   5.076
 1612WAT     H1 5078   2.691   0.496   5.167
 1612WAT     H2 5079   2.574   0.574   5.084
 1613WAT      O 5080   0.845   4.179   5.148
 1613WAT     H1 5081   0.846   4.104   5.214
 1613WAT     H2 5082   0.862   4.143   5.056
 1614WAT      O 5083   3.101   9.241   7.247
 1614WAT     H1 5084   3.081   9.275   7.339
 1614WAT     H2 5085   3.188   9.193   7.247
 1615WAT      O 5086   6.515   9.786   7.411
 1615WAT     H1 5087   6.512   9.686   7.419
 1615WAT     H2 5088   6.611   9.815   7.408
 1616WAT      O 5089   6.358   7.746   8.382
 1616WAT     H1 5090   6.312   7.795   8.456
 1616WAT     H2 5091   6.331   7.650   8.384
 1617WAT      O 5092   6.324   3.998   5.554
 1617WAT     H1 5093   6.309   3.906   5.517
 1617WAT     H2 5094   6.394   4.044   5.501
 1618WAT      O 5095   8.035   5.448   5.005
 1618WAT     H1 5096   8.098   5.523   4.982
 1618WAT     H2 5097   8.012   5.454   5.102
 1619WAT      O 5098   6.376   5.454   0.438
 1619WAT     H1 5099   6.475   5.463   0.426
 1619WAT     H2 5100   6.330   5.537   0.407
 1620WAT      O 5101   6.406   3.990   7.888
 1620WAT     H1 5102   6.398   3.898   7.925
 1620WAT     H2 5103   6.329   4.046   7.919
 1621WAT      O 5104   0.766   1.843   4.570
 1621WAT     H1 5105   0.793   1.793   4.488
 1621WAT     H2 5106   0.791   1.940   4.560
 1622WAT      O 5107   7.573   1.582   8.533
 1622WAT     H1 5108   7.660   1.532   8.540
 1622WAT     H2 5109   7.587   1.678   8.556
 1623WAT      O 5110   7.881   3.017   8.560
 1623WAT     H1 5111   7.793   2.974   8.582
 1623WAT     H2 5112   7.878   3.113   8.589
 1624WAT      O 5113   0.595   9.800   1.781
 1624WAT     H1 5114   0.626   9.707   1.804
 1624WAT     H2 5115   0.598   9.812   1.681
 1625WAT      O 5116   2.574   5.942   4.004
 1625WAT     H1 5117   2.657   5.991   4.030
 1625WAT     H2 5118   2.494   5.992   4.039
 1626WAT      O 5119   0.236   3.486   0.840
 1626WAT     H1 5120   0.162   3.426   0.871
 1626WAT     H2 5121   0.318   3.469   0.895
 1627WAT      O 5122   0.160   5.244   1.061
 1627WAT     H1 5123   0.188   5.263   0.966
 1627WAT     H2 5124   0.238   5.259   1.121
 1628WAT      O 5125   7.669   4.203   5.919
 1628WAT     H1 5126   7.602   4.135   5.890
 1628WAT     H2 5127   7.642   4.293   5.886
 1629WAT      O 5128   1.056   6.120   0.082
 1629WAT     H1 5129   1.124   6.180   0.040
 1629WAT     H2 5130   1.063   6.127   0.182
 1630WAT      O 5131   5.009   9.587   8.525
 1630WAT     H1 5132   5.045   9.513   8.469
 1630WAT     H2 5133   5.044   9.675   8.492
 1631WAT      O 5134   9.495   7.648   0.045
 1631WAT     H1 5135   9.457   7.591  -0.028
 1631WAT     H2 5136   9.422   7.678   0.106
 1632WAT      O 5137   3.721   8.127   2.164
 1632WAT     H1 5138   3.780   8.192   2.117
 1632WAT     H2 5139   3.626   8.160   2.160
 1633WAT      O 5140   2.892   7.006   5.051
 1633WAT     H1 5141   2.925   7.027   4.958
 1633WAT     H2 5142   2.793   6.990   5.048
 1634WAT      O 5143   0.878   7.602   7.184
 1634WAT     H1 5144   0.939   7.663   7.132
 1634WAT     H2 5145   0.929   7.519   7.209
 1635WAT      O 5146   3.804   7.656   6.480
 1635WAT     H1 5147   3.888   7.636   6.429
 1635WAT     H2 5148   3.764   7.571   6.513
 1636WAT      O 5149   0.678   5.806   5.662
 1636WAT     H1 5150   0.684   5.712   5.695
 1636WAT     H2 5151   0.695   5.808   5.563
 1637WAT      O 5152   3.918   9.725   7.916
 1637WAT     H1 5153   3.844   9.683   7.969
 1637WAT     H2 5154   3.940   9.815   7.955
 1638WAT      O 5155   1.032   9.744   9.312
 1638WAT     H1 5156   0.934   9.760   9.326
 1638WAT     H2 5157   1.052   9.647   9.322
 1639WAT      O 5158   1.503   7.130   3.018
 1639WAT     H1 5159   1.539   7.149   3.109
 1639WAT     H2 5160   1.579   7.123   2.953
 1640WAT      O 5161   7.563   4.557   8.949
 1640WAT     H1 5162   7.575   4.485   8.881
 1640WAT     H2 5163   7.519   4.520   9.030
 1641WAT      O 5164   9.508   6.205   6.524
 1641WAT     H1 5165   9.530   6.244   6.614
 1641WAT     H2 5166   9.578   6.138   6.499
 1642WAT      O 5167   2.995   0.633   0.648
 1642WAT     H1 5168   3.003   0.731   0.631
 1642WAT     H2 5169   3.080   0.599   0.688
 1643WAT      O 5170   6.570   9.211   3.802
 1643WAT     H1 5171   6.592   9.298   3.758
 1643WAT     H2 5172   6.654   9.162   3.824
 1644WAT      O 5173   3.259   1.548   7.648
 1644WAT     H1 5174   3.270   1.461   7.697
 1644WAT     H2 5175   3.173   1.547   7.597
 1645WAT      O 5176   8.295   6.573   8.155
 1645WAT     H1 5177   8.344   6.602   8.237
 1645WAT     H2 5178   8.334   6.487   8.122
 1646WAT      O 5179   2.628   5.746   5.414
 1646WAT     H1 5180   2.667   5.656   5.394
 1646WAT     H2 5181   2.553   5.765   5.350
 1647WAT      O 5182   4.161   3.695   3.656
 1647WAT     H1 5183   4.242   3.637   3.652
 1647WAT     H2 5184   4.181   3.777   3.710
 1648WAT      O 5185   2.706   2.631   3.967
 1648WAT     H1 5186   2.764   2.667   4.040
 1648WAT     H2 5187   2.692   2.701   3.897
 1649WAT      O 5188   2.826   0.619   0.441
 1649WAT     H1 5189   2.911   0.635   0.490
 1649WAT     H2 5190   2.799   0.523   0.450
 1650WAT      O 5191   9.465   3.287   7.649
 1650WAT     H1 5192   9.408   3.361   7.614
 1650WAT     H2 5193   9.546   3.276   7.592
 1651WAT      O 5194   0.312   4.485   5.860
 1651WAT     H1 5195   0.233   4.440   5.903
 1651WAT     H2 5196   0.285   4.522   5.772
 1652WAT      O 5197   4.369   1.568   6.332
 1652WAT     H1 5198   4.333   1.622   6.409
 1652WAT     H2 5199   4.430   1.497   6.367
 1653WAT      O 5200   4.466   6.976   1.475
 1653WAT     H1 5201   4.402   6.900   1.489
 1653WAT     H2 5202   4.491   6.982   1.379
 1654WAT      O 5203   7.305   8.014   0.087
 1654WAT     H1 5204   7.226   8.047   0.034
 1654WAT     H2 5205   7.290   8.033   0.184
 1655WAT      O 5206   0.131   2.516   1.622
 1655WAT     H1 5207   0.179   2.429   1.634
 1655WAT     H2 5208   0.149   2.575   1.700
 1656WAT      O 5209   0.388   4.285   2.749
 1656WAT     H1 5210   0.327   4.210   2.772
 1656WAT     H2 5211   0.483   4.255   2.757
 1657WAT      O 5212   0.126   4.396   8.372
 1657WAT     H1 5213   0.214   4.374   8.414
 1657WAT     H2 5214   0.128   4.490   8.339
 1658WAT      O 5215   9.610   9.539   8.093
 1658WAT     H1 5216   9.655   9.464   8.142
 1658WAT     H2 5217   9.608   9.620   8.150
 1659WAT      O 5218   7.255   4.825   4.787
 1659WAT     H1 5219   7.175   4.817   4.727
 1659WAT     H2 5220   7.325   4.881   4.742
 1660WAT      O 5221   1.800   8.230   8.782
 1660WAT     H1 5222   1.824   8.284   8.701
 1660WAT     H2 5223   1.797   8.133   8.758
 1661WAT      O 5224   2.463   7.742   4.344
 1661WAT     H1 5225   2.484   7.721   4.248
 1661WAT     H2 5226   2.542   7.786   4.386
 1662WAT      O 5227   8.558   5.565   4.508
 1662WAT     H1 5228   8.508   5.514   4.578
 1662WAT     H2 5229   8.502   5.570   4.425
 1663WAT      O 5230   3.499   2.586   7.493
 1663WAT     H1 5231   3.489   2.556   7.588
 1663WAT     H2 5232   3.577   2.540   7.452
 1664WAT      O 5233   0.742   2.553   1.732
 1664WAT     H1 5234   0.655   2.555   1.783
 1664WAT     H2 5235   0.771   2.458   1.721
 1665WAT      O 5236   5.576   8.104   1.772
 1665WAT     H1 5237   5.673   8.103   1.748
 1665WAT     H2 5238   5.521   8.093   1.690
 1666WAT      O 5239   0.817   8.505   6.703
 1666WAT     H1 5240   0.750   8.575   6.679
 1666WAT     H2 5241   0.896   8.547   6.748
 1667WAT      O 5242   7.090   8.729   8.790
 1667WAT     H1 5243   7.185   8.761   8.788
 1667WAT     H2 5244   7.032   8.795   8.742
 1668WAT      O 5245   4.816   0.093   1.007
 1668WAT     H1 5246   4.721   0.123   1.010
 1668WAT     H2 5247   4.876   0.173   1.010
 1669WAT      O 5248   8.101   7.341   2.648
 1669WAT     H1 5249   8.063   7.256   2.684
 1669WAT     H2 5250   8.183   7.365   2.700
 1670WAT      O 5251   5.965   1.705   3.866
 1670WAT     H1 5252   5.879   1.700   3.815
 1670WAT     H2 5253   5.983   1.800   3.892
 1671WAT      O 5254   3.791   0.682   5.783
 1671WAT     H1 5255   3.719   0.749   5.763
 1671WAT     H2 5256   3.773   0.599   5.732
 1672WAT      O 5257   5.977   4.934   6.339
 1672WAT     H1 5258   5.922   4.944   6.256
 1672WAT     H2 5259   6.074   4.934   6.315
 1673WAT      O 5260   2.617   9.210   4.959
 1673WAT     H1 5261   2.686   9.278   4.936
 1673WAT     H2 5262   2.659   9.119   4.959
 1674WAT      O 5263   4.010   4.427   2.253
 1674WAT     H1 5264   4.106   4.444   2.229
 1674WAT     H2 5265   4.005   4.353   2.320
 1675WAT      O 5266   8.651   0.960   8.298
 1675WAT     H1 5267   8.642   1.038   8.361
 1675WAT     H2 5268   8.689   0.882   8.347
 1676WAT      O 5269   3.243   9.823   8.928
 1676WAT     H1 5270   3.190   9.848   9.009
 1676WAT     H2 5271   3.229   9.726   8.909
 1677WAT      O 5272   5.460   4.156   2.543
 1677WAT     H1 5273   5.428   4.062   2.534
 1677WAT     H2 5274   5.426   4.210   2.466
 1678WAT      O 5275   3.637   1.296   6.589
 1678WAT     H1 5276   3.723   1.251   6.565
 1678WAT     H2 5277   3.612   1.362   6.518
 1679WAT      O 5278   6.143   7.783   6.775
 1679WAT     H1 5279   6.057   7.767   6.728
 1679WAT     H2 5280   6.217   7.736   6.728
 1680WAT      O 5281   6.411   1.960   1.069
 1680WAT     H1 5282   6.439   2.039   1.015
 1680WAT     H2 5283   6.316   1.970   1.098
 1681WAT      O 5284   5.579   5.095   9.511
 1681WAT     H1 5285   5.559   5.179   9.460
 1681WAT     H2 5286   5.590   5.019   9.447
 1682WAT      O 5287   7.733   6.047   8.515
 1682WAT     H1 5288   7.828   6.079   8.521
 1682WAT     H2 5289   7.718   6.003   8.427
 1683WAT      O 5290   6.941   2.316   9.790
 1683WAT     H1 5291   6.973   2.400   9.833
 1683WAT     H2 5292   6.928   2.332   9.692
 1684WAT      O 5293   1.013   1.654   0.084
 1684WAT     H1 5294   1.103   1.654   0.040
 1684WAT     H2 5295   0.942   1.662   0.015
 1685WAT      O 5296   1.422   1.597   9.335
 1685WAT     H1 5297   1.406   1.560   9.427
 1685WAT     H2 5298   1.355   1.668   9.315
 1686WAT      O 5299   0.033   3.143   8.081
 1686WAT     H1 5300   0.071   3.211   8.018
 1686WAT     H2 5301  -0.062   3.125   8.056
 1687WAT      O 5302   4.807   5.574   0.480
 1687WAT     H1 5303   4.874   5.507   0.509
 1687WAT     H2 5304   4.840   5.619   0.396
 1688WAT      O 5305   7.842   1.498   6.677
 1688WAT     H1 5306   7.754   1.456   6.655
 1688WAT     H2 5307   7.916   1.438   6.649
 1689WAT      O 5308   9.485   0.596   4.210
 1689WAT     H1 5309   9.463   0.514   4.157
 1689WAT     H2 5310   9.581   0.595   4.236
 1690WAT      O 5311   4.378   5.600   2.177
 1690WAT     H1 5312   4.369   5.588   2.276
 1690WAT     H2 5313   4.288   5.610   2.136
 1691WAT      O 5314   9.691   1.572   1.230
 1691WAT     H1 5315   9.638   1.629   1.292
 1691WAT     H2 5316   9.787   1.573   1.258
 1692WAT      O 5317   7.213   8.798   9.151
 1692WAT     H1 5318   7.144   8.805   9.224
 1692WAT     H2 5319   7.230   8.701   9.132
 1693WAT      O 5320   8.844   0.424   0.675
 1693WAT     H1 5321   8.884   0.496   0.731
 1693WAT     H2 5322   8.845   0.338   0.726
 1694WAT      O 5323   3.931   8.958   0.662
 1694WAT     H1 5324   4.029   8.966   0.646
 1694WAT     H2 5325   3.895   9.046   0.694
 1695WAT      O 5326   2.513   1.118   8.463
 1695WAT     H1 5327   2.540   1.026   8.434
 1695WAT     H2 5328   2.414   1.124   8.467
 1696WAT      O 5329   5.275   6.254   9.553
 1696WAT     H1 5330   5.280   6.336   9.496
 1696WAT     H2 5331   5.359   6.245   9.606
 1697WAT      O 5332   3.091   8.874   7.102
 1697WAT     H1 5333   2.993   8.854   7.094
 1697WAT     H2 5334   3.134   8.804   7.160
 1698WAT      O 5335   6.535   9.394   2.328
 1698WAT     H1 5336   6.482   9.410   2.411
 1698WAT     H2 5337   6.574   9.481   2.297
 1699WAT      O 5338   6.557   1.416   0.741
 1699WAT     H1 5339   6.570   1.328   0.696
 1699WAT     H2 5340   6.479   1.464   0.699
 1700WAT      O 5341   8.125   8.556   7.593
 1700WAT     H1 5342   8.033   8.594   7.582
 1700WAT     H2 5343   8.128   8.464   7.555
 1701WAT      O 5344   4.037   4.284   8.121
 1701WAT     H1 5345   3.960   4.315   8.065
 1701WAT     H2 5346   4.045   4.342   8.202
 1702WAT      O 5347   9.073   1.137   0.001
 1702WAT     H1 5348   9.077   1.225  -0.046
 1702WAT     H2 5349   9.030   1.150   0.091
 1703WAT      O 5350   3.129   3.250   7.177
 1703WAT     H1 5351   3.176   3.300   7.105
 1703WAT     H2 5352   3.057   3.194   7.137
 1704WAT      O 5353   0.653   2.845   6.715
 1704WAT     H1 5354   0.582   2.876   6.651
 1704WAT     H2 5355   0.692   2.924   6.762
 1705WAT      O 5356   5.835   6.360   6.977
 1705WAT     H1 5357   5.753   6.415   6.961
 1705WAT     H2 5358   5.896   6.409   7.040
 1706WAT      O 5359   2.566   4.150   2.544
 1706WAT     H1 5360   2.486   4.126   2.599
 1706WAT     H2 5361   2.649   4.126   2.595
 1707WAT      O 5362   2.484   2.722   4.828
 1707WAT     H1 5363   2.445   2.630   4.818
 1707WAT     H2 5364   2.523   2.750   4.740
 1708WAT      O 5365   4.636   0.349   1.835
 1708WAT     H1 5366   4.672   0.422   1.777
 1708WAT     H2 5367   4.702   0.329   1.907
 1709WAT      O 5368   1.938   5.466   6.711
 1709WAT     H1 5369   1.880   5.400   6.664
 1709WAT     H2 5370   2.014   5.492   6.651
 1710WAT      O 5371   2.683   7.410   6.940
 1710WAT     H1 5372   2.723   7.382   6.853
 1710WAT     H2 5373   2.710   7.344   7.011
 1711WAT      O 5374   4.271   8.796   4.983
 1711WAT     H1 5375   4.310   8.710   4.950
 1711WAT     H2 5376   4.331   8.871   4.958
 1712WAT      O 5377   5.206   4.498   9.467
 1712WAT     H1 5378   5.261   4.497   9.384
 1712WAT     H2 5379   5.225   4.582   9.519
 1713WAT      O 5380   6.895   8.024   7.488
 1713WAT     H1 5381   6.971   7.965   7.517
 1713WAT     H2 5382   6.922   8.120   7.497
 1714WAT      O 5383   0.544   6.826   6.701
 1714WAT     H1 5384   0.537   6.749   6.764
 1714WAT     H2 5385   0.465   6.826   6.640
 1715WAT      O 5386   9.274   3.218   8.613
 1715WAT     H1 5387   9.300   3.228   8.516
 1715WAT     H2 5388   9.261   3.309   8.653
 1716WAT      O 5389   7.748   3.723   3.900
 1716WAT     H1 5390   7.760   3.758   3.993
 1716WAT     H2 5391   7.688   3.643   3.902
 1717WAT      O 5392   4.436   4.926   6.268
 1717WAT     H1 5393   4.436   4.843   6.324
 1717WAT     H2 5394   4.352   4.929   6.213
 1718WAT      O 5395   4.901   9.074   2.594
 1718WAT     H1 5396   4.929   8.994   2.541
 1718WAT     H2 5397   4.939   9.067   2.687
 1719WAT      O 5398   9.321   9.032   6.483
 1719WAT     H1 5399   9.373   9.092   6.543
 1719WAT     H2 5400   9.366   9.026   6.393
 1720WAT      O 5401   8.669   0.125   7.845
 1720WAT     H1 5402   8.626   0.205   7.804
 1720WAT     H2 5403   8.600   0.066   7.886
 1721WAT      O 5404   5.183   0.768   1.246
 1721WAT     H1 5405   5.259   0.802   1.191
 1721WAT     H2 5406   5.215   0.692   1.303
 1722WAT      O 5407   6.571   4.728   2.090
 1722WAT     H1 5408   6.633   4.662   2.133
 1722WAT     H2 5409   6.499   4.753   2.154
 1723WAT      O 5410   5.979   3.335   7.553
 1723WAT     H1 5411   5.959   3.433   7.550
 1723WAT     H2 5412   5.991   3.306   7.648
 1724WAT      O 5413   7.259   0.996   1.583
 1724WAT     H1 5414   7.204   1.079   1.578
 1724WAT     H2 5415   7.325   1.005   1.659
 1725WAT      O 5416   2.490   4.816   7.950
 1725WAT     H1 5417   2.578   4.784   7.984
 1725WAT     H2 5418   2.416   4.765   7.994
 1726WAT      O 5419   3.465   2.321   4.106
 1726WAT     H1 5420   3.443   2.393   4.040
 1726WAT     H2 5421   3.557   2.336   4.142
 1727WAT      O 5422   3.859   8.940   1.652
 1727WAT     H1 5423   3.908   8.943   1.740
 1727WAT     H2 5424   3.924   8.926   1.578
 1728WAT      O 5425   3.874   2.736   8.284
 1728WAT     H1 5426   3.947   2.709   8.221
 1728WAT     H2 5427   3.898   2.707   8.377
 1729WAT      O 5428   0.349   5.518   1.639
 1729WAT     H1 5429   0.378   5.604   1.597
 1729WAT     H2 5430   0.330   5.534   1.736
 1730WAT      O 5431   9.126   3.199   6.573
 1730WAT     H1 5432   9.077   3.196   6.485
 1730WAT     H2 5433   9.208   3.143   6.567
 1731WAT      O 5434   4.766   1.848   7.565
 1731WAT     H1 5435   4.723   1.928   7.608
 1731WAT     H2 5436   4.763   1.771   7.628
 1732WAT      O 5437   7.843   2.909   7.544
 1732WAT     H1 5438   7.931   2.863   7.533
 1732WAT     H2 5439   7.807   2.933   7.454
 1733WAT      O 5440   5.304   5.147   3.092
 1733WAT     H1 5441   5.301   5.186   3.185
 1733WAT     H2 5442   5.273   5.215   3.026
 1734WAT      O 5443   2.626   9.441   0.622
 1734WAT     H1 5444   2.708   9.386   0.606
 1734WAT     H2 5445   2.550   9.404   0.569
 1735WAT      O 5446   6.289   0.385   6.724
 1735WAT     H1 5447   6.254   0.466   6.771
 1735WAT     H2 5448   6.355   0.412   6.654
 1736WAT      O 5449   0.738   3.570   8.969
 1736WAT     H1 5450   0.745   3.584   8.870
 1736WAT     H2 5451   0.686   3.644   9.010
 1737WAT      O 5452   8.926   4.217   1.459
 1737WAT     H1 5453   8.895   4.123   1.476
 1737WAT     H2 5454   9.021   4.226   1.490
 1738WAT      O 5455   4.177   0.259   5.841
 1738WAT     H1 5456   4.147   0.294   5.753
 1738WAT     H2 5457   4.265   0.213   5.830
 1739WAT      O 5458   4.595   1.631   3.095
 1739WAT     H1 5459   4.624   1.723   3.067
 1739WAT     H2 5460   4.594   1.626   3.195
 1740WAT      O 5461   2.549   9.204   3.052
 1740WAT     H1 5462   2.573   9.132   2.987
 1740WAT     H2 5463   2.559   9.293   3.008
 1741WAT      O 5464   8.816   2.967   4.503
 1741WAT     H1 5465   8.845   3.051   4.458
 1741WAT     H2 5466   8.886   2.897   4.492
 1742WAT      O 5467   5.448   0.510   7.248
 1742WAT     H1 5468   5.516   0.522   7.320
 1742WAT     H2 5469   5.436   0.596   7.198
 1743WAT      O 5470   8.486   9.644   2.611
 1743WAT     H1 5471   8.454   9.614   2.521
 1743WAT     H2 5472   8.576   9.605   2.629
 1744WAT      O 5473   4.535   0.072   7.962
 1744WAT     H1 5474   4.437   0.090   7.960
 1744WAT     H2 5475   4.563   0.054   8.057
 1745WAT      O 5476   2.715   2.104   8.689
 1745WAT     H1 5477   2.677   2.090   8.597
 1745WAT     H2 5478   2.815   2.099   8.684
 1746WAT      O 5479   3.550   2.176   1.273
 1746WAT     H1 5480   3.480   2.127   1.325
 1746WAT     H2 5481   3.510   2.258   1.233
 1747WAT      O 5482   4.380   5.120   6.951
 1747WAT     H1 5483   4.333   5.208   6.937
 1747WAT     H2 5484   4.351   5.081   7.038
 1748WAT      O 5485   4.628   0.052   6.143
 1748WAT     H1 5486   4.723   0.082   6.137
 1748WAT     H2 5487   4.567   0.130   6.130
 1749WAT      O 5488   0.159   0.922   7.396
 1749WAT     H1 5489   0.091   0.850   7.380
 1749WAT     H2 5490   0.154   0.989   7.322
 1750WAT      O 5491   7.794   8.140   4.408
 1750WAT     H1 5492   7.861   8.068   4.390
 1750WAT     H2 5493   7.815   8.184   4.495
 1751WAT      O 5494   9.660   6.053   7.530
 1751WAT     H1 5495   9.606   6.135   7.548
 1751WAT     H2 5496   9.675   6.044   7.432
 1752WAT      O 5497   2.874   2.659   9.829
 1752WAT     H1 5498   2.879   2.565   9.795
 1752WAT     H2 5499   2.929   2.667   9.912
 1753WAT      O 5500   4.462   7.975   8.908
 1753WAT     H1 5501   4.561   7.958   8.914
 1753WAT     H2 5502   4.414   7.907   8.964
 1754WAT      O 5503   3.984   8.350   5.678
 1754WAT     H1 5504   4.072   8.389   5.648
 1754WAT     H2 5505   3.993   8.251   5.685
 1755WAT      O 5506   7.673   9.375   1.638
 1755WAT     H1 5507   7.772   9.369   1.652
 1755WAT     H2 5508   7.650   9.338   1.547
 1756WAT      O 5509   5.553   0.497   6.277
 1756WAT     H1 5510   5.608   0.485   6.359
 1756WAT     H2 5511   5.481   0.565   6.293
 1757WAT      O 5512   8.172   7.257   6.337
 1757WAT     H1 5513   8.237   7.286   6.407
 1757WAT     H2 5514   8.139   7.165   6.359
 1758WAT      O 5515   9.592   6.437   0.929
 1758WAT     H1 5516   9.553   6.498   0.859
 1758WAT     H2 5517   9.627   6.354   0.885
 1759WAT      O 5518   6.580   1.566   2.700
 1759WAT     H1 5519   6.638   1.643   2.728
 1759WAT     H2 5520   6.629   1.510   2.633
 1760WAT      O 5521   3.671   6.668   7.049
 1760WAT     H1 5522   3.603   6.648   6.979
 1760WAT     H2 5523   3.684   6.767   7.055
 1761WAT      O 5524   1.098   2.240   1.345
 1761WAT     H1 5525   1.128   2.274   1.434
 1761WAT     H2 5526   1.122   2.306   1.274
 1762WAT      O 5527   0.169   8.210   9.477
 1762WAT     H1 5528   0.148   8.112   9.468
 1762WAT     H2 5529   0.128   8.245   9.561
 1763WAT      O 5530   4.718   9.520   6.968
 1763WAT     H1 5531   4.747   9.426   6.951
 1763WAT     H2 5532   4.719   9.538   7.066
 1764WAT      O 5533   4.350   2.962   0.186
 1764WAT     H1 5534   4.327   2.881   0.132
 1764WAT     H2 5535   4.375   3.037   0.125
 1765WAT      O 5536   9.791   6.842   7.536
 1765WAT     H1 5537   9.871   6.902   7.534
 1765WAT     H2 5538   9.819   6.748   7.522
 1766WAT      O 5539   0.663   1.575   1.584
 1766WAT     H1 5540   0.676   1.484   1.545
 1766WAT     H2 5541   0.645   1.640   1.510
 1767WAT      O 5542   2.566   8.939   9.522
 1767WAT     H1 5543   2.529   8.976   9.607
 1767WAT     H2 5544   2.652   8.891   9.541
 1768WAT      O 5545   8.317   9.441   8.219
 1768WAT     H1 5546   8.238   9.442   8.281
 1768WAT     H2 5547   8.312   9.519   8.157
 1769WAT      O 5548   8.809   0.416   4.258
 1769WAT     H1 5549   8.715   0.383   4.257
 1769WAT     H2 5550   8.812   0.511   4.227
 1770WAT      O 5551   6.176   4.414   3.216
 1770WAT     H1 5552   6.211   4.404   3.122
 1770WAT     H2 5553   6.201   4.504   3.251
 1771WAT      O 5554   0.531   2.645   8.116
 1771WAT     H1 5555   0.550   2.681   8.024
 1771WAT     H2 5556   0.603   2.675   8.179
 1772WAT      O 5557   2.118   7.158   5.111
 1772WAT     H1 5558   2.027   7.130   5.142
 1772WAT     H2 5559   2.144   7.105   5.030
 1773WAT      O 5560   7.531   1.630   0.832
 1773WAT     H1 5561   7.437   1.637   0.866
 1773WAT     H2 5562   7.536   1.662   0.738
 1774WAT      O 5563   6.773   9.774   3.934
 1774WAT     H1 5564   6.803   9.766   4.029
 1774WAT     H2 5565   6.691   9.718   3.920
 1775WAT      O 5566   9.414   9.044   8.969
 1775WAT     H1 5567   9.465   9.126   8.944
 1775WAT     H2 5568   9.355   9.063   9.048
 1776WAT      O 5569   1.084   4.447   8.082
 1776WAT     H1 5570   1.147   4.518   8.112
 1776WAT     H2 5571   1.007   4.489   8.033
 1777WAT      O 5572   6.403   3.980   6.010
 1777WAT     H1 5573   6.378   3.904   5.949
 1777WAT     H2 5574   6.330   3.992   6.078
 1778WAT      O 5575   0.207   2.487   5.614
 1778WAT     H1 5576   0.134   2.425   5.584
 1778WAT     H2 5577   0.284   2.433   5.647
 1779WAT      O 5578   2.888   0.729   6.835
 1779WAT     H1 5579   2.842   0.811   6.870
 1779WAT     H2 5580   2.968   0.756   6.783
 1780WAT      O 5581   6.798   8.971   2.827
 1780WAT     H1 5582   6.815   9.029   2.907
 1780WAT     H2 5583   6.875   8.909   2.815
 1781WAT      O 5584   8.026   8.092   6.181
 1781WAT     H1 5585   8.010   8.121   6.087
 1781WAT     H2 5586   7.972   8.148   6.243
 1782WAT      O 5587   0.193   2.700   4.087
 1782WAT     H1 5588   0.132   2.681   4.164
 1782WAT     H2 5589   0.147   2.762   4.022
 1783WAT      O 5590   1.731   9.625   9.408
 1783WAT     H1 5591   1.695   9.589   9.494
 1783WAT     H2 5592   1.792   9.557   9.367
 1784WAT      O 5593   7.171   8.202   9.418
 1784WAT     H1 5594   7.155   8.113   9.375
 1784WAT     H2 5595   7.120   8.207   9.504
 1785WAT      O 5596   8.973   6.241   3.512
 1785WAT     H1 5597   8.993   6.232   3.414
 1785WAT     H2 5598   9.021   6.320   3.549
 1786WAT      O 5599   2.650   2.843   8.247
 1786WAT     H1 5600   2.590   2.918   8.276
 1786WAT     H2 5601   2.743   2.878   8.234
 1787WAT      O 5602   3.214   6.196   0.182
 1787WAT     H1 5603   3.286   6.207   0.251
 1787WAT     H2 5604   3.150   6.273   0.189
 1788WAT      O 5605   4.032   6.791   9.866
 1788WAT     H1 5606   3.953   6.797   9.805
 1788WAT     H2 5607   4.007   6.827   9.956
 1789WAT      O 5608   2.998   7.855   0.701
 1789WAT     H1 5609   2.962   7.932   0.647
 1789WAT     H2 5610   3.007   7.882   0.796
 1790WAT      O 5611   0.156   0.936   0.622
 1790WAT     H1 5612   0.101   0.919   0.540
 1790WAT     H2 5613   0.191   1.029   0.621
 1791WAT      O 5614   1.560   8.037   7.786
 1791WAT     H1 5615   1.580   8.131   7.759
 1791WAT     H2 5616   1.577   7.976   7.708
 1792WAT      O 5617   1.132   0.103   9.631
 1792WAT     H1 5618   1.153   0.132   9.537
 1792WAT     H2 5619   1.040   0.133   9.655
 1793WAT      O 5620   6.811   4.196   4.436
 1793WAT     H1 5621   6.716   4.165   4.444
 1793WAT     H2 5622   6.823   4.243   4.349
 1794WAT      O 5623   6.877   0.344   9.172
 1794WAT     H1 5624   6.868   0.245   9.162
 1794WAT     H2 5625   6.962   0.375   9.129
 1795WAT      O 5626   9.764   0.447   3.950
 1795WAT     H1 5627   9.832   0.457   4.023
 1795WAT     H2 5628   9.674   0.430   3.991
 1796WAT      O 5629   8.060   1.576   7.838
 1796WAT     H1 5630   7.999   1.505   7.874
 1796WAT     H2 5631   8.134   1.592   7.903
 1797WAT      O 5632   6.980   3.401   0.896
 1797WAT     H1 5633   7.032   3.324   0.933
 1797WAT     H2 5634   6.902   3.366   0.844
 1798WAT      O 5635   4.445   2.234   4.812
 1798WAT     H1 5636   4.357   2.233   4.861
 1798WAT     H2 5637   4.455   2.321   4.764
 1799WAT      O 5638   0.079   4.314   2.520
 1799WAT     H1 5639   0.098   4.411   2.536
 1799WAT     H2 5640  -0.004   4.305   2.465
 1800WAT      O 5641   5.221   2.247   0.051
 1800WAT     H1 5642   5.316   2.223   0.032
 1800WAT     H2 5643   5.166   2.163   0.055
 1801WAT      O 5644   1.605   1.924   8.160
 1801WAT     H1 5645   1.669   1.995   8.131
 1801WAT     H2 5646   1.598   1.853   8.090
 1802WAT      O 5647   5.923   3.042   7.497
 1802WAT     H1 5648   5.967   2.952   7.496
 1802WAT     H2 5649   5.976   3.105   7.554
 1803WAT      O 5650   4.394   1.320   5.974
 1803WAT     H1 5651   4.388   1.239   6.032
 1803WAT     H2 5652   4.487   1.329   5.939
 1804WAT      O 5653   9.826   8.069   5.690
 1804WAT     H1 5654   9.836   8.008   5.611
 1804WAT     H2 5655   9.914   8.077   5.737
 1805WAT      O 5656   2.032   5.280   4.023
 1805WAT     H1 5657   2.037   5.201   3.961
 1805WAT     H2 5658   2.114   5.336   4.012
 1806WAT      O 5659   4.878   6.832   0.569
 1806WAT     H1 5660   4.834   6.799   0.653
 1806WAT     H2 5661   4.900   6.929   0.579
 1807WAT      O 5662   5.058   7.645   9.367
 1807WAT     H1 5663   5.083   7.721   9.428
 1807WAT     H2 5664   4.989   7.588   9.411
 1808WAT      O 5665   4.410   8.255   8.403
 1808WAT     H1 5666   4.481   8.321   8.426
 1808WAT     H2 5667   4.326   8.302   8.378
 1809WAT      O 5668   3.669   0.144   5.657
 1809WAT     H1 5669   3.596   0.127   5.590
 1809WAT     H2 5670   3.677   0.065   5.718
 1810WAT      O 5671   7.172   5.651   8.824
 1810WAT     H1 5672   7.181   5.750   8.841
 1810WAT     H2 5673   7.076   5.630   8.804
 1811WAT      O 5674   2.484   7.367   3.217
 1811WAT     H1 5675   2.469   7.286   3.274
 1811WAT     H2 5676   2.570   7.357   3.167
 1812WAT      O 5677   6.770   5.951   2.189
 1812WAT     H1 5678   6.819   5.865   2.175
 1812WAT     H2 5679   6.754   5.996   2.101
 1813WAT      O 5680   6.798   2.855   0.829
 1813WAT     H1 5681   6.807   2.928   0.896
 1813WAT     H2 5682   6.730   2.881   0.761
 1814WAT      O 5683   0.711   1.079   7.179
 1814WAT     H1 5684   0.733   0.984   7.201
 1814WAT     H2 5685   0.613   1.094   7.191
 1815WAT      O 5686   5.029   0.594   7.975
 1815WAT     H1 5687   5.128   0.589   7.965
 1815WAT     H2 5688   4.987   0.511   7.936
 1816WAT      O 5689   5.344   0.916   9.391
 1816WAT     H1 5690   5.300   0.998   9.426
 1816WAT     H2 5691   5.294   0.883   9.311
 1817WAT      O 5692   4.723   7.650   2.038
 1817WAT     H1 5693   4.764   7.733   2.076
 1817WAT     H2 5694   4.626   7.647   2.063
 1818WAT      O 5695   9.836   5.221   7.322
 1818WAT     H1 5696   9.785   5.171   7.253
 1818WAT     H2 5697   9.926   5.178   7.335
 1819WAT      O 5698   6.657   5.003   4.417
 1819WAT     H1 5699   6.583   4.972   4.476
 1819WAT     H2 5700   6.727   4.932   4.410
 1820WAT      O 5701   2.711   9.636   7.537
 1820WAT     H1 5702   2.657   9.699   7.480
 1820WAT     H2 5703   2.804   9.631   7.503
 1821WAT      O 5704   7.032   2.812   2.274
 1821WAT     H1 5705   6.962   2.791   2.341
 1821WAT     H2 5706   7.000   2.784   2.183
 1822WAT      O 5707   0.549   6.088   0.358
 1822WAT     H1 5708   0.638   6.063   0.320
 1822WAT     H2 5709   0.563   6.134   0.446
 1823WAT      O 5710   4.272   9.637   1.539
 1823WAT     H1 5711   4.366   9.622   1.508
 1823WAT     H2 5712   4.209   9.607   1.467
 1824WAT      O 5713   1.328   4.119   8.057
 1824WAT     H1 5714   1.230   4.132   8.047
 1824WAT     H2 5715   1.363   4.067   7.979
 1825WAT      O 5716   2.262   0.558   5.966
 1825WAT     H1 5717   2.269   0.621   5.889
 1825WAT     H2 5718   2.172   0.514   5.965
 1826WAT      O 5719   5.701   3.261   7.430
 1826WAT     H1 5720   5.789   3.277   7.475
 1826WAT     H2 5721   5.627   3.278   7.496
 1827WAT      O 5722   6.693   2.416   4.792
 1827WAT     H1 5723   6.607   2.424   4.743
 1827WAT     H2 5724   6.708   2.498   4.847
 1828WAT      O 5725   3.498   6.255   4.867
 1828WAT     H1 5726   3.443   6.325   4.820
 1828WAT     H2 5727   3.487   6.266   4.966
 1829WAT      O 5728   9.246   2.417   3.720
 1829WAT     H1 5729   9.195   2.333   3.700
 1829WAT     H2 5730   9.196   2.496   3.685
 1830WAT      O 5731   4.947   7.598   2.204
 1830WAT     H1 5732   4.910   7.604   2.111
 1830WAT     H2 5733   5.047   7.593   2.200
 1831WAT      O 5734   5.596   4.186   6.267
 1831WAT     H1 5735   5.579   4.277   6.228
 1831WAT     H2 5736   5.679   4.148   6.228
 1832WAT      O 5737   8.525   9.236   8.617
 1832WAT     H1 5738   8.472   9.312   8.656
 1832WAT     H2 5739   8.480   9.149   8.639
 1833WAT      O 5740   6.251   2.539   8.919
 1833WAT     H1 5741   6.251   2.565   8.823
 1833WAT     H2 5742   6.289   2.613   8.974
 1834WAT      O 5743   8.354   9.807   1.944
 1834WAT     H1 5744   8.257   9.832   1.945
 1834WAT     H2 5745   8.368   9.726   2.001
 1835WAT      O 5746   3.300   2.372   4.631
 1835WAT     H1 5747   3.309   2.279   4.598
 1835WAT     H2 5748   3.366   2.431   4.584
 1836WAT      O 5749   9.168   7.911   2.590
 1836WAT     H1 5750   9.226   7.975   2.540
 1836WAT     H2 5751   9.111   7.860   2.525
 1837WAT      O 5752   6.455   9.706   6.555
 1837WAT     H1 5753   6.532   9.649   6.526
 1837WAT     H2 5754   6.431   9.683   6.649
 1838WAT      O 5755   1.762   8.230   1.650
 1838WAT     H1 5756   1.773   8.303   1.581
 1838WAT     H2 5757   1.668   8.229   1.682
 1839WAT      O 5758   7.235   6.303   5.527
 1839WAT     H1 5759   7.244   6.397   5.560
 1839WAT     H2 5760   7.263   6.240   5.600
 1840WAT      O 5761   8.551   2.158   0.165
 1840WAT     H1 5762   8.522   2.131   0.073
 1840WAT     H2 5763   8.540   2.080   0.227
 1841WAT      O 5764   8.182   1.078   8.550
 1841WAT     H1 5765   8.244   1.000   8.549
 1841WAT     H2 5766   8.099   1.055   8.601
 1842WAT      O 5767   8.203   4.373   8.736
 1842WAT     H1 5768   8.268   4.407   8.804
 1842WAT     H2 5769   8.231   4.403   8.645
 1843WAT      O 5770   5.219   7.568   4.737
 1843WAT     H1 5771   5.241   7.632   4.811
 1843WAT     H2 5772   5.256   7.602   4.651
 1844WAT      O 5773   9.155   7.524   0.451
 1844WAT     H1 5774   9.143   7.455   0.522
 1844WAT     H2 5775   9.243   7.509   0.405
 1845WAT      O 5776   7.796   0.873   7.333
 1845WAT     H1 5777   7.769   0.784   7.368
 1845WAT     H2 5778   7.761   0.945   7.393
 1846WAT      O 5779   2.914   5.492   0.037
 1846WAT     H1 5780   2.958   5.404   0.022
 1846WAT     H2 5781   2.982   5.559   0.068
 1847WAT      O 5782   1.200   1.668   5.729
 1847WAT     H1 5783   1.119   1.725   5.743
 1847WAT     H2 5784   1.247   1.698   5.645
 1848WAT      O 5785   7.492   1.090   3.529
 1848WAT     H1 5786   7.532   1.133   3.610
 1848WAT     H2 5787   7.430   1.154   3.484
 1849WAT      O 5788   5.408   1.257   9.087
 1849WAT     H1 5789   5.467   1.219   9.158
 1849WAT     H2 5790   5.407   1.357   9.095
 1850WAT      O 5791   1.061   8.514   1.267
 1850WAT     H1 5792   0.967   8.489   1.289
 1850WAT     H2 5793   1.117   8.431   1.261
 1851WAT      O 5794   4.614   5.217   2.980
 1851WAT     H1 5795   4.560   5.184   2.903
 1851WAT     H2 5796   4.708   5.183   2.973
 1852WAT      O 5797   0.056   6.823   1.144
 1852WAT     H1 5798   0.068   6.831   1.243
 1852WAT     H2 5799   0.081   6.909   1.100
 1853WAT      O 5800   2.039   9.070   3.056
 1853WAT     H1 5801   2.116   9.124   3.089
 1853WAT     H2 5802   2.001   9.113   2.974
 1854WAT      O 5803   8.023   2.570   9.088
 1854WAT     H1 5804   8.114   2.594   9.054
 1854WAT     H2 5805   8.031   2.495   9.154
 1855WAT      O 5806   2.069   2.357   4.724
 1855WAT     H1 5807   1.975   2.361   4.756
 1855WAT     H2 5808   2.115   2.278   4.764
 1856WAT      O 5809   6.808   9.743   9.071
 1856WAT     H1 5810   6.810   9.774   9.166
 1856WAT     H2 5811   6.890   9.689   9.052
 1857WAT      O 5812   5.774   6.111   7.271
 1857WAT     H1 5813   5.807   6.185   7.331
 1857WAT     H2 5814   5.701   6.146   7.212
 1858WAT      O 5815   1.393   0.111   4.148
 1858WAT     H1 5816   1.477   0.098   4.200
 1858WAT     H2 5817   1.416   0.128   4.052
 1859WAT      O 5818   5.640   7.537   6.640
 1859WAT     H1 5819   5.642   7.545   6.740
 1859WAT     H2 5820   5.552   7.570   6.606
 1860WAT      O 5821   5.914   6.136   5.367
 1860WAT     H1 5822   5.969   6.064   5.325
 1860WAT     H2 5823   5.946   6.225   5.334
 1861WAT      O 5824   3.023   3.893   1.986
 1861WAT     H1 5825   3.083   3.963   2.026
 1861WAT     H2 5826   3.000   3.825   2.055
 1862WAT      O 5827   5.762   7.339   7.314
 1862WAT     H1 5828   5.826   7.415   7.319
 1862WAT     H2 5829   5.698   7.344   7.391
 1863WAT      O 5830   4.086   3.905   5.471
 1863WAT     H1 5831   4.132   3.987   5.437
 1863WAT     H2 5832   4.009   3.882   5.412
 1864WAT      O 5833   7.075   7.021   9.797
 1864WAT     H1 5834   7.076   7.121   9.808
 1864WAT     H2 5835   7.122   6.978   9.874
 1865WAT      O 5836   6.181   9.444   5.931
 1865WAT     H1 5837   6.276   9.442   5.899
 1865WAT     H2 5838   6.130   9.513   5.880
 1866WAT      O 5839   6.447   3.656   8.738
 1866WAT     H1 5840   6.359   3.617   8.766
 1866WAT     H2 5841   6.471   3.732   8.798
 1867WAT      O 5842   3.919   6.693   3.089
 1867WAT     H1 5843   3.867   6.714   3.172
 1867WAT     H2 5844   3.859   6.696   3.010
 1868WAT      O 5845   7.533   8.725   0.843
 1868WAT     H1 5846   7.566   8.815   0.869
 1868WAT     H2 5847   7.461   8.696   0.905
 1869WAT      O 5848   7.113   3.071   8.643
 1869WAT     H1 5849   7.142   3.058   8.737
 1869WAT     H2 5850   7.191   3.057   8.582
 1870WAT      O 5851   2.941   3.907   6.898
 1870WAT     H1 5852   2.956   3.992   6.847
 1870WAT     H2 5853   2.871   3.923   6.968
 1871WAT      O 5854   7.942   4.374   7.803
 1871WAT     H1 5855   7.902   4.320   7.729
 1871WAT     H2 5856   7.973   4.462   7.767
 1872WAT      O 5857   1.396   5.471   7.934
 1872WAT     H1 5858   1.302   5.503   7.946
 1872WAT     H2 5859   1.458   5.527   7.987
 1873WAT      O 5860   7.693   0.233   4.664
 1873WAT     H1 5861   7.616   0.171   4.646
 1873WAT     H2 5862   7.777   0.179   4.675
 1874WAT      O 5863   0.335   0.005   7.051
 1874WAT     H1 5864   0.289   0.055   6.977
 1874WAT     H2 5865   0.386   0.069   7.107
 1875WAT      O 5866   1.165   7.338   1.209
 1875WAT     H1 5867   1.126   7.262   1.261
 1875WAT     H2 5868   1.192   7.306   1.118
 1876WAT      O 5869   8.868   1.399   8.342
 1876WAT     H1 5870   8.856   1.399   8.441
 1876WAT     H2 5871   8.786   1.435   8.298
 1877WAT      O 5872   2.462   9.033   1.535
 1877WAT     H1 5873   2.363   9.017   1.530
 1877WAT     H2 5874   2.510   8.961   1.485
 1878WAT      O 5875   3.406   4.302   6.486
 1878WAT     H1 5876   3.369   4.363   6.416
 1878WAT     H2 5877   3.500   4.328   6.506
 1879WAT      O 5878   9.637   8.449   3.601
 1879WAT     H1 5879   9.712   8.407   3.550
 1879WAT     H2 5880   9.611   8.389   3.677
 1880WAT      O 5881   0.979   3.232   1.679
 1880WAT     H1 5882   1.060   3.276   1.717
 1880WAT     H2 5883   0.998   3.135   1.664
 1881WAT      O 5884   4.132   2.329   5.664
 1881WAT     H1 5885   4.087   2.260   5.608
 1881WAT     H2 5886   4.225   2.299   5.686
 1882WAT      O 5887   2.762   7.100   1.385
 1882WAT     H1 5888   2.694   7.164   1.350
 1882WAT     H2 5889   2.853   7.141   1.379
 1883WAT      O 5890   5.508   8.549   2.659
 1883WAT     H1 5891   5.605   8.549   2.633
 1883WAT     H2 5892   5.482   8.457   2.688
 1884WAT      O 5893   8.252   3.553   9.700
 1884WAT     H1 5894   8.226   3.510   9.787
 1884WAT     H2 5895   8.171   3.563   9.642
 1885WAT      O 5896   5.825   6.336   0.788
 1885WAT     H1 5897   5.898   6.312   0.851
 1885WAT     H2 5898   5.756   6.390   0.836
 1886WAT      O 5899   8.100   0.959   9.878
 1886WAT     H1 5900   8.055   0.981   9.791
 1886WAT     H2 5901   8.166   0.886   9.864
 1887WAT      O 5902   8.004   7.008   5.771
 1887WAT     H1 5903   7.996   6.909   5.784
 1887WAT     H2 5904   8.069   7.045   5.838
 1888WAT      O 5905   7.305   1.465   3.122
 1888WAT     H1 5906   7.224   1.409   3.102
 1888WAT     H2 5907   7.387   1.419   3.088
 1889WAT      O 5908   0.503   3.513   8.697
 1889WAT     H1 5909   0.447   3.574   8.752
 1889WAT     H2 5910   0.446   3.468   8.628
 1890WAT      O 5911   6.500   2.763   6.627
 1890WAT     H1 5912   6.584   2.709   6.629
 1890WAT     H2 5913   6.456   2.760   6.716
 1891WAT      O 5914   9.669   6.032   4.884
 1891WAT     H1 5915   9.633   5.960   4.824
 1891WAT     H2 5916   9.638   6.015   4.978
 1892WAT      O 5917   0.019   8.002   8.418
 1892WAT     H1 5918  -0.006   8.073   8.484
 1892WAT     H2 5919   0.103   7.956   8.447
 1893WAT      O 5920   0.785   8.052   3.331
 1893WAT     H1 5921   0.833   8.087   3.412
 1893WAT     H2 5922   0.843   8.067   3.250
 1894WAT      O 5923   2.167   2.822   7.014
 1894WAT     H1 5924   2.225   2.810   7.095
 1894WAT     H2 5925   2.202   2.767   6.939
 1895WAT      O 5926   4.722   1.420   5.683
 1895WAT     H1 5927   4.671   1.343   5.642
 1895WAT     H2 5928   4.803   1.439   5.627
 1896WAT      O 5929   0.601   2.488   3.850
 1896WAT     H1 5930   0.639   2.490   3.758
 1896WAT     H2 5931   0.662   2.436   3.910
 1897WAT      O 5932   3.449   7.919   1.156
 1897WAT     H1 5933   3.417   8.012   1.173
 1897WAT     H2 5934   3.489   7.881   1.239
 1898WAT      O 5935   1.354   4.079   5.652
 1898WAT     H1 5936   1.328   4.001   5.595
 1898WAT     H2 5937   1.414   4.047   5.726
 1899WAT      O 5938   2.996   5.847   5.618
 1899WAT     H1 5939   3.056   5.853   5.538
 1899WAT     H2 5940   2.926   5.918   5.612
 1900WAT      O 5941   8.091   1.820   8.381
 1900WAT     H1 5942   8.065   1.800   8.286
 1900WAT     H2 5943   8.152   1.749   8.414
 1901WAT      O 5944   3.203   8.873   4.119
 1901WAT     H1 5945   3.298   8.904   4.119
 1901WAT     H2 5946   3.151   8.927   4.186
 1902WAT      O 5947   7.256   3.603   6.023
 1902WAT     H1 5948   7.285   3.509   6.003
 1902WAT     H2 5949   7.203   3.638   5.946
 1903WAT      O 5950   1.245   5.159   2.913
 1903WAT     H1 5951   1.280   5.247   2.880
 1903WAT     H2 5952   1.270   5.087   2.848
 1904WAT      O 5953   1.744   0.328   8.869
 1904WAT     H1 5954   1.786   0.310   8.780
 1904WAT     H2 5955   1.658   0.377   8.856
 1905WAT      O 5956   7.677   6.090   7.093
 1905WAT     H1 5957   7.742   6.090   7.017
 1905WAT     H2 5958   7.685   6.004   7.144
 1906WAT      O 5959   0.012   7.985   3.004
 1906WAT     H1 5960   0.094   7.997   2.948
 1906WAT     H2 5961  -0.031   7.898   2.982
 1907WAT      O 5962   4.645   2.878   2.584
 1907WAT     H1 5963   4.645   2.976   2.562
 1907WAT     H2 5964   4.550   2.845   2.588
 1908WAT      O 5965   3.026   1.587   2.718
 1908WAT     H1 5966   3.007   1.590   2.817
 1908WAT     H2 5967   2.941   1.600   2.668
 1909WAT      O 5968   0.235   3.274   3.109
 1909WAT     H1 5969   0.298   3.349   3.130
 1909WAT     H2 5970   0.241   3.252   3.011
 1910WAT      O 5971   3.537   8.001   7.539
 1910WAT     H1 5972   3.529   8.043   7.629
 1910WAT     H2 5973   3.507   7.906   7.544
 1911WAT      O 5974   5.149   3.400   1.096
 1911WAT     H1 5975   5.222   3.394   1.027
 1911WAT     H2 5976   5.072   3.344   1.066
 1912WAT      O 5977   5.106   5.476   3.201
 1912WAT     H1 5978   5.029   5.412   3.199
 1912WAT     H2 5979   5.116   5.518   3.110
 1913WAT      O 5980   8.563   1.109   2.673
 1913WAT     H1 5981   8.465   1.124   2.685
 1913WAT     H2 5982   8.599   1.176   2.608
 1914WAT      O 5983   1.918   6.646   4.609
 1914WAT     H1 5984   1.952   6.617   4.699
 1914WAT     H2 5985   1.825   6.611   4.595
 1915WAT      O 5986   8.934   2.001   4.338
 1915WAT     H1 5987   8.919   1.946   4.256
 1915WAT     H2 5988   8.885   1.960   4.415
 1916WAT      O 5989   5.974   5.784   3.381
 1916WAT     H1 5990   5.964   5.695   3.336
 1916WAT     H2 5991   6.015   5.771   3.471
 1917WAT      O 5992   3.936   1.117   8.492
 1917WAT     H1 5993   3.945   1.037   8.552
 1917WAT     H2 5994   3.983   1.195   8.535
 1918WAT      O 5995   8.003   0.419   8.114
 1918WAT     H1 5996   8.064   0.340   8.119
 1918WAT     H2 5997   8.034   0.481   8.042
 1919WAT      O 5998   8.865   7.097   0.995
 1919WAT     H1 5999   8.841   7.078   1.090
 1919WAT     H2 6000   8.913   7.185   0.989
 1920WAT      O 6001   1.528   2.473   5.989
 1920WAT     H1 6002   1.558   2.436   5.901
 1920WAT     H2 6003   1.442   2.522   5.977
 1921WAT      O 6004   2.612   6.157   7.391
 1921WAT     H1 6005   2.514   6.139   7.397
 1921WAT     H2 6006   2.635   6.183   7.297
 1922WAT      O 6007   0.028   1.787   7.544
 1922WAT     H1 6008   0.024   1.857   7.616
 1922WAT     H2 6009   0.122   1.752   7.538
 1923WAT      O 6010   0.571   5.813   3.107
 1923WAT     H1 6011   0.623   5.862   3.177
 1923WAT     H2 6012   0.497   5.871   3.073
 1924WAT      O 6013   0.229   7.012   6.012
 1924WAT     H1 6014   0.151   7.070   6.039
 1924WAT     H2 6015   0.313   7.066   6.015
 1925WAT      O 6016   6.816   6.920   0.065
 1925WAT     H1 6017   6.789   6.991  -0.001
 1925WAT     H2 6018   6.912   6.933   0.090
 1926WAT      O 6019   1.130   8.792   7.177
 1926WAT     H1 6020   1.163   8.835   7.093
 1926WAT     H2 6021   1.058   8.848   7.218
 1927WAT      O 6022   2.899   7.672   0.136
 1927WAT     H1 6023   2.920   7.664   0.234
 1927WAT     H2 6024   2.837   7.598   0.109
 1928WAT      O 6025   5.723   7.840   0.368
 1928WAT     H1 6026   5.734   7.742   0.354
 1928WAT     H2 6027   5.806   7.888   0.339
 1929WAT      O 6028   7.620   8.187   5.106
 1929WAT     H1 6029   7.617   8.120   5.180
 1929WAT     H2 6030   7.599   8.141   5.019
 1930WAT      O 6031   9.410   7.384   0.375
 1930WAT     H1 6032   9.410   7.345   0.467
 1930WAT     H2 6033   9.498   7.365   0.331
 1931WAT      O 6034   5.449   5.958   6.157
 1931WAT     H1 6035   5.437   6.046   6.111
 1931WAT     H2 6036   5.426   5.968   6.254
 1932WAT      O 6037   2.943   6.882   3.831
 1932WAT     H1 6038   2.968   6.806   3.771
 1932WAT     H2 6039   2.988   6.870   3.920
 1933WAT      O 6040   1.787   8.106   2.512
 1933WAT     H1 6041   1.689   8.116   2.528
 1933WAT     H2 6042   1.834   8.093   2.600
 1934WAT      O 6043   6.155   5.467   1.985
 1934WAT     H1 6044   6.147   5.477   1.886
 1934WAT     H2 6045   6.197   5.550   2.024
 1935WAT      O 6046   4.660   3.791   0.997
 1935WAT     H1 6047   4.728   3.730   0.955
 1935WAT     H2 6048   4.656   3.876   0.945
 1936WAT      O 6049   6.563   6.470   2.340
 1936WAT     H1 6050   6.579   6.396   2.276
 1936WAT     H2 6051   6.576   6.437   2.434
 1937WAT      O 6052   7.136   0.770   5.424
 1937WAT     H1 6053   7.139   0.761   5.523
 1937WAT     H2 6054   7.227   0.753   5.386
 1938WAT      O 6055   9.384   0.442   1.172
 1938WAT     H1 6056   9.427   0.532   1.170
 1938WAT     H2 6057   9.454   0.371   1.175
 1939WAT      O 6058   0.450   2.480   7.753
 1939WAT     H1 6059   0.453   2.459   7.851
 1939WAT     H2 6060   0.517   2.423   7.705
 1940WAT      O 6061   4.260   3.294   0.619
 1940WAT     H1 6062   4.258   3.231   0.541
 1940WAT     H2 6063   4.352   3.333   0.628
 1941WAT      O 6064   3.017   1.459   5.214
 1941WAT     H1 6065   3.079   1.399   5.264
 1941WAT     H2 6066   3.022   1.437   5.116
 1942WAT      O 6067   1.072   4.829   2.706
 1942WAT     H1 6068   1.063   4.823   2.805
 1942WAT     H2 6069   1.002   4.772   2.663
 1943WAT      O 6070   7.333   8.612   7.949
 1943WAT     H1 6071   7.297   8.705   7.942
 1943WAT     H2 6072   7.289   8.554   7.881
 1944WAT      O 6073   4.568   5.406   3.935
 1944WAT     H1 6074   4.603   5.364   4.018
 1944WAT     H2 6075   4.485   5.358   3.905
 1945WAT      O 6076   1.222   2.545   6.220
 1945WAT     H1 6077   1.207   2.531   6.318
 1945WAT     H2 6078   1.289   2.478   6.188
 1946WAT      O 6079   6.613   1.148   1.679
 1946WAT     H1 6080   6.564   1.175   1.596
 1946WAT     H2 6081   6.625   1.049   1.679
 1947WAT      O 6082   7.383   5.936   9.097
 1947WAT     H1 6083   7.425   5.846   9.095
 1947WAT     H2 6084   7.386   5.972   9.190
 1948WAT      O 6085   8.546   7.269   6.877
 1948WAT     H1 6086   8.471   7.330   6.902
 1948WAT     H2 6087   8.557   7.199   6.948
 1949WAT      O 6088   1.983   9.046   0.010
 1949WAT     H1 6089   1.983   9.146   0.008
 1949WAT     H2 6090   2.011   9.011  -0.080
 1950WAT      O 6091   2.311   3.588   2.362
 1950WAT     H1 6092   2.223   3.549   2.334
 1950WAT     H2 6093   2.324   3.677   2.317
 1951WAT      O 6094   4.927   3.544   7.310
 1951WAT     H1 6095   4.896   3.632   7.344
 1951WAT     H2 6096   5.021   3.552   7.277
 1952WAT      O 6097   8.427   2.440   7.606
 1952WAT     H1 6098   8.395   2.529   7.637
 1952WAT     H2 6099   8.498   2.406   7.668
 1953WAT      O 6100   1.379   5.406   2.790
 1953WAT     H1 6101   1.356   5.387   2.694
 1953WAT     H2 6102   1.462   5.461   2.793
 1954WAT      O 6103   1.524   6.609   1.614
 1954WAT     H1 6104   1.573   6.675   1.557
 1954WAT     H2 6105   1.502   6.528   1.560
 1955WAT      O 6106   4.090   2.237   0.334
 1955WAT     H1 6107   3.994   2.217   0.354
 1955WAT     H2 6108   4.130   2.163   0.281
 1956WAT      O 6109   5.038   7.411   1.815
 1956WAT     H1 6110   4.994   7.501   1.820
 1956WAT     H2 6111   4.977   7.347   1.768
 1957WAT      O 6112   2.967   8.581   3.008
 1957WAT     H1 6113   2.902   8.644   3.051
 1957WAT     H2 6114   2.917   8.522   2.944
 1958WAT      O 6115   2.920   8.268   5.565
 1958WAT     H1 6116   2.888   8.192   5.508
 1958WAT     H2 6117   2.997   8.238   5.621
 1959WAT      O 6118   8.777   6.665   0.972
 1959WAT     H1 6119   8.703   6.706   1.026
 1959WAT     H2 6120   8.834   6.608   1.032
 1960WAT      O 6121   8.499   0.732   1.838
 1960WAT     H1 6122   8.402   0.728   1.815
 1960WAT     H2 6123   8.510   0.759   1.933
 1961WAT      O 6124   0.848   7.503   2.582
 1961WAT     H1 6125   0.868   7.556   2.665
 1961WAT     H2 6126   0.927   7.448   2.557
 1962WAT      O 6127   7.675   0.420   2.523
 1962WAT     H1 6128   7.649   0.394   2.615
 1962WAT     H2 6129   7.772   0.399   2.508
 1963WAT      O 6130   6.192   9.627   7.970
 1963WAT     H1 6131   6.102   9.608   7.931
 1963WAT     H2 6132   6.185   9.630   8.069
 1964WAT      O 6133   4.191   4.991   2.418
 1964WAT     H1 6134   4.234   5.025   2.335
 1964WAT     H2 6135   4.141   4.907   2.398
 1965WAT      O 6136   2.186   5.453   1.163
 1965WAT     H1 6137   2.229   5.513   1.231
 1965WAT     H2 6138   2.147   5.508   1.090
 1966WAT      O 6139   6.204   8.759   7.942
 1966WAT     H1 6140   6.187   8.852   7.910
 1966WAT     H2 6141   6.149   8.741   8.023
 1967WAT      O 6142   1.488   6.840   5.315
 1967WAT     H1 6143   1.455   6.773   5.248
 1967WAT     H2 6144   1.466   6.808   5.407
 1968WAT      O 6145   2.321   2.520   4.709
 1968WAT     H1 6146   2.236   2.488   4.750
 1968WAT     H2 6147   2.300   2.584   4.634
 1969WAT      O 6148   0.931   1.121   1.131
 1969WAT     H1 6149   0.983   1.036   1.137
 1969WAT     H2 6150   0.881   1.136   1.217
 1970WAT      O 6151   9.096   8.558   9.755
 1970WAT     H1 6152   9.112   8.459   9.752
 1970WAT     H2 6153   9.003   8.578   9.724
 1971WAT      O 6154   1.320   0.157   1.817
 1971WAT     H1 6155   1.414   0.148   1.849
 1971WAT     H2 6156   1.258   0.110   1.881
 1972WAT      O 6157   2.114   4.219   5.668
 1972WAT     H1 6158   2.018   4.198   5.685
 1972WAT     H2 6159   2.150   4.157   5.598
 1973WAT      O 6160   6.006   4.420   4.834
 1973WAT     H1 6161   6.057   4.477   4.898
 1973WAT     H2 6162   6.051   4.424   4.744
 1974WAT      O 6163   8.039   3.206   2.557
 1974WAT     H1 6164   8.115   3.146   2.532
 1974WAT     H2 6165   7.978   3.157   2.619
 1975WAT      O 6166   9.808   6.575   7.536
 1975WAT     H1 6167   9.727   6.534   7.577
 1975WAT     H2 6168   9.841   6.516   7.462
 1976WAT      O 6169   8.715   8.383   7.264
 1976WAT     H1 6170   8.754   8.421   7.348
 1976WAT     H2 6171   8.790   8.356   7.203
 1977WAT      O 6172   6.620   6.152   8.428
 1977WAT     H1 6173   6.663   6.212   8.496
 1977WAT     H2 6174   6.679   6.075   8.409
 1978WAT      O 6175   0.715   2.420   0.612
 1978WAT     H1 6176   0.654   2.452   0.540
 1978WAT     H2 6177   0.749   2.328   0.589
 1979WAT      O 6178   7.706   1.212   0.210
 1979WAT     H1 6179   7.752   1.300   0.204
 1979WAT     H2 6180   7.613   1.225   0.244
 1980WAT      O 6181   3.475   8.660   2.012
 1980WAT     H1 6182   3.381   8.635   2.037
 1980WAT     H2 6183   3.527   8.679   2.095
 1981WAT      O 6184   0.070   3.851   5.355
 1981WAT     H1 6185   0.169   3.858   5.340
 1981WAT     H2 6186   0.052   3.819   5.448
 1982WAT      O 6187   8.504   0.774   3.636
 1982WAT     H1 6188   8.419   0.781   3.584
 1982WAT     H2 6189   8.578   0.744   3.576
 1983WAT      O 6190   9.620   4.958   4.076
 1983WAT     H1 6191   9.656   5.038   4.125
 1983WAT     H2 6192   9.693   4.891   4.064
 1984WAT      O 6193   2.287   2.393   3.979
 1984WAT     H1 6194   2.207   2.340   4.006
 1984WAT     H2 6195   2.275   2.489   4.006
 1985WAT      O 6196   0.120   6.415   9.531
 1985WAT     H1 6197   0.128   6.513   9.512
 1985WAT     H2 6198   0.032   6.397   9.575
 1986WAT      O 6199   5.107   6.840   5.219
 1986WAT     H1 6200   5.205   6.855   5.228
 1986WAT     H2 6201   5.059   6.927   5.221
 1987WAT      O 6202   1.913   8.709   9.500
 1987WAT     H1 6203   1.849   8.643   9.541
 1987WAT     H2 6204   1.982   8.660   9.447
 1988WAT      O 6205   0.167   4.921   1.479
 1988WAT     H1 6206   0.129   4.910   1.571
 1988WAT     H2 6207   0.106   4.878   1.412
 1989WAT      O 6208   2.464   9.492   9.329
 1989WAT     H1 6209   2.480   9.448   9.241
 1989WAT     H2 6210   2.430   9.425   9.395
 1990WAT      O 6211   2.994   6.012   1.860
 1990WAT     H1 6212   2.970   6.091   1.804
 1990WAT     H2 6213   2.975   6.032   1.956
 1991WAT      O 6214   5.888   1.056   3.444
 1991WAT     H1 6215   5.903   1.104   3.357
 1991WAT     H2 6216   5.974   1.051   3.494
 1992WAT      O 6217   3.318   7.844   4.884
 1992WAT     H1 6218   3.354   7.876   4.972
 1992WAT     H2 6219   3.364   7.760   4.857
 1993WAT      O 6220   9.445   9.587   2.276
 1993WAT     H1 6221   9.450   9.654   2.350
 1993WAT     H2 6222   9.367   9.608   2.217
 1994WAT      O 6223   0.606   9.344   9.625
 1994WAT     H1 6224   0.575   9.275   9.559
 1994WAT     H2 6225   0.685   9.392   9.587
 1995WAT      O 6226   8.998   0.285   0.477
 1995WAT     H1 6227   8.943   0.347   0.532
 1995WAT     H2 6228   9.086   0.327   0.456
 1996WAT      O 6229   2.346   4.192   3.617
 1996WAT     H1 6230   2.423   4.252   3.596
 1996WAT     H2 6231   2.377   4.113   3.669
 1997WAT      O 6232   2.339   2.657   2.973
 1997WAT     H1 6233   2.382   2.603   2.900
 1997WAT     H2 6234   2.408   2.679   3.042
 1998WAT      O 6235   0.546   5.375   9.758
 1998WAT     H1 6236   0.487   5.430   9.816
 1998WAT     H2 6237   0.492   5.333   9.685
 1999WAT      O 6238   3.930   8.021   4.435
 1999WAT     H1 6239   3.963   7.934   4.399
 1999WAT     H2 6240   3.830   8.021   4.436
 2000WAT      O 6241   8.200   6.454   2.072
 2000WAT     H1 6242   8.256   6.472   2.153
 2000WAT     H2 6243   8.260   6.433   1.995
 2001WAT      O 6244   8.581   3.811   4.322
 2001WAT     H1 6245   8.532   3.768   4.398
 2001WAT     H2 6246   8.622   3.897   4.353
 2002WAT      O 6247   7.725   6.058   5.209
 2002WAT     H1 6248   7.680   5.971   5.191
 2002WAT     H2 6249   7.704   6.122   5.135
 2003WAT      O 6250   5.605   0.139   5.895
 2003WAT     H1 6251   5.527   0.112   5.839
 2003WAT     H2 6252   5.572   0.179   5.980
 2004WAT      O 6253   9.327   3.028   4.996
 2004WAT     H1 6254   9.277   2.988   5.073
 2004WAT     H2 6255   9.280   3.006   4.911
 2005WAT      O 6256   7.412   0.138   3.177
 2005WAT     H1 6257   7.374   0.188   3.100
 2005WAT     H2 6258   7.346   0.137   3.252
 2006WAT      O 6259   6.827   5.092   5.111
 2006WAT     H1 6260   6.882   5.122   5.189
 2006WAT     H2 6261   6.756   5.028   5.142
 2007WAT      O 6262   7.823   8.567   3.140
 2007WAT     H1 6263   7.849   8.545   3.046
 2007WAT     H2 6264   7.736   8.524   3.161
 2008WAT      O 6265   7.354   2.997   2.510
 2008WAT     H1 6266   7.290   3.010   2.434
 2008WAT     H2 6267   7.305   3.009   2.596
 2009WAT      O 6268   5.773   6.160   8.040
 2009WAT     H1 6269   5.791   6.071   8.082
 2009WAT     H2 6270   5.823   6.231   8.090
 2010WAT      O 6271   7.142   2.243   6.996
 2010WAT     H1 6272   7.163   2.242   7.094
 2010WAT     H2 6273   7.085   2.164   6.974
 2011WAT      O 6274   8.160   5.727   9.877
 2011WAT     H1 6275   8.116   5.661   9.938
 2011WAT     H2 6276   8.104   5.809   9.871
 2012WAT      O 6277   5.323   9.452   1.156
 2012WAT     H1 6278   5.297   9.360   1.184
 2012WAT     H2 6279   5.351   9.505   1.237
 2013WAT      O 6280   7.868   6.955   8.863
 2013WAT     H1 6281   7.838   6.876   8.810
 2013WAT     H2 6282   7.836   7.039   8.819
 2014WAT      O 6283   3.433   4.477   0.792
 2014WAT     H1 6284   3.348   4.497   0.745
 2014WAT     H2 6285   3.426   4.388   0.838
 2015WAT      O 6286   5.103   1.220   1.873
 2015WAT     H1 6287   5.086   1.293   1.939
 2015WAT     H2 6288   5.028   1.217   1.807
 2016WAT      O 6289   4.525   1.731   0.251
 2016WAT     H1 6290   4.446   1.743   0.312
 2016WAT     H2 6291   4.608   1.761   0.298
 2017WAT      O 6292   9.609   7.496   8.217
 2017WAT     H1 6293   9.548   7.441   8.274
 2017WAT     H2 6294   9.652   7.437   8.148
 2018WAT      O 6295   3.094   5.720   3.914
 2018WAT     H1 6296   3.006   5.685   3.881
 2018WAT     H2 6297   3.165   5.652   3.897
 2019WAT      O 6298   1.924   3.632   5.514
 2019WAT     H1 6299   1.910   3.689   5.433
 2019WAT     H2 6300   1.843   3.574   5.529
 2020WAT      O 6301   8.000   9.463   7.380
 2020WAT     H1 6302   8.070   9.527   7.412
 2020WAT     H2 6303   7.938   9.441   7.456
 2021WAT      O 6304   8.890   7.565   3.848
 2021WAT     H1 6305   8.905   7.513   3.933
 2021WAT     H2 6306   8.922   7.512   3.770
 2022WAT      O 6307   2.546   3.943   2.895
 2022WAT     H1 6308   2.609   3.941   2.973
 2022WAT     H2 6309   2.498   3.855   2.889
 2023WAT      O 6310   4.691   3.776   7.185
 2023WAT     H1 6311   4.676   3.862   7.137
 2023WAT     H2 6312   4.670   3.700   7.123
 2024WAT      O 6313   6.574   2.423   6.336
 2024WAT     H1 6314   6.587   2.333   6.378
 2024WAT     H2 6315   6.484   2.459   6.360
 2025WAT      O 6316   6.844   4.471   7.269
 2025WAT     H1 6317   6.875   4.546   7.327
 2025WAT     H2 6318   6.787   4.508   7.195
 2026WAT      O 6319   1.847   5.703   1.887
 2026WAT     H1 6320   1.943   5.701   1.858
 2026WAT     H2 6321   1.834   5.776   1.953
 2027WAT      O 6322   8.131   3.098   0.063
 2027WAT     H1 6323   8.164   3.078  -0.029
 2027WAT     H2 6324   8.187   3.048   0.130
 2028WAT      O 6325   2.757   1.058   6.619
 2028WAT     H1 6326   2.742   1.155   6.640
 2028WAT     H2 6327   2.702   1.002   6.681
 2029WAT      O 6328   6.730   0.244   3.536
 2029WAT     H1 6329   6.829   0.255   3.524
 2029WAT     H2 6330   6.713   0.173   3.604
 2030WAT      O 6331   4.282   1.612   5.550
 2030WAT     H1 6332   4.333   1.566   5.622
 2030WAT     H2 6333   4.191   1.636   5.583
 2031WAT      O 6334   1.328   3.389   9.211
 2031WAT     H1 6335   1.424   3.411   9.229
 2031WAT     H2 6336   1.287   3.461   9.156
 2032WAT      O 6337   6.711   0.277   8.590
 2032WAT     H1 6338   6.805   0.278   8.554
 2032WAT     H2 6339   6.662   0.357   8.556
 2033WAT      O 6340   2.924   5.557   1.269
 2033WAT     H1 6341   2.877   5.525   1.187
 2033WAT     H2 6342   2.861   5.553   1.347
 2034WAT      O 6343   6.999   7.605   6.092
 2034WAT     H1 6344   6.993   7.616   6.192
 2034WAT     H2 6345   7.095   7.603   6.065
 2035WAT      O 6346   2.963   0.974   0.274
 2035WAT     H1 6347   2.985   0.921   0.356
 2035WAT     H2 6348   2.961   1.071   0.297
 2036WAT      O 6349   7.485   1.568   8.151
 2036WAT     H1 6350   7.554   1.496   8.162
 2036WAT     H2 6351   7.493   1.632   8.227
 2037WAT      O 6352   7.851   5.713   4.236
 2037WAT     H1 6353   7.786   5.722   4.161
 2037WAT     H2 6354   7.922   5.783   4.227
 2038WAT      O 6355   5.711   5.026   9.114
 2038WAT     H1 6356   5.755   5.107   9.153
 2038WAT     H2 6357   5.688   5.044   9.018
 2039WAT      O 6358   7.535   7.140   5.213
 2039WAT     H1 6359   7.546   7.101   5.304
 2039WAT     H2 6360   7.449   7.109   5.173
 2040WAT      O 6361   4.909   6.215   7.739
 2040WAT     H1 6362   4.886   6.297   7.791
 2040WAT     H2 6363   4.836   6.148   7.748
 2041WAT      O 6364   5.454   0.016   8.934
 2041WAT     H1 6365   5.469   0.114   8.925
 2041WAT     H2 6366   5.363  -0.000   8.974
 2042WAT      O 6367   9.848   8.436   7.281
 2042WAT     H1 6368   9.767   8.474   7.326
 2042WAT     H2 6369   9.923   8.502   7.283
 2043WAT      O 6370   0.601   8.067   3.569
 2043WAT     H1 6371   0.555   7.984   3.602
 2043WAT     H2 6372   0.601   8.068   3.469
 2044WAT      O 6373   1.686   9.129   6.143
 2044WAT     H1 6374   1.684   9.079   6.229
 2044WAT     H2 6375   1.717   9.070   6.069
 2045WAT      O 6376   5.751   3.312   2.136
 2045WAT     H1 6377   5.810   3.240   2.100
 2045WAT     H2 6378   5.807   3.379   2.186
 2046WAT      O 6379   0.927   3.402   8.489
 2046WAT     H1 6380   0.850   3.460   8.515
 2046WAT     H2 6381   0.994   3.398   8.563
 2047WAT      O 6382   8.231   4.057   1.576
 2047WAT     H1 6383   8.275   4.134   1.622
 2047WAT     H2 6384   8.152   4.028   1.629
 2048WAT      O 6385   2.443   6.587   0.133
 2048WAT     H1 6386   2.432   6.529   0.052
 2048WAT     H2 6387   2.503   6.664   0.112
 2049WAT      O 6388   6.609   2.912   2.493
 2049WAT     H1 6389   6.605   3.010   2.514
 2049WAT     H2 6390   6.575   2.896   2.400
 2050WAT      O 6391   4.086   3.465   6.315
 2050WAT     H1 6392   4.009   3.468   6.252
 2050WAT     H2 6393   4.135   3.552   6.314
 2051WAT      O 6394   4.412   4.476   1.005
 2051WAT     H1 6395   4.422   4.400   1.070
 2051WAT     H2 6396   4.503   4.506   0.975
 2052WAT      O 6397   3.137   4.261   3.664
 2052WAT     H1 6398   3.125   4.287   3.760
 2052WAT     H2 6399   3.229   4.286   3.634
 2053WAT      O 6400   3.907   0.620   8.264
 2053WAT     H1 6401   3.974   0.690   8.292
 2053WAT     H2 6402   3.925   0.595   8.169
 2054WAT      O 6403   7.682   8.471   3.766
 2054WAT     H1 6404   7.684   8.373   3.746
 2054WAT     H2 6405   7.601   8.491   3.821
 2055WAT      O 6406   6.219   7.973   0.624
 2055WAT     H1 6407   6.199   7.890   0.571
 2055WAT     H2 6408   6.134   8.021   0.644
 2056WAT      O 6409   1.722   2.340   9.688
 2056WAT     H1 6410   1.681   2.300   9.606
 2056WAT     H2 6411   1.662   2.323   9.766
 2057WAT      O 6412   0.995   0.330   7.993
 2057WAT     H1 6413   1.026   0.236   7.987
 2057WAT     H2 6414   0.910   0.340   7.940
 2058WAT      O 6415   2.281   7.029   4.158
 2058WAT     H1 6416   2.255   7.122   4.129
 2058WAT     H2 6417   2.295   6.973   4.076
 2059WAT      O 6418   9.722   7.455   0.813
 2059WAT     H1 6419   9.717   7.465   0.713
 2059WAT     H2 6420   9.759   7.365   0.836
 2060WAT      O 6421   8.082   6.250   8.126
 2060WAT     H1 6422   8.066   6.265   8.028
 2060WAT     H2 6423   8.043   6.326   8.178
 2061WAT      O 6424   6.637   0.886   3.623
 2061WAT     H1 6425   6.698   0.929   3.689
 2061WAT     H2 6426   6.634   0.787   3.640
 2062WAT      O 6427   1.611   8.891   5.237
 2062WAT     H1 6428   1.638   8.904   5.142
 2062WAT     H2 6429   1.530   8.832   5.241
 2063WAT      O 6430   2.882   5.379   0.359
 2063WAT     H1 6431   2.891   5.477   0.380
 2063WAT     H2 6432   2.843   5.368   0.267
 2064WAT      O 6433   2.431   4.644   4.120
 2064WAT     H1 6434   2.466   4.708   4.052
 2064WAT     H2 6435   2.366   4.691   4.179
 2065WAT      O 6436   9.323   4.523   3.963
 2065WAT     H1 6437   9.325   4.596   3.895
 2065WAT     H2 6438   9.275   4.554   4.045
 2066WAT      O 6439   6.185   0.945   0.022
 2066WAT     H1 6440   6.151   0.905   0.107
 2066WAT     H2 6441   6.109   0.958  -0.041
 2067WAT      O 6442   8.893   8.419   4.048
 2067WAT     H1 6443   8.863   8.502   4.001
 2067WAT     H2 6444   8.846   8.340   4.010
 2068WAT      O 6445   1.970   5.172   3.510
 2068WAT     H1 6446   1.996   5.256   3.462
 2068WAT     H2 6447   2.051   5.128   3.547
 2069WAT      O 6448   6.170   8.801   3.170
 2069WAT     H1 6449   6.182   8.816   3.072
 2069WAT     H2 6450   6.172   8.889   3.218
 2070WAT      O 6451   9.540   6.500   0.641
 2070WAT     H1 6452   9.588   6.511   0.554
 2070WAT     H2 6453   9.463   6.437   0.629
 2071WAT      O 6454   3.040   6.080   9.681
 2071WAT     H1 6455   3.058   5.995   9.630
 2071WAT     H2 6456   3.026   6.155   9.617
 2072WAT      O 6457   0.100   1.008   7.138
 2072WAT     H1 6458   0.152   1.093   7.132
 2072WAT     H2 6459   0.039   1.001   7.059
 2073WAT      O 6460   9.014   2.037   9.294
 2073WAT     H1 6461   9.068   2.097   9.234
 2073WAT     H2 6462   9.068   2.013   9.375
 2074WAT      O 6463   4.027   8.987   7.219
 2074WAT     H1 6464   4.033   8.890   7.194
 2074WAT     H2 6465   4.006   9.042   7.139
 2075WAT      O 6466   2.005   0.148   2.655
 2075WAT     H1 6467   2.023   0.181   2.562
 2075WAT     H2 6468   1.921   0.190   2.690
 2076WAT      O 6469   2.873   7.915   3.617
 2076WAT     H1 6470   2.844   7.892   3.525
 2076WAT     H2 6471   2.861   7.836   3.677
 2077WAT      O 6472   2.547   9.244   8.393
 2077WAT     H1 6473   2.448   9.229   8.397
 2077WAT     H2 6474   2.577   9.285   8.479
 2078WAT      O 6475   2.464   3.545   4.297
 2078WAT     H1 6476   2.438   3.474   4.363
 2078WAT     H2 6477   2.411   3.534   4.213
 2079WAT      O 6478   7.726   6.531   9.355
 2079WAT     H1 6479   7.737   6.495   9.448
 2079WAT     H2 6480   7.771   6.620   9.349
 2080WAT      O 6481   7.366   5.460   1.111
 2080WAT     H1 6482   7.300   5.388   1.090
 2080WAT     H2 6483   7.428   5.429   1.184
 2081WAT      O 6484   3.737   4.117   2.340
 2081WAT     H1 6485   3.683   4.201   2.334
 2081WAT     H2 6486   3.729   4.067   2.254
 2082WAT      O 6487   5.092   0.375   3.727
 2082WAT     H1 6488   5.149   0.346   3.805
 2082WAT     H2 6489   5.001   0.401   3.760
 2083WAT      O 6490   0.587   4.752   5.662
 2083WAT     H1 6491   0.598   4.682   5.734
 2083WAT     H2 6492   0.676   4.774   5.623
 2084WAT      O 6493   5.666   0.649   7.417
 2084WAT     H1 6494   5.691   0.706   7.338
 2084WAT     H2 6495   5.622   0.706   7.486
 2085WAT      O 6496   9.347   8.718   4.019
 2085WAT     H1 6497   9.374   8.658   4.095
 2085WAT     H2 6498   9.410   8.795   4.015
 2086WAT      O 6499   2.958   3.251   9.335
 2086WAT     H1 6500   2.918   3.310   9.404
 2086WAT     H2 6501   2.916   3.160   9.340
 2087WAT      O 6502   4.210   3.289   5.158
 2087WAT     H1 6503   4.223   3.192   5.176
 2087WAT     H2 6504   4.288   3.341   5.193
 2088WAT      O 6505   3.215   6.405   0.423
 2088WAT     H1 6506   3.209   6.497   0.461
 2088WAT     H2 6507   3.124   6.371   0.402
 2089WAT      O 6508   1.783   2.692   1.248
 2089WAT     H1 6509   1.865   2.716   1.299
 2089WAT     H2 6510   1.733   2.775   1.224
 2090WAT      O 6511   8.212   4.329   3.465
 2090WAT     H1 6512   8.144   4.341   3.537
 2090WAT     H2 6513   8.299   4.369   3.493
 2091WAT      O 6514   9.840   1.566   9.836
 2091WAT     H1 6515   9.762   1.573   9.773
 2091WAT     H2 6516   9.925   1.576   9.784
 2092WAT      O 6517   3.211   3.607   7.113
 2092WAT     H1 6518   3.141   3.626   7.044
 2092WAT     H2 6519   3.264   3.690   7.130
 2093WAT      O 6520   2.880   9.014   9.160
 2093WAT     H1 6521   2.857   9.062   9.075
 2093WAT     H2 6522   2.979   9.004   9.167
 2094WAT      O 6523   3.336   0.032   7.574
 2094WAT     H1 6524   3.274   0.056   7.500
 2094WAT     H2 6525   3.378  -0.057   7.555
 2095WAT      O 6526   8.741   3.601   3.085
 2095WAT     H1 6527   8.723   3.510   3.122
 2095WAT     H2 6528   8.812   3.594   3.014
 2096WAT      O 6529   9.650   7.808   1.961
 2096WAT     H1 6530   9.715   7.737   1.935
 2096WAT     H2 6531   9.610   7.785   2.050
 2097WAT      O 6532   5.920   1.969   1.546
 2097WAT     H1 6533   5.999   2.008   1.498
 2097WAT     H2 6534   5.893   1.884   1.501
 2098WAT      O 6535   6.764   9.286   2.604
 2098WAT     H1 6536   6.678   9.235   2.597
 2098WAT     H2 6537   6.746   9.377   2.642
 2099WAT      O 6538   1.025   9.134   3.310
 2099WAT     H1 6539   1.050   9.139   3.214
 2099WAT     H2 6540   1.094   9.079   3.359
 2100WAT      O 6541   5.013   9.335   7.088
 2100WAT     H1 6542   5.104   9.342   7.047
 2100WAT     H2 6543   4.967   9.254   7.054
 2101WAT      O 6544   8.506   0.284   2.217
 2101WAT     H1 6545   8.440   0.340   2.167
 2101WAT     H2 6546   8.592   0.334   2.226
 2102WAT      O 6547   2.344   9.507   0.278
 2102WAT     H1 6548   2.295   9.449   0.213
 2102WAT     H2 6549   2.440   9.513   0.253
 2103WAT      O 6550   7.077   7.887   5.443
 2103WAT     H1 6551   7.078   7.897   5.543
 2103WAT     H2 6552   7.082   7.977   5.400
 2104WAT      O 6553   2.517   0.082   6.504
 2104WAT     H1 6554   2.465   0.089   6.418
 2104WAT     H2 6555   2.548   0.173   6.532
 2105WAT      O 6556   4.008   6.118   3.670
 2105WAT     H1 6557   4.053   6.165   3.746
 2105WAT     H2 6558   4.075   6.099   3.598
 2106WAT      O 6559   4.333   2.334   6.825
 2106WAT     H1 6560   4.384   2.249   6.834
 2106WAT     H2 6561   4.246   2.327   6.874
 2107WAT      O 6562   3.203   3.596   2.964
 2107WAT     H1 6563   3.142   3.615   2.887
 2107WAT     H2 6564   3.231   3.682   3.007
 2108WAT      O 6565   7.441   0.311   9.315
 2108WAT     H1 6566   7.479   0.398   9.283
 2108WAT     H2 6567   7.392   0.267   9.240
 2109WAT      O 6568   8.700   1.506   3.120
 2109WAT     H1 6569   8.674   1.580   3.182
 2109WAT     H2 6570   8.657   1.520   3.031
 2110WAT      O 6571   8.047   8.435   3.566
 2110WAT     H1 6572   8.072   8.391   3.480
 2110WAT     H2 6573   8.118   8.500   3.592
 2111WAT      O 6574   9.048   2.112   4.992
 2111WAT     H1 6575   8.995   2.027   4.991
 2111WAT     H2 6576   9.123   2.104   5.057
 2112WAT      O 6577   2.234   8.272   6.181
 2112WAT     H1 6578   2.329   8.267   6.150
 2112WAT     H2 6579   2.206   8.368   6.188
 2113WAT      O 6580   3.324   5.348   3.503
 2113WAT     H1 6581   3.274   5.393   3.429
 2113WAT     H2 6582   3.321   5.249   3.490
 2114WAT      O 6583   2.122   8.004   0.809
 2114WAT     H1 6584   2.091   8.072   0.875
 2114WAT     H2 6585   2.133   8.048   0.719
 2115WAT      O 6586   1.126   4.239   5.622
 2115WAT     H1 6587   1.158   4.318   5.570
 2115WAT     H2 6588   1.195   4.168   5.621
 2116WAT      O 6589   8.943   1.691   7.137
 2116WAT     H1 6590   8.866   1.645   7.180
 2116WAT     H2 6591   8.911   1.771   7.085
 2117WAT      O 6592   7.812   2.403   3.684
 2117WAT     H1 6593   7.828   2.490   3.638
 2117WAT     H2 6594   7.851   2.408   3.777
 2118WAT      O 6595   0.212   8.654   8.378
 2118WAT     H1 6596   0.214   8.730   8.313
 2118WAT     H2 6597   0.134   8.595   8.357
 2119WAT      O 6598   0.911   9.268   3.987
 2119WAT     H1 6599   0.834   9.253   4.049
 2119WAT     H2 6600   0.990   9.301   4.038
 2120WAT      O 6601   5.674   4.966   5.249
 2120WAT     H1 6602   5.749   5.019   5.207
 2120WAT     H2 6603   5.682   4.871   5.221
 2121WAT      O 6604   8.256   8.104   0.903
 2121WAT     H1 6605   8.332   8.085   0.842
 2121WAT     H2 6606   8.199   8.022   0.912
 2122WAT      O 6607   8.365   4.329   4.309
 2122WAT     H1 6608   8.290   4.393   4.294
 2122WAT     H2 6609   8.425   4.328   4.228
 2123WAT      O 6610   7.110   8.834   7.242
 2123WAT     H1 6611   7.203   8.823   7.279
 2123WAT     H2 6612   7.058   8.898   7.299
 2124WAT      O 6613   4.409   2.971   1.928
 2124WAT     H1 6614   4.462   2.976   1.844
 2124WAT     H2 6615   4.460   3.014   2.003
 2125WAT      O 6616   6.792   0.828   4.666
 2125WAT     H1 6617   6.801   0.784   4.577
 2125WAT     H2 6618   6.859   0.791   4.730
 2126WAT      O 6619   0.933   3.033   4.476
 2126WAT     H1 6620   0.882   2.975   4.412
 2126WAT     H2 6621   1.025   3.049   4.441
 2127WAT      O 6622   7.952   1.107   7.533
 2127WAT     H1 6623   8.033   1.150   7.492
 2127WAT     H2 6624   7.936   1.019   7.489
 2128WAT      O 6625   9.274   1.402   8.061
 2128WAT     H1 6626   9.335   1.381   8.137
 2128WAT     H2 6627   9.314   1.473   8.003
 2129WAT      O 6628   3.213   2.709   8.675
 2129WAT     H1 6629   3.140   2.691   8.740
 2129WAT     H2 6630   3.187   2.674   8.585
 2130WAT      O 6631   0.202   0.119   1.015
 2130WAT     H1 6632   0.175   0.044   1.074
 2130WAT     H2 6633   0.302   0.124   1.011
 2131WAT      O 6634   9.240   2.405   6.704
 2131WAT     H1 6635   9.287   2.493   6.694
 2131WAT     H2 6636   9.306   2.334   6.726
 2132WAT      O 6637   6.413   4.274   4.175
 2132WAT     H1 6638   6.441   4.280   4.079
 2132WAT     H2 6639   6.417   4.179   4.204
 2133WAT      O 6640   6.599   3.631   1.657
 2133WAT     H1 6641   6.622   3.671   1.745
 2133WAT     H2 6642   6.555   3.699   1.599
 2134WAT      O 6643   3.466   7.687   2.057
 2134WAT     H1 6644   3.522   7.656   1.980
 2134WAT     H2 6645   3.450   7.785   2.050
 2135WAT      O 6646   4.850   9.408   9.056
 2135WAT     H1 6647   4.782   9.478   9.075
 2135WAT     H2 6648   4.887   9.421   8.964
 2136WAT      O 6649   0.979   4.134   9.613
 2136WAT     H1 6650   1.072   4.097   9.614
 2136WAT     H2 6651   0.917   4.065   9.651
 2137WAT      O 6652   1.644   8.448   8.518
 2137WAT     H1 6653   1.639   8.546   8.497
 2137WAT     H2 6654   1.624   8.433   8.615
 2138WAT      O 6655   0.593   6.119   5.890
 2138WAT     H1 6656   0.677   6.109   5.838
 2138WAT     H2 6657   0.531   6.181   5.842
 2139WAT      O 6658   5.120   1.351   1.628
 2139WAT     H1 6659   5.182   1.346   1.706
 2139WAT     H2 6660   5.053   1.276   1.634
 2140WAT      O 6661   2.151   2.124   2.542
 2140WAT     H1 6662   2.225   2.104   2.477
 2140WAT     H2 6663   2.064   2.129   2.493
 2141WAT      O 6664   6.219   4.844   6.705
 2141WAT     H1 6665   6.165   4.851   6.788
 2141WAT     H2 6666   6.208   4.928   6.651
 2142WAT      O 6667   7.347   7.449   8.195
 2142WAT     H1 6668   7.429   7.502   8.174
 2142WAT     H2 6669   7.326   7.388   8.118
 2143WAT      O 6670   8.150   9.123   9.209
 2143WAT     H1 6671   8.076   9.189   9.221
 2143WAT     H2 6672   8.189   9.132   9.118
 2144WAT      O 6673   1.280   9.574   5.874
 2144WAT     H1 6674   1.273   9.651   5.810
 2144WAT     H2 6675   1.306   9.608   5.964
 2145WAT      O 6676   3.946   0.882   7.718
 2145WAT     H1 6677   3.860   0.832   7.730
 2145WAT     H2 6678   4.017   0.819   7.686
 2146WAT      O 6679   9.647   4.756   6.187
 2146WAT     H1 6680   9.609   4.843   6.156
 2146WAT     H2 6681   9.739   4.770   6.223
 2147WAT      O 6682   1.903   5.771   2.255
 2147WAT     H1 6683   1.860   5.826   2.183
 2147WAT     H2 6684   1.903   5.823   2.340
 2148WAT      O 6685   0.612   3.093   7.287
 2148WAT     H1 6686   0.573   3.018   7.234
 2148WAT     H2 6687   0.539   3.146   7.330
 2149WAT      O 6688   3.755   1.706   5.468
 2149WAT     H1 6689   3.850   1.726   5.445
 2149WAT     H2 6690   3.751   1.663   5.558
 2150WAT      O 6691   3.041   9.814   1.641
 2150WAT     H1 6692   3.006   9.755   1.569
 2150WAT     H2 6693   2.967   9.868   1.680
 2151WAT      O 6694   1.889   6.451   7.821
 2151WAT     H1 6695   1.893   6.406   7.909
 2151WAT     H2 6696   1.926   6.544   7.829
 2152WAT      O 6697   9.431   7.817   8.902
 2152WAT     H1 6698   9.422   7.855   8.994
 2152WAT     H2 6699   9.507   7.861   8.854
 2153WAT      O 6700   5.132   0.733   4.458
 2153WAT     H1 6701   5.183   0.724   4.372
 2153WAT     H2 6702   5.151   0.822   4.498
 2154WAT      O 6703   6.836   7.607   9.861
 2154WAT     H1 6704   6.786   7.540   9.807
 2154WAT     H2 6705   6.831   7.582   9.958
 2155WAT      O 6706   9.499   5.607   8.595
 2155WAT     H1 6707   9.424   5.671   8.579
 2155WAT     H2 6708   9.586   5.656   8.594
 2156WAT      O 6709   3.581   1.873   0.476
 2156WAT     H1 6710   3.498   1.821   0.457
 2156WAT     H2 6711   3.628   1.833   0.555
 2157WAT      O 6712   4.948   8.483   4.123
 2157WAT     H1 6713   5.015   8.453   4.056
 2157WAT     H2 6714   4.877   8.413   4.134
 2158WAT      O 6715   1.511   5.740   1.272
 2158WAT     H1 6716   1.578   5.692   1.329
 2158WAT     H2 6717   1.462   5.807   1.327
 2159WAT      O 6718   3.727   8.174   9.448
 2159WAT     H1 6719   3.809   8.160   9.504
 2159WAT     H2 6720   3.738   8.256   9.393
 2160WAT      O 6721   5.519   8.167   1.262
 2160WAT     H1 6722   5.469   8.081   1.252
 2160WAT     H2 6723   5.457   8.238   1.295
 2161WAT      O 6724   4.027   8.669   5.625
 2161WAT     H1 6725   4.101   8.601   5.621
 2161WAT     H2 6726   3.984   8.666   5.715
 2162WAT      O 6727   7.241   3.896   7.994
 2162WAT     H1 6728   7.224   3.969   8.059
 2162WAT     H2 6729   7.307   3.831   8.032
 2163WAT      O 6730   1.288   5.813   8.404
 2163WAT     H1 6731   1.245   5.723   8.393
 2163WAT     H2 6732   1.316   5.825   8.499
 2164WAT      O 6733   9.462   1.950   2.687
 2164WAT     H1 6734   9.443   1.866   2.738
 2164WAT     H2 6735   9.555   1.980   2.707
 2165WAT      O 6736   9.323   8.353   1.547
 2165WAT     H1 6737   9.399   8.288   1.540
 2165WAT     H2 6738   9.344   8.433   1.490
 2166WAT      O 6739   4.451   5.808   0.763
 2166WAT     H1 6740   4.532   5.842   0.811
 2166WAT     H2 6741   4.476   5.781   0.670
 2167WAT      O 6742   7.452   4.206   2.016
 2167WAT     H1 6743   7.540   4.163   2.037
 2167WAT     H2 6744   7.378   4.144   2.039
 2168WAT      O 6745   2.406   7.294   8.437
 2168WAT     H1 6746   2.321   7.289   8.490
 2168WAT     H2 6747   2.437   7.201   8.415
 2169WAT      O 6748   9.502   5.219   8.880
 2169WAT     H1 6749   9.564   5.163   8.824
 2169WAT     H2 6750   9.466   5.163   8.955
 2170WAT      O 6751   2.464   6.534   2.881
 2170WAT     H1 6752   2.546   6.589   2.869
 2170WAT     H2 6753   2.389   6.574   2.828
 2171WAT      O 6754   8.092   7.159   2.113
 2171WAT     H1 6755   8.067   7.068   2.145
 2171WAT     H2 6756   8.184   7.182   2.145
 2172WAT      O 6757   1.253   1.789   7.572
 2172WAT     H1 6758   1.326   1.812   7.508
 2172WAT     H2 6759   1.177   1.747   7.522
 2173WAT      O 6760   4.490   7.520   6.533
 2173WAT     H1 6761   4.507   7.588   6.604
 2173WAT     H2 6762   4.576   7.480   6.503
 2174WAT      O 6763   7.360   3.140   3.946
 2174WAT     H1 6764   7.379   3.044   3.969
 2174WAT     H2 6765   7.429   3.172   3.881
 2175WAT      O 6766   8.566   7.569   5.594
 2175WAT     H1 6767   8.581   7.609   5.684
 2175WAT     H2 6768   8.623   7.617   5.527
 2176WAT      O 6769   4.147   8.264   0.760
 2176WAT     H1 6770   4.049   8.248   0.748
 2176WAT     H2 6771   4.198   8.184   0.726
 2177WAT      O 6772   0.233   7.075   8.941
 2177WAT     H1 6773   0.135   7.076   8.957
 2177WAT     H2 6774   0.252   7.046   8.848
 2178WAT      O 6775   4.442   6.054   1.378
 2178WAT     H1 6776   4.457   5.989   1.303
 2178WAT     H2 6777   4.465   6.146   1.346
 2179WAT      O 6778   5.306   9.619   3.643
 2179WAT     H1 6779   5.371   9.684   3.604
 2179WAT     H2 6780   5.269   9.656   3.728
 2180WAT      O 6781   6.793   3.152   3.604
 2180WAT     H1 6782   6.723   3.121   3.540
 2180WAT     H2 6783   6.883   3.148   3.560
 2181WAT      O 6784   8.022   5.009   5.912
 2181WAT     H1 6785   7.957   4.941   5.879
 2181WAT     H2 6786   8.111   4.965   5.928
 2182WAT      O 6787   5.025   6.313   8.299
 2182WAT     H1 6788   5.021   6.232   8.357
 2182WAT     H2 6789   5.115   6.320   8.257
 2183WAT      O 6790   9.798   2.022   1.879
 2183WAT     H1 6791   9.830   1.929   1.865
 2183WAT     H2 6792   9.875   2.081   1.904
 2184WAT      O 6793   4.501   2.062   2.614
 2184WAT     H1 6794   4.500   2.026   2.521
 2184WAT     H2 6795   4.476   2.159   2.613
 2185WAT      O 6796   1.002   3.177   7.011
 2185WAT     H1 6797   1.029   3.098   7.067
 2185WAT     H2 6798   1.005   3.260   7.067
 2186WAT      O 6799   2.825   1.920   3.661
 2186WAT     H1 6800   2.777   1.965   3.736
 2186WAT     H2 6801   2.898   1.979   3.628
 2187WAT      O 6802   3.635   3.177   8.281
 2187WAT     H1 6803   3.636   3.113   8.205
 2187WAT     H2 6804   3.605   3.267   8.249
 2188WAT      O 6805   2.302   7.701   6.028
 2188WAT     H1 6806   2.218   7.751   6.006
 2188WAT     H2 6807   2.321   7.708   6.126
 2189WAT      O 6808   4.851   6.357   0.906
 2189WAT     H1 6809   4.905   6.417   0.965
 2189WAT     H2 6810   4.885   6.263   0.914
 2190WAT      O 6811   9.265   6.372   1.788
 2190WAT     H1 6812   9.295   6.424   1.708
 2190WAT     H2 6813   9.195   6.424   1.837
 2191WAT      O 6814   8.641   3.849   2.976
 2191WAT     H1 6815   8.628   3.750   2.985
 2191WAT     H2 6816   8.739   3.870   2.975
 2192WAT      O 6817   1.100   1.115   1.888
 2192WAT     H1 6818   1.111   1.076   1.980
 2192WAT     H2 6819   1.011   1.087   1.851
 2193WAT      O 6820   6.413   2.516   6.082
 2193WAT     H1 6821   6.428   2.615   6.088
 2193WAT     H2 6822   6.502   2.470   6.080
 2194WAT      O 6823   4.963   8.245   9.786
 2194WAT     H1 6824   5.009   8.331   9.766
 2194WAT     H2 6825   5.023   8.186   9.840
 2195WAT      O 6826   1.134   9.280   1.461
 2195WAT     H1 6827   1.209   9.259   1.398
 2195WAT     H2 6828   1.126   9.379   1.473
 2196WAT      O 6829   8.328   5.615   5.574
 2196WAT     H1 6830   8.247   5.595   5.629
 2196WAT     H2 6831   8.310   5.594   5.478
 2197WAT      O 6832   7.444   9.112   0.429
 2197WAT     H1 6833   7.348   9.090   0.444
 2197WAT     H2 6834   7.459   9.210   0.444
 2198WAT      O 6835   2.591   8.360   6.387
 2198WAT     H1 6836   2.620   8.374   6.292
 2198WAT     H2 6837   2.553   8.268   6.397
 2199WAT      O 6838   7.711   6.659   4.134
 2199WAT     H1 6839   7.666   6.660   4.045
 2199WAT     H2 6840   7.698   6.570   4.177
 2200WAT      O 6841   8.522   7.839   3.053
 2200WAT     H1 6842   8.570   7.873   3.134
 2200WAT     H2 6843   8.528   7.906   2.979
 2201WAT      O 6844   1.002   3.315   2.259
 2201WAT     H1 6845   0.946   3.397   2.242
 2201WAT     H2 6846   0.990   3.250   2.185
 2202WAT      O 6847   6.259   3.946   7.254
 2202WAT     H1 6848   6.167   3.922   7.286
 2202WAT     H2 6849   6.323   3.875   7.282
 2203WAT      O 6850   1.341   5.700   6.920
 2203WAT     H1 6851   1.331   5.778   6.858
 2203WAT     H2 6852   1.350   5.733   7.013
 2204WAT      O 6853   1.055   6.523   7.708
 2204WAT     H1 6854   1.081   6.510   7.613
 2204WAT     H2 6855   1.095   6.449   7.764
 2205WAT      O 6856   8.440   1.138   4.384
 2205WAT     H1 6857   8.439   1.094   4.474
 2205WAT     H2 6858   8.347   1.160   4.356
 2206WAT      O 6859   1.971   7.155   2.820
 2206WAT     H1 6860   1.984   7.105   2.906
 2206WAT     H2 6861   1.975   7.091   2.744
 2207WAT      O 6862   7.495   3.385   3.020
 2207WAT     H1 6863   7.532   3.478   3.010
 2207WAT     H2 6864   7.488   3.362   3.117
 2208WAT      O 6865   8.358   4.401   4.564
 2208WAT     H1 6866   8.370   4.379   4.467
 2208WAT     H2 6867   8.268   4.442   4.578
 2209WAT      O 6868   1.781   7.970   8.695
 2209WAT     H1 6869   1.866   7.928   8.663
 2209WAT     H2 6870   1.703   7.923   8.653
 2210WAT      O 6871   4.335   8.932   2.657
 2210WAT     H1 6872   4.433   8.919   2.645
 2210WAT     H2 6873   4.318   9.015   2.709
 2211WAT      O 6874   5.517   4.300   5.476
 2211WAT     H1 6875   5.502   4.397   5.456
 2211WAT     H2 6876   5.429   4.253   5.481
 2212WAT      O 6877   7.472   3.416   5.993
 2212WAT     H1 6878   7.464   3.318   6.012
 2212WAT     H2 6879   7.540   3.456   6.055
 2213WAT      O 6880   3.233   7.482   7.432
 2213WAT     H1 6881   3.203   7.523   7.518
 2213WAT     H2 6882   3.184   7.396   7.416
 2214WAT      O 6883   0.440   8.596   4.869
 2214WAT     H1 6884   0.442   8.637   4.960
 2214WAT     H2 6885   0.346   8.572   4.845
 2215WAT      O 6886   5.665   7.102   5.499
 2215WAT     H1 6887   5.634   7.077   5.407
 2215WAT     H2 6888   5.722   7.027   5.535
 2216WAT      O 6889   0.966   6.713   6.656
 2216WAT     H1 6890   1.027   6.644   6.618
 2216WAT     H2 6891   0.889   6.728   6.595
 2217WAT      O 6892   3.816   6.297   3.642
 2217WAT     H1 6893   3.883   6.223   3.654
 2217WAT     H2 6894   3.861   6.378   3.606
 2218WAT      O 6895   5.609   7.290   0.701
 2218WAT     H1 6896   5.608   7.247   0.791
 2218WAT     H2 6897   5.632   7.222   0.632
 2219WAT      O 6898   3.028   9.567   4.106
 2219WAT     H1 6899   3.084   9.602   4.031
 2219WAT     H2 6900   2.942   9.617   4.109
 2220WAT      O 6901   8.246   4.236   9.271
 2220WAT     H1 6902   8.262   4.259   9.175
 2220WAT     H2 6903   8.322   4.270   9.326
 2221WAT      O 6904   5.409   8.872   7.458
 2221WAT     H1 6905   5.455   8.946   7.506
 2221WAT     H2 6906   5.337   8.835   7.516
 2222WAT      O 6907   2.835   0.584   1.160
 2222WAT     H1 6908   2.795   0.511   1.104
 2222WAT     H2 6909   2.800   0.672   1.127
 2223WAT      O 6910   5.973   8.974   7.221
 2223WAT     H1 6911   5.970   9.018   7.310
 2223WAT     H2 6912   5.933   9.035   7.152
 2224WAT      O 6913   8.918   2.086   0.345
 2224WAT     H1 6914   8.979   2.096   0.423
 2224WAT     H2 6915   8.826   2.060   0.376
 2225WAT      O 6916   4.336   1.369   5.108
 2225WAT     H1 6917   4.401   1.444   5.103
 2225WAT     H2 6918   4.244   1.405   5.127
 2226WAT      O 6919   0.612   9.412   7.781
 2226WAT     H1 6920   0.664   9.327   7.774
 2226WAT     H2 6921   0.565   9.417   7.869
 2227WAT      O 6922   5.884   3.456   8.345
 2227WAT     H1 6923   5.808   3.479   8.405
 2227WAT     H2 6924   5.969   3.449   8.398
 2228WAT      O 6925   9.417   1.725   0.969
 2228WAT     H1 6926   9.410   1.652   1.038
 2228WAT     H2 6927   9.404   1.687   0.878
 2229WAT      O 6928   8.597   8.723   0.412
 2229WAT     H1 6929   8.567   8.695   0.320
 2229WAT     H2 6930   8.692   8.755   0.407
 2230WAT      O 6931   3.394   6.800   8.376
 2230WAT     H1 6932   3.450   6.865   8.325
 2230WAT     H2 6933   3.298   6.814   8.354
 2231WAT      O 6934   3.402   2.868   7.752
 2231WAT     H1 6935   3.479   2.932   7.744
 2231WAT     H2 6936   3.316   2.920   7.748
 2232WAT      O 6937   6.464   3.814   1.460
 2232WAT     H1 6938   6.377   3.797   1.413
 2232WAT     H2 6939   6.539   3.806   1.394
 2233WAT      O 6940   2.267   2.187   6.358
 2233WAT     H1 6941   2.214   2.242   6.294
 2233WAT     H2 6942   2.342   2.141   6.310
 2234WAT      O 6943   7.491   6.950   2.742
 2234WAT     H1 6944   7.489   6.871   2.804
 2234WAT     H2 6945   7.571   6.944   2.683
 2235WAT      O 6946   5.883   7.709   4.579
 2235WAT     H1 6947   5.825   7.634   4.548
 2235WAT     H2 6948   5.827   7.775   4.631
 2236WAT      O 6949   2.199   2.701   1.808
 2236WAT     H1 6950   2.290   2.719   1.773
 2236WAT     H2 6951   2.177   2.604   1.796
 2237WAT      O 6952   9.575   3.503   0.924
 2237WAT     H1 6953   9.545   3.585   0.875
 2237WAT     H2 6954   9.673   3.511   0.943
 2238WAT      O 6955   6.828   6.650   8.977
 2238WAT     H1 6956   6.899   6.709   8.939
 2238WAT     H2 6957   6.759   6.706   9.023
 2239WAT      O 6958   6.725   5.090   0.768
 2239WAT     H1 6959   6.639   5.087   0.717
 2239WAT     H2 6960   6.741   5.002   0.811
 2240WAT      O 6961   1.385   0.465   9.135
 2240WAT     H1 6962   1.291   0.436   9.117
 2240WAT     H2 6963   1.440   0.454   9.052
 2241WAT      O 6964   8.495   1.964   5.777
 2241WAT     H1 6965   8.532   2.047   5.735
 2241WAT     H2 6966   8.566   1.894   5.781
 2242WAT      O 6967   5.584   5.218   1.479
 2242WAT     H1 6968   5.672   5.176   1.500
 2242WAT     H2 6969   5.516   5.191   1.548
 2243WAT      O 6970   1.681   0.973   9.846
 2243WAT     H1 6971   1.701   0.900   9.912
 2243WAT     H2 6972   1.608   1.030   9.882
 2244WAT      O 6973   7.729   7.809   0.226
 2244WAT     H1 6974   7.776   7.880   0.172
 2244WAT     H2 6975   7.794   7.768   0.290
 2245WAT      O 6976   7.978   5.065   5.139
 2245WAT     H1 6977   7.947   5.097   5.229
 2245WAT     H2 6978   8.074   5.041   5.144
 2246WAT      O 6979   4.698   7.859   6.291
 2246WAT     H1 6980   4.621   7.796   6.282
 2246WAT     H2 6981   4.770   7.818   6.347
 2247WAT      O 6982   1.023   5.861   5.412
 2247WAT     H1 6983   0.927   5.875   5.388
 2247WAT     H2 6984   1.076   5.845   5.328
 2248WAT      O 6985   5.824   9.193   7.155
 2248WAT     H1 6986   5.740   9.174   7.104
 2248WAT     H2 6987   5.867   9.275   7.119
 2249WAT      O 6988   6.672   8.955   6.401
 2249WAT     H1 6989   6.750   8.961   6.337
 2249WAT     H2 6990   6.690   8.883   6.468
 2250WAT      O 6991   0.942   7.199   7.538
 2250WAT     H1 6992   0.886   7.163   7.613
 2250WAT     H2 6993   0.889   7.196   7.453
 2251WAT      O 6994   1.869   6.916   7.197
 2251WAT     H1 6995   1.770   6.931   7.201
 2251WAT     H2 6996   1.889   6.819   7.210
 2252WAT      O 6997   5.298   5.768   4.036
 2252WAT     H1 6998   5.311   5.773   3.937
 2252WAT     H2 6999   5.383   5.793   4.082
 2253WAT      O 7000   7.703   8.671   8.762
 2253WAT     H1 7001   7.764   8.666   8.684
 2253WAT     H2 7002   7.625   8.609   8.747
 2254WAT      O 7003   3.058   1.844   0.421
 2254WAT     H1 7004   3.084   1.891   0.336
 2254WAT     H2 7005   3.113   1.879   0.497
 2255WAT      O 7006   1.465   2.190   8.869
 2255WAT     H1 7007   1.456   2.093   8.848
 2255WAT     H2 7008   1.374   2.229   8.882
 2256WAT      O 7009   7.222   4.363   3.796
 2256WAT     H1 7010   7.188   4.361   3.702
 2256WAT     H2 7011   7.178   4.437   3.846
 2257WAT      O 7012   4.597   7.302   8.991
 2257WAT     H1 7013   4.584   7.208   9.023
 2257WAT     H2 7014   4.658   7.301   8.911
 2258WAT      O 7015   4.153   7.395   8.249
 2258WAT     H1 7016   4.207   7.359   8.324
 2258WAT     H2 7017   4.207   7.395   8.165
 2259WAT      O 7018   5.425   8.063   3.677
 2259WAT     H1 7019   5.417   8.158   3.647
 2259WAT     H2 7020   5.389   8.055   3.770
 2260WAT      O 7021   6.837   9.753   1.403
 2260WAT     H1 7022   6.797   9.663   1.383
 2260WAT     H2 7023   6.773   9.806   1.458
 2261WAT      O 7024   3.299   3.240   1.274
 2261WAT     H1 7025   3.226   3.308   1.273
 2261WAT     H2 7026   3.272   3.163   1.331
 2262WAT      O 7027   3.064   0.435   0.984
 2262WAT     H1 7028   3.074   0.460   1.080
 2262WAT     H2 7029   2.967   0.443   0.957
 2263WAT      O 7030   5.649   2.548   1.663
 2263WAT     H1 7031   5.645   2.507   1.754
 2263WAT     H2 7032   5.744   2.557   1.634
 2264WAT      O 7033   3.382   8.759   2.828
 2264WAT     H1 7034   3.311   8.695   2.799
 2264WAT     H2 7035   3.377   8.770   2.928
 2265WAT      O 7036   0.237   7.516   6.174
 2265WAT     H1 7037   0.251   7.614   6.169
 2265WAT     H2 7038   0.320   7.469   6.145
 2266WAT      O 7039   2.949   0.098   4.117
 2266WAT     H1 7040   2.968   0.154   4.037
 2266WAT     H2 7041   3.034   0.081   4.167
 2267WAT      O 7042   2.770   2.794   1.599
 2267WAT     H1 7043   2.718   2.756   1.523
 2267WAT     H2 7044   2.823   2.722   1.644
 2268WAT      O 7045   6.174   5.092   3.117
 2268WAT     H1 7046   6.098   5.075   3.054
 2268WAT     H2 7047   6.239   5.016   3.113
 2269WAT      O 7048   4.301   1.729   7.585
 2269WAT     H1 7049   4.238   1.703   7.512
 2269WAT     H2 7050   4.340   1.646   7.625
 2270WAT      O 7051   5.369   5.116   1.018
 2270WAT     H1 7052   5.437   5.166   1.072
 2270WAT     H2 7053   5.383   5.135   0.921
 2271WAT      O 7054   7.124   7.045   4.220
 2271WAT     H1 7055   7.067   7.037   4.139
 2271WAT     H2 7056   7.098   7.128   4.271
 2272WAT      O 7057   1.508   4.553   0.373
 2272WAT     H1 7058   1.571   4.563   0.296
 2272WAT     H2 7059   1.534   4.616   0.446
 2273WAT      O 7060   6.846   5.708   9.478
 2273WAT     H1 7061   6.866   5.753   9.392
 2273WAT     H2 7062   6.815   5.614   9.460
 2274WAT      O 7063   7.685   4.313   2.188
 2274WAT     H1 7064   7.667   4.367   2.106
 2274WAT     H2 7065   7.774   4.268   2.180
 2275WAT      O 7066   5.050   4.034   1.472
 2275WAT     H1 7067   5.050   4.132   1.492
 2275WAT     H2 7068   5.142   4.004   1.448
 2276WAT      O 7069   6.743   1.381   6.983
 2276WAT     H1 7070   6.707   1.448   6.918
 2276WAT     H2 7071   6.841   1.370   6.968
 2277WAT      O 7072   1.074   6.042   1.475
 2277WAT     H1 7073   1.071   6.063   1.378
 2277WAT     H2 7074   1.105   5.948   1.488
 2278WAT      O 7075   1.127   5.083   9.585
 2278WAT     H1 7076   1.072   5.155   9.543
 2278WAT     H2 7077   1.145   5.011   9.518
 2279WAT      O 7078   1.263   0.928   4.318
 2279WAT     H1 7079   1.334   0.888   4.260
 2279WAT     H2 7080   1.237   1.018   4.283
 2280WAT      O 7081   4.150   6.660   8.592
 2280WAT     H1 7082   4.153   6.698   8.685
 2280WAT     H2 7083   4.088   6.714   8.536
 2281WAT      O 7084   3.054   3.702   9.850
 2281WAT     H1 7085   3.142   3.694   9.805
 2281WAT     H2 7086   3.048   3.791   9.896
 2282WAT      O 7087   1.270   4.143   3.628
 2282WAT     H1 7088   1.269   4.130   3.528
 2282WAT     H2 7089   1.349   4.095   3.667
 2283WAT      O 7090   0.654   9.241   0.503
 2283WAT     H1 7091   0.697   9.216   0.417
 2283WAT     H2 7092   0.701   9.320   0.542
 2284WAT      O 7093   5.682   9.428   0.737
 2284WAT     H1 7094   5.751   9.500   0.737
 2284WAT     H2 7095   5.593   9.467   0.716
 2285WAT      O 7096   0.132   0.658   0.705
 2285WAT     H1 7097   0.092   0.661   0.797
 2285WAT     H2 7098   0.173   0.747   0.684
 2286WAT      O 7099   4.690   7.095   4.030
 2286WAT     H1 7100   4.607   7.063   4.074
 2286WAT     H2 7101   4.668   7.126   3.937
 2287WAT      O 7102   4.552   7.925   1.133
 2287WAT     H1 7103   4.502   7.876   1.063
 2287WAT     H2 7104   4.595   8.007   1.094
 2288WAT      O 7105   8.511   0.958   5.684
 2288WAT     H1 7106   8.444   1.012   5.735
 2288WAT     H2 7107   8.464   0.897   5.621
 2289WAT      O 7108   6.912   8.278   5.972
 2289WAT     H1 7109   6.839   8.342   5.949
 2289WAT     H2 7110   6.996   8.329   5.992
 2290WAT      O 7111   3.436   8.049   0.187
 2290WAT     H1 7112   3.348   8.044   0.140
 2290WAT     H2 7113   3.509   8.058   0.120
 2291WAT      O 7114   8.795   8.930   7.465
 2291WAT     H1 7115   8.776   8.992   7.541
 2291WAT     H2 7116   8.709   8.898   7.426
 2292WAT      O 7117   1.540   8.977   8.628
 2292WAT     H1 7118   1.530   9.070   8.663
 2292WAT     H2 7119   1.535   8.912   8.704
 2293WAT      O 7120   9.495   8.704   3.614
 2293WAT     H1 7121   9.544   8.618   3.628
 2293WAT     H2 7122   9.559   8.772   3.577
 2294WAT      O 7123   2.249   8.243   0.085
 2294WAT     H1 7124   2.314   8.214   0.155
 2294WAT     H2 7125   2.298   8.271   0.003
 2295WAT      O 7126   6.364   9.719   3.117
 2295WAT     H1 7127   6.337   9.701   3.212
 2295WAT     H2 7128   6.285   9.749   3.065
 2296WAT      O 7129   4.256   0.006   4.802
 2296WAT     H1 7130   4.197  -0.028   4.875
 2296WAT     H2 7131   4.317  -0.067   4.771
 2297WAT      O 7132   5.877   7.344   4.847
 2297WAT     H1 7133   5.908   7.250   4.860
 2297WAT     H2 7134   5.944   7.395   4.794
 2298WAT      O 7135   7.805   3.118   7.900
 2298WAT     H1 7136   7.761   3.028   7.907
 2298WAT     H2 7137   7.877   3.125   7.969
 2299WAT      O 7138   6.026   6.209   1.260
 2299WAT     H1 7139   5.964   6.242   1.189
 2299WAT     H2 7140   6.119   6.204   1.223
 2300WAT      O 7141   0.764   1.366   3.040
 2300WAT     H1 7142   0.719   1.277   3.047
 2300WAT     H2 7143   0.778   1.389   2.944
 2301WAT      O 7144   1.127   3.341   8.661
 2301WAT     H1 7145   1.181   3.271   8.614
 2301WAT     H2 7146   1.147   3.339   8.759
 2302WAT      O 7147   7.518   4.998   1.143
 2302WAT     H1 7148   7.528   5.016   1.241
 2302WAT     H2 7149   7.605   5.017   1.096
 2303WAT      O 7150   8.831   6.172   7.250
 2303WAT     H1 7151   8.908   6.153   7.311
 2303WAT     H2 7152   8.851   6.253   7.195
 2304WAT      O 7153   8.668   2.524   7.470
 2304WAT     H1 7154   8.602   2.460   7.509
 2304WAT     H2 7155   8.625   2.576   7.396
 2305WAT      O 7156   0.630   7.091   5.750
 2305WAT     H1 7157   0.584   7.046   5.673
 2305WAT     H2 7158   0.638   7.026   5.826
 2306WAT      O 7159   1.270   8.751   2.611
 2306WAT     H1 7160   1.305   8.712   2.696
 2306WAT     H2 7161   1.266   8.850   2.619
 2307WAT      O 7162   3.657   3.173   8.940
 2307WAT     H1 7163   3.665   3.105   9.014
 2307WAT     H2 7164   3.748   3.189   8.900
 2308WAT      O 7165   4.791   0.469   0.985
 2308WAT     H1 7166   4.711   0.428   1.030
 2308WAT     H2 7167   4.811   0.557   1.027
 2309WAT      O 7168   7.999   6.608   7.189
 2309WAT     H1 7169   7.963   6.575   7.276
 2309WAT     H2 7170   8.052   6.692   7.204
 2310WAT      O 7171   1.824   4.820   5.397
 2310WAT     H1 7172   1.805   4.802   5.300
 2310WAT     H2 7173   1.909   4.775   5.423
 2311WAT      O 7174   5.570   4.827   0.162
 2311WAT     H1 7175   5.579   4.892   0.086
 2311WAT     H2 7176   5.473   4.809   0.179
 2312WAT      O 7177   3.822   7.446   8.730
 2312WAT     H1 7178   3.731   7.454   8.770
 2312WAT     H2 7179   3.815   7.444   8.630
 2313WAT      O 7180   8.605   2.460   2.118
 2313WAT     H1 7181   8.693   2.488   2.155
 2313WAT     H2 7182   8.608   2.363   2.094
 2314WAT      O 7183   9.736   0.026   1.445
 2314WAT     H1 7184   9.738   0.067   1.354
 2314WAT     H2 7185   9.690   0.088   1.508
 2315WAT      O 7186   2.058   8.814   2.949
 2315WAT     H1 7187   2.038   8.903   2.990
 2315WAT     H2 7188   2.095   8.753   3.019
 2316WAT      O 7189   8.763   6.707   4.566
 2316WAT     H1 7190   8.707   6.721   4.485
 2316WAT     H2 7191   8.838   6.773   4.567
 2317WAT      O 7192   8.960   3.086   5.756
 2317WAT     H1 7193   8.996   3.005   5.709
 2317WAT     H2 7194   9.036   3.137   5.796
 2318WAT      O 7195   0.946   7.945   2.559
 2318WAT     H1 7196   0.864   7.999   2.543
 2318WAT     H2 7197   0.937   7.894   2.644
 2319WAT      O 7198   5.288   2.527   2.370
 2319WAT     H1 7199   5.319   2.447   2.319
 2319WAT     H2 7200   5.191   2.518   2.390
 2320WAT      O 7201   1.358   7.835   6.714
 2320WAT     H1 7202   1.448   7.875   6.729
 2320WAT     H2 7203   1.350   7.750   6.766
 2321WAT      O 7204   2.035   9.343   6.394
 2321WAT     H1 7205   2.083   9.338   6.306
 2321WAT     H2 7206   2.026   9.438   6.421
 2322WAT      O 7207   9.203   9.148   5.147
 2322WAT     H1 7208   9.127   9.140   5.082
 2322WAT     H2 7209   9.181   9.219   5.214
 2323WAT      O 7210   5.199   6.847   6.436
 2323WAT     H1 7211   5.127   6.878   6.498
 2323WAT     H2 7212   5.201   6.747   6.435
 2324WAT      O 7213   9.674   8.609   3.344
 2324WAT     H1 7214   9.585   8.594   3.300
 2324WAT     H2 7215   9.672   8.575   3.438
 2325WAT      O 7216   6.508   3.765   2.261
 2325WAT     H1 7217   6.508   3.742   2.359
 2325WAT     H2 7218   6.602   3.770   2.228
 2326WAT      O 7219   5.466   3.164   8.177
 2326WAT     H1 7220   5.479   3.167   8.078
 2326WAT     H2 7221   5.497   3.076   8.211
 2327WAT      O 7222   8.745   2.806   5.142
 2327WAT     H1 7223   8.800   2.867   5.085
 2327WAT     H2 7224   8.724   2.722   5.091
 2328WAT      O 7225   2.904   5.078   9.100
 2328WAT     H1 7226   2.931   5.155   9.042
 2328WAT     H2 7227   2.837   5.023   9.051
 2329WAT      O 7228   4.529   7.934   3.993
 2329WAT     H1 7229   4.435   7.938   4.026
 2329WAT     H2 7230   4.573   7.852   4.028
 2330WAT      O 7231   6.315   0.162   3.135
 2330WAT     H1 7232   6.389   0.141   3.070
 2330WAT     H2 7233   6.254   0.231   3.095
 2331WAT      O 7234   2.632   1.046   1.017
 2331WAT     H1 7235   2.614   1.076   0.924
 2331WAT     H2 7236   2.618   1.123   1.080
 2332WAT      O 7237   8.822   4.327   4.736
 2332WAT     H1 7238   8.919   4.305   4.743
 2332WAT     H2 7239   8.796   4.389   4.810
 2333WAT      O 7240   2.423   9.717   1.884
 2333WAT     H1 7241   2.521   9.731   1.896
 2333WAT     H2 7242   2.374   9.750   1.965
 2334WAT      O 7243   7.034   8.741   9.350
 2334WAT     H1 7244   6.940   8.764   9.326
 2334WAT     H2 7245   7.049   8.643   9.337
 2335WAT      O 7246   1.405   7.826   3.735
 2335WAT     H1 7247   1.429   7.918   3.764
 2335WAT     H2 7248   1.387   7.825   3.636
 2336WAT      O 7249   8.197   4.743   3.103
 2336WAT     H1 7250   8.143   4.692   3.036
 2336WAT     H2 7251   8.285   4.697   3.115
 2337WAT      O 7252   0.829   9.685   2.394
 2337WAT     H1 7253   0.807   9.689   2.492
 2337WAT     H2 7254   0.922   9.650   2.382
 2338WAT      O 7255   5.741   3.355   5.718
 2338WAT     H1 7256   5.720   3.262   5.688
 2338WAT     H2 7257   5.724   3.363   5.816
 2339WAT      O 7258   7.188   0.940   5.742
 2339WAT     H1 7259   7.228   0.945   5.651
 2339WAT     H2 7260   7.210   1.024   5.792
 2340WAT      O 7261   8.669   1.417   8.056
 2340WAT     H1 7262   8.617   1.453   7.978
 2340WAT     H2 7263   8.761   1.394   8.026
 2341WAT      O 7264   1.396   7.499   8.466
 2341WAT     H1 7265   1.387   7.406   8.502
 2341WAT     H2 7266   1.384   7.565   8.540
 2342WAT      O 7267   4.608   2.075   4.672
 2342WAT     H1 7268   4.661   2.131   4.608
 2342WAT     H2 7269   4.538   2.132   4.716
 2343WAT      O 7270   5.737   6.428   5.753
 2343WAT     H1 7271   5.833   6.417   5.776
 2343WAT     H2 7272   5.709   6.355   5.690
 2344WAT      O 7273   1.042   5.833   0.027
 2344WAT     H1 7274   1.132   5.812   0.065
 2344WAT     H2 7275   1.024   5.931   0.037
 2345WAT      O 7276   0.073   7.717   9.151
 2345WAT     H1 7277  -0.017   7.710   9.107
 2345WAT     H2 7278   0.143   7.735   9.082
 2346WAT      O 7279   6.260   0.910   3.250
 2346WAT     H1 7280   6.245   1.003   3.283
 2346WAT     H2 7281   6.179   0.854   3.271
 2347WAT      O 7282   7.638   4.371   1.276
 2347WAT     H1 7283   7.738   4.380   1.276
 2347WAT     H2 7284   7.612   4.289   1.327
 2348WAT      O 7285   2.408   0.299   9.681
 2348WAT     H1 7286   2.313   0.277   9.662
 2348WAT     H2 7287   2.413   0.385   9.732
 2349WAT      O 7288   8.610   4.773   8.970
 2349WAT     H1 7289   8.585   4.714   8.893
 2349WAT     H2 7290   8.630   4.865   8.936
 2350WAT      O 7291   3.885   7.821   6.923
 2350WAT     H1 7292   3.812   7.815   6.855
 2350WAT     H2 7293   3.962   7.764   6.896
 2351WAT      O 7294   6.943   6.863   9.623
 2351WAT     H1 7295   7.000   6.913   9.687
 2351WAT     H2 7296   6.903   6.926   9.557
 2352WAT      O 7297   7.535   7.045   5.475
 2352WAT     H1 7298   7.581   6.956   5.474
 2352WAT     H2 7299   7.546   7.087   5.565
 2353WAT      O 7300   4.458   5.652   9.482
 2353WAT     H1 7301   4.382   5.717   9.493
 2353WAT     H2 7302   4.442   5.573   9.541
 2354WAT      O 7303   5.140   5.874   1.873
 2354WAT     H1 7304   5.107   5.848   1.964
 2354WAT     H2 7305   5.193   5.958   1.879
 2355WAT      O 7306   0.549   0.465   7.179
 2355WAT     H1 7307   0.575   0.526   7.104
 2355WAT     H2 7308   0.631   0.428   7.222
 2356WAT      O 7309   1.478   2.225   7.016
 2356WAT     H1 7310   1.428   2.167   7.080
 2356WAT     H2 7311   1.564   2.255   7.058
 2357WAT      O 7312   8.078   6.538   8.686
 2357WAT     H1 7313   8.106   6.595   8.763
 2357WAT     H2 7314   8.092   6.442   8.709
 2358WAT      O 7315   8.164   7.460   2.398
 2358WAT     H1 7316   8.079   7.471   2.346
 2358WAT     H2 7317   8.141   7.429   2.491
 2359WAT      O 7318   6.517   9.186   0.739
 2359WAT     H1 7319   6.610   9.204   0.705
 2359WAT     H2 7320   6.469   9.273   0.751
 2360WAT      O 7321   8.603   0.231   9.844
 2360WAT     H1 7322   8.621   0.329   9.852
 2360WAT     H2 7323   8.610   0.204   9.748
 2361WAT      O 7324   3.963   9.647   1.776
 2361WAT     H1 7325   3.987   9.591   1.856
 2361WAT     H2 7326   3.925   9.734   1.807
 2362WAT      O 7327   3.205   5.482   3.724
 2362WAT     H1 7328   3.109   5.454   3.734
 2362WAT     H2 7329   3.245   5.439   3.643
 2363WAT      O 7330   1.689   9.435   1.688
 2363WAT     H1 7331   1.608   9.376   1.690
 2363WAT     H2 7332   1.692   9.490   1.771
 2364WAT      O 7333   5.706   4.945   1.911
 2364WAT     H1 7334   5.656   5.015   1.962
 2364WAT     H2 7335   5.749   4.882   1.975
 2365WAT      O 7336   1.781   0.664   4.420
 2365WAT     H1 7337   1.818   0.731   4.485
 2365WAT     H2 7338   1.686   0.644   4.443
 2366WAT      O 7339   6.792   5.444   7.065
 2366WAT     H1 7340   6.798   5.344   7.068
 2366WAT     H2 7341   6.794   5.475   6.970
 2367WAT      O 7342   2.505   3.134   9.410
 2367WAT     H1 7343   2.408   3.136   9.432
 2367WAT     H2 7344   2.550   3.061   9.462
 2368WAT      O 7345   9.084   8.686   5.052
 2368WAT     H1 7346   9.102   8.588   5.053
 2368WAT     H2 7347   9.040   8.711   4.966
 2369WAT      O 7348   3.913   5.750   5.029
 2369WAT     H1 7349   3.880   5.807   4.953
 2369WAT     H2 7350   3.991   5.695   4.997
 2370WAT      O 7351   5.613   0.788   6.327
 2370WAT     H1 7352   5.675   0.841   6.269
 2370WAT     H2 7353   5.650   0.783   6.420
 2371WAT      O 7354   3.715   5.602   2.517
 2371WAT     H1 7355   3.671   5.631   2.602
 2371WAT     H2 7356   3.748   5.508   2.526
 2372WAT      O 7357   3.008   1.079   6.532
 2372WAT     H1 7358   2.912   1.072   6.560
 2372WAT     H2 7359   3.027   1.012   6.460
 2373WAT      O 7360   3.195   1.695   8.821
 2373WAT     H1 7361   3.250   1.718   8.741
 2373WAT     H2 7362   3.099   1.717   8.803
 2374WAT      O 7363   4.373   6.798   3.063
 2374WAT     H1 7364   4.313   6.739   3.008
 2374WAT     H2 7365   4.461   6.807   3.018
 2375WAT      O 7366   9.103   5.982   2.615
 2375WAT     H1 7367   9.113   6.069   2.665
 2375WAT     H2 7368   9.169   5.979   2.540
 2376WAT      O 7369   8.217   3.357   4.026
 2376WAT     H1 7370   8.200   3.277   3.970
 2376WAT     H2 7371   8.140   3.421   4.018
 2377WAT      O 7372   7.585   9.557   6.731
 2377WAT     H1 7373   7.506   9.497   6.719
 2377WAT     H2 7374   7.571   9.615   6.811
 2378WAT      O 7375   6.783   9.109   4.686
 2378WAT     H1 7376   6.841   9.189   4.670
 2378WAT     H2 7377   6.765   9.063   4.599
 2379WAT      O 7378   6.060   9.017   6.348
 2379WAT     H1 7379   6.002   9.093   6.317
 2379WAT     H2 7380   6.085   8.960   6.270
 2380WAT      O 7381   8.059   3.332   6.426
 2380WAT     H1 7382   8.069   3.299   6.520
 2380WAT     H2 7383   8.121   3.281   6.366
 2381WAT      O 7384   3.078   9.253   9.822
 2381WAT     H1 7385   3.099   9.339   9.775
 2381WAT     H2 7386   3.066   9.270   9.919
 2382WAT      O 7387   1.442   1.750   8.902
 2382WAT     H1 7388   1.430   1.656   8.869
 2382WAT     H2 7389   1.532   1.760   8.944
 2383WAT      O 7390   3.573   4.381   1.707
 2383WAT     H1 7391   3.549   4.451   1.640
 2383WAT     H2 7392   3.568   4.290   1.665
 2384WAT      O 7393   8.250   3.921   2.567
 2384WAT     H1 7394   8.158   3.905   2.530
 2384WAT     H2 7395   8.268   3.856   2.640
 2385WAT      O 7396   1.643   7.165   0.114
 2385WAT     H1 7397   1.612   7.185   0.021
 2385WAT     H2 7398   1.566   7.169   0.177
 2386WAT      O 7399   6.941   5.062   4.318
 2386WAT     H1 7400   6.915   5.122   4.242
 2386WAT     H2 7401   6.914   4.968   4.296
 2387WAT      O 7402   8.936   8.365   0.282
 2387WAT     H1 7403   9.005   8.308   0.235
 2387WAT     H2 7404   8.944   8.352   0.381
 2388WAT      O 7405   6.442   9.467   5.935
 2388WAT     H1 7406   6.421   9.549   5.881
 2388WAT     H2 7407   6.506   9.409   5.885
 2389WAT      O 7408   9.698   8.552   2.925
 2389WAT     H1 7409   9.620   8.519   2.872
 2389WAT     H2 7410   9.690   8.519   3.019
 2390WAT      O 7411   8.090   2.716   0.697
 2390WAT     H1 7412   8.123   2.714   0.602
 2390WAT     H2 7413   8.097   2.809   0.733
 2391WAT      O 7414   2.878   1.331   7.545
 2391WAT     H1 7415   2.821   1.372   7.617
 2391WAT     H2 7416   2.947   1.272   7.587
 2392WAT      O 7417   7.349   6.334   8.627
 2392WAT     H1 7418   7.382   6.364   8.717
 2392WAT     H2 7419   7.253   6.360   8.617
 2393WAT      O 7420   0.888   3.120   8.488
 2393WAT     H1 7421   0.907   3.217   8.505
 2393WAT     H2 7422   0.867   3.074   8.574
 2394WAT      O 7423   6.078   4.029   8.894
 2394WAT     H1 7424   6.024   4.105   8.860
 2394WAT     H2 7425   6.175   4.050   8.884
 2395WAT      O 7426   8.755   1.905   3.789
 2395WAT     H1 7427   8.769   1.814   3.750
 2395WAT     H2 7428   8.693   1.957   3.731
 2396WAT      O 7429   9.562   6.763   4.396
 2396WAT     H1 7430   9.473   6.799   4.424
 2396WAT     H2 7431   9.633   6.794   4.460
 2397WAT      O 7432   7.203   0.018   8.039
 2397WAT     H1 7433   7.179   0.115   8.045
 2397WAT     H2 7434   7.235  -0.014   8.128
 2398WAT      O 7435   8.101   7.371   7.237
 2398WAT     H1 7436   8.036   7.309   7.281
 2398WAT     H2 7437   8.058   7.461   7.225
 2399WAT      O 7438   9.160   7.489   9.160
 2399WAT     H1 7439   9.070   7.453   9.137
 2399WAT     H2 7440   9.205   7.427   9.224
 2400WAT      O 7441   9.827   6.841   6.864
 2400WAT     H1 7442   9.843   6.903   6.941
 2400WAT     H2 7443   9.913   6.827   6.815
 2401WAT      O 7444   2.176   9.795   1.713
 2401WAT     H1 7445   2.176   9.834   1.620
 2401WAT     H2 7446   2.271   9.790   1.746
 2402WAT      O 7447   8.361   5.031   3.874
 2402WAT     H1 7448   8.405   5.017   3.962
 2402WAT     H2 7449   8.425   5.074   3.811
 2403WAT      O 7450   8.089   8.164   6.665
 2403WAT     H1 7451   8.061   8.099   6.594
 2403WAT     H2 7452   8.182   8.194   6.648
 2404WAT      O 7453   9.278   0.146   4.272
 2404WAT     H1 7454   9.246   0.052   4.286
 2404WAT     H2 7455   9.329   0.152   4.186
 2405WAT      O 7456   8.899   8.290   7.076
 2405WAT     H1 7457   8.995   8.278   7.099
 2405WAT     H2 7458   8.883   8.264   6.981
 2406WAT      O 7459   7.610   0.179   2.414
 2406WAT     H1 7460   7.592   0.278   2.417
 2406WAT     H2 7461   7.570   0.140   2.332
 2407WAT      O 7462   8.154   2.648   1.661
 2407WAT     H1 7463   8.123   2.680   1.572
 2407WAT     H2 7464   8.241   2.692   1.685
 2408WAT      O 7465   4.476   4.410   1.434
 2408WAT     H1 7466   4.513   4.333   1.485
 2408WAT     H2 7467   4.377   4.400   1.425
 2409WAT      O 7468   9.301   1.214   4.208
 2409WAT     H1 7469   9.395   1.180   4.203
 2409WAT     H2 7470   9.303   1.310   4.236
 2410WAT      O 7471   6.436   0.122   7.239
 2410WAT     H1 7472   6.445   0.052   7.310
 2410WAT     H2 7473   6.524   0.135   7.193
 2411WAT      O 7474   7.679   3.363   0.529
 2411WAT     H1 7475   7.644   3.390   0.619
 2411WAT     H2 7476   7.606   3.371   0.462
 2412WAT      O 7477   2.531   6.663   5.182
 2412WAT     H1 7478   2.567   6.577   5.147
 2412WAT     H2 7479   2.556   6.737   5.120
 2413WAT      O 7480   0.767   1.359   9.070
 2413WAT     H1 7481   0.701   1.417   9.118
 2413WAT     H2 7482   0.851   1.411   9.055
 2414WAT      O 7483   3.621   2.433   3.617
 2414WAT     H1 7484   3.706   2.443   3.667
 2414WAT     H2 7485   3.621   2.345   3.568
 2415WAT      O 7486   7.514   8.079   5.947
 2415WAT     H1 7487   7.527   8.175   5.970
 2415WAT     H2 7488   7.541   8.063   5.852
 2416WAT      O 7489   1.950   8.463   2.367
 2416WAT     H1 7490   1.858   8.441   2.334
 2416WAT     H2 7491   1.974   8.556   2.339
 2417WAT      O 7492   9.316   6.381   9.566
 2417WAT     H1 7493   9.372   6.344   9.640
 2417WAT     H2 7494   9.248   6.444   9.603
 2418WAT      O 7495   4.889   3.919   3.123
 2418WAT     H1 7496   4.793   3.895   3.141
 2418WAT     H2 7497   4.909   4.008   3.165
 2419WAT      O 7498   9.064   5.009   5.497
 2419WAT     H1 7499   9.097   4.990   5.589
 2419WAT     H2 7500   9.119   4.957   5.431
 2420WAT      O 7501   7.363   3.987   2.473
 2420WAT     H1 7502   7.339   3.937   2.390
 2420WAT     H2 7503   7.423   3.931   2.530
 2421WAT      O 7504   0.247   7.437   3.131
 2421WAT     H1 7505   0.198   7.398   3.210
 2421WAT     H2 7506   0.303   7.514   3.161
 2422WAT      O 7507   8.023   0.211   7.614
 2422WAT     H1 7508   7.943   0.151   7.619
 2422WAT     H2 7509   8.088   0.174   7.548
 2423WAT      O 7510   1.121   9.656   5.130
 2423WAT     H1 7511   1.211   9.668   5.090
 2423WAT     H2 7512   1.050   9.680   5.063
 2424WAT      O 7513   5.652   0.932   3.463
 2424WAT     H1 7514   5.748   0.954   3.447
 2424WAT     H2 7515   5.598   1.016   3.456
 2425WAT      O 7516   6.722   8.674   5.163
 2425WAT     H1 7517   6.785   8.596   5.165
 2425WAT     H2 7518   6.628   8.640   5.166
 2426WAT      O 7519   6.306   2.537   5.080
 2426WAT     H1 7520   6.388   2.546   5.136
 2426WAT     H2 7521   6.234   2.598   5.115
 2427WAT      O 7522   8.734   3.390   8.706
 2427WAT     H1 7523   8.765   3.375   8.612
 2427WAT     H2 7524   8.785   3.467   8.746
 2428WAT      O 7525   8.749   7.387   6.724
 2428WAT     H1 7526   8.834   7.335   6.725
 2428WAT     H2 7527   8.683   7.345   6.786
 2429WAT      O 7528   3.619   0.898   3.576
 2429WAT     H1 7529   3.562   0.823   3.609
 2429WAT     H2 7530   3.703   0.903   3.630
 2430WAT      O 7531   1.268   8.943   9.856
 2430WAT     H1 7532   1.210   8.911   9.781
 2430WAT     H2 7533   1.354   8.892   9.855
 2431WAT      O 7534   2.508   5.203   8.308
 2431WAT     H1 7535   2.422   5.193   8.258
 2431WAT     H2 7536   2.500   5.157   8.397
 2432WAT      O 7537   7.873   0.419   0.876
 2432WAT     H1 7538   7.786   0.465   0.895
 2432WAT     H2 7539   7.894   0.427   0.779
 2433WAT      O 7540   5.101   1.008   1.278
 2433WAT     H1 7541   5.129   0.913   1.270
 2433WAT     H2 7542   5.016   1.013   1.331
 2434WAT      O 7543   5.522   2.888   0.700
 2434WAT     H1 7544   5.431   2.888   0.660
 2434WAT     H2 7545   5.515   2.879   0.799
 2435WAT      O 7546   7.118   4.214   0.493
 2435WAT     H1 7547   7.058   4.192   0.570
 2435WAT     H2 7548   7.074   4.188   0.407
 2436WAT      O 7549   0.534   2.029   8.902
 2436WAT     H1 7550   0.469   1.984   8.962
 2436WAT     H2 7551   0.606   1.965   8.875
 2437WAT      O 7552   3.136   8.931   5.425
 2437WAT     H1 7553   3.133   8.956   5.521
 2437WAT     H2 7554   3.108   9.009   5.369
 2438WAT      O 7555   9.891   3.660   1.930
 2438WAT     H1 7556   9.831   3.606   1.871
 2438WAT     H2 7557   9.912   3.747   1.884
 2439WAT      O 7558   2.275   8.320   8.893
 2439WAT     H1 7559   2.190   8.367   8.915
 2439WAT     H2 7560   2.267   8.277   8.803
 2440WAT      O 7561   5.726   5.520   0.530
 2440WAT     H1 7562   5.638   5.473   0.542
 2440WAT     H2 7563   5.785   5.502   0.609
 2441WAT      O 7564   4.649   7.918   3.444
 2441WAT     H1 7565   4.579   7.957   3.384
 2441WAT     H2 7566   4.696   7.843   3.397
 2442WAT      O 7567   0.425   2.819   6.047
 2442WAT     H1 7568   0.455   2.912   6.067
 2442WAT     H2 7569   0.458   2.792   5.956
 2443WAT      O 7570   1.508   9.254   0.635
 2443WAT     H1 7571   1.416   9.234   0.668
 2443WAT     H2 7572   1.575   9.207   0.692
 2444WAT      O 7573   4.516   2.405   9.288
 2444WAT     H1 7574   4.596   2.355   9.320
 2444WAT     H2 7575   4.454   2.342   9.241
 2445WAT      O 7576   9.245   2.444   2.094
 2445WAT     H1 7577   9.265   2.369   2.156
 2445WAT     H2 7578   9.211   2.523   2.145
 2446WAT      O 7579   3.089   5.503   4.525
 2446WAT     H1 7580   3.156   5.576   4.515
 2446WAT     H2 7581   3.002   5.531   4.484
 2447WAT      O 7582   4.871   7.644   8.664
 2447WAT     H1 7583   4.840   7.552   8.688
 2447WAT     H2 7584   4.829   7.711   8.726
 2448WAT      O 7585   9.735   3.911   1.614
 2448WAT     H1 7586   9.786   3.892   1.698
 2448WAT     H2 7587   9.791   3.968   1.554
 2449WAT      O 7588   9.324   7.735   1.291
 2449WAT     H1 7589   9.282   7.656   1.336
 2449WAT     H2 7590   9.307   7.729   1.192
 2450WAT      O 7591   2.084   3.763   6.150
 2450WAT     H1 7592   2.170   3.811   6.131
 2450WAT     H2 7593   2.066   3.698   6.076
 2451WAT      O 7594   9.271   0.997   6.347
 2451WAT     H1 7595   9.360   1.013   6.390
 2451WAT     H2 7596   9.285   0.956   6.256
 2452WAT      O 7597   1.525   7.351   4.840
 2452WAT     H1 7598   1.546   7.422   4.773
 2452WAT     H2 7599   1.483   7.393   4.921
 2453WAT      O 7600   3.398   2.007   1.513
 2453WAT     H1 7601   3.392   2.087   1.573
 2453WAT     H2 7602   3.430   1.928   1.565
 2454WAT      O 7603   8.290   0.130   0.775
 2454WAT     H1 7604   8.269   0.109   0.680
 2454WAT     H2 7605   8.281   0.228   0.791
 2455WAT      O 7606   4.207   7.128   9.347
 2455WAT     H1 7607   4.276   7.162   9.410
 2455WAT     H2 7608   4.124   7.183   9.355
 2456WAT      O 7609   0.823   1.595   3.720
 2456WAT     H1 7610   0.774   1.634   3.642
 2456WAT     H2 7611   0.918   1.624   3.717
 2457WAT      O 7612   4.304   5.224   9.191
 2457WAT     H1 7613   4.403   5.226   9.205
 2457WAT     H2 7614   4.284   5.227   9.093
 2458WAT      O 7615   4.341   7.950   4.891
 2458WAT     H1 7616   4.320   7.855   4.916
 2458WAT     H2 7617   4.342   8.007   4.972
 2459WAT      O 7618   2.380   1.943   0.844
 2459WAT     H1 7619   2.438   1.867   0.813
 2459WAT     H2 7620   2.302   1.953   0.782
 2460WAT      O 7621   9.012   8.876   3.372
 2460WAT     H1 7622   9.096   8.861   3.320
 2460WAT     H2 7623   8.934   8.876   3.309
 2461WAT      O 7624   0.127   1.112   5.487
 2461WAT     H1 7625   0.108   1.208   5.469
 2461WAT     H2 7626   0.173   1.071   5.408
 2462WAT      O 7627   0.257   1.217   7.087
 2462WAT     H1 7628   0.211   1.306   7.094
 2462WAT     H2 7629   0.288   1.203   6.994
 2463WAT      O 7630   5.463   4.345   9.776
 2463WAT     H1 7631   5.444   4.255   9.737
 2463WAT     H2 7632   5.530   4.336   9.850
 2464WAT      O 7633   0.675   1.228   0.366
 2464WAT     H1 7634   0.610   1.225   0.290
 2464WAT     H2 7635   0.683   1.137   0.407
 2465WAT      O 7636   1.940   5.376   8.856
 2465WAT     H1 7637   1.844   5.349   8.854
 2465WAT     H2 7638   1.948   5.473   8.832
 2466WAT      O 7639   6.225   9.522   9.483
 2466WAT     H1 7640   6.185   9.603   9.527
 2466WAT     H2 7641   6.181   9.440   9.518
 2467WAT      O 7642   9.291   1.428   5.982
 2467WAT     H1 7643   9.285   1.525   6.007
 2467WAT     H2 7644   9.253   1.372   6.056
 2468WAT      O 7645   4.761   7.413   1.237
 2468WAT     H1 7646   4.786   7.319   1.214
 2468WAT     H2 7647   4.827   7.450   1.302
 2469WAT      O 7648   4.996   5.338   1.749
 2469WAT     H1 7649   5.067   5.408   1.739
 2469WAT     H2 7650   5.032   5.249   1.721
 2470WAT      O 7651   8.776   3.128   6.661
 2470WAT     H1 7652   8.798   3.036   6.692
 2470WAT     H2 7653   8.814   3.195   6.725
 2471WAT      O 7654   5.891   0.720   2.163
 2471WAT     H1 7655   5.872   0.631   2.205
 2471WAT     H2 7656   5.990   0.736   2.163
 2472WAT      O 7657   5.386   0.990   6.446
 2472WAT     H1 7658   5.411   1.053   6.371
 2472WAT     H2 7659   5.403   0.896   6.416
 2473WAT      O 7660   7.720   5.649   0.707
 2473WAT     H1 7661   7.665   5.731   0.726
 2473WAT     H2 7662   7.800   5.674   0.653
 2474WAT      O 7663   2.372   6.230   4.449
 2474WAT     H1 7664   2.433   6.158   4.416
 2474WAT     H2 7665   2.417   6.319   4.439
 2475WAT      O 7666   7.872   6.340   4.186
 2475WAT     H1 7667   7.931   6.351   4.106
 2475WAT     H2 7668   7.777   6.354   4.159
 2476WAT      O 7669   6.616   5.683   8.820
 2476WAT     H1 7670   6.584   5.638   8.903
 2476WAT     H2 7671   6.577   5.636   8.740
 2477WAT      O 7672   4.215   1.962   7.798
 2477WAT     H1 7673   4.138   1.956   7.861
 2477WAT     H2 7674   4.266   1.876   7.799
 2478WAT      O 7675   3.447   7.421   7.041
 2478WAT     H1 7676   3.473   7.430   7.137
 2478WAT     H2 7677   3.373   7.354   7.032
 2479WAT      O 7678   5.140   6.456   3.488
 2479WAT     H1 7679   5.155   6.546   3.446
 2479WAT     H2 7680   5.185   6.386   3.433
 2480WAT      O 7681   0.701   3.951   5.729
 2480WAT     H1 7682   0.633   3.980   5.662
 2480WAT     H2 7683   0.693   4.007   5.812
 2481WAT      O 7684   4.874   1.725   8.750
 2481WAT     H1 7685   4.920   1.784   8.683
 2481WAT     H2 7686   4.940   1.692   8.816
 2482WAT      O 7687   6.047   7.156   3.558
 2482WAT     H1 7688   5.969   7.176   3.499
 2482WAT     H2 7689   6.104   7.238   3.566
 2483WAT      O 7690   5.811   7.208   2.478
 2483WAT     H1 7691   5.816   7.284   2.414
 2483WAT     H2 7692   5.816   7.121   2.428
 2484WAT      O 7693   6.030   5.381   0.159
 2484WAT     H1 7694   6.110   5.338   0.200
 2484WAT     H2 7695   5.998   5.455   0.217
 2485WAT      O 7696   9.298   1.042   5.673
 2485WAT     H1 7697   9.270   1.125   5.722
 2485WAT     H2 7698   9.261   0.962   5.719
 2486WAT      O 7699   9.508   4.207   5.316
 2486WAT     H1 7700   9.427   4.159   5.281
 2486WAT     H2 7701   9.486   4.304   5.329
 2487WAT      O 7702   6.057   3.870   3.201
 2487WAT     H1 7703   6.019   3.960   3.178
 2487WAT     H2 7704   6.010   3.799   3.148
 2488WAT      O 7705   6.036   5.677   4.533
 2488WAT     H1 7706   6.057   5.763   4.488
 2488WAT     H2 7707   6.118   5.619   4.536
 2489WAT      O 7708   0.583   2.102   5.262
 2489WAT     H1 7709   0.539   2.127   5.348
 2489WAT     H2 7710   0.681   2.119   5.269
 2490WAT      O 7711   1.767   3.921   5.009
 2490WAT     H1 7712   1.723   3.992   5.065
 2490WAT     H2 7713   1.864   3.941   5.000
 2491WAT      O 7714   4.136   7.639   9.605
 2491WAT     H1 7715   4.071   7.654   9.530
 2491WAT     H2 7716   4.199   7.566   9.579
 2492WAT      O 7717   4.431   8.139   4.439
 2492WAT     H1 7718   4.506   8.187   4.483
 2492WAT     H2 7719   4.404   8.189   4.356
 2493WAT      O 7720   8.337   1.596   2.207
 2493WAT     H1 7721   8.278   1.550   2.141
 2493WAT     H2 7722   8.294   1.682   2.236
 2494WAT      O 7723   4.629   7.716   4.145
 2494WAT     H1 7724   4.726   7.738   4.132
 2494WAT     H2 7725   4.589   7.781   4.209
 2495WAT      O 7726   9.130   8.191   5.379
 2495WAT     H1 7727   9.041   8.172   5.337
 2495WAT     H2 7728   9.201   8.189   5.309
 2496WAT      O 7729   6.508   4.732   4.256
 2496WAT     H1 7730   6.448   4.658   4.227
 2496WAT     H2 7731   6.526   4.725   4.354
 2497WAT      O 7732   5.835   6.969   6.821
 2497WAT     H1 7733   5.846   6.901   6.749
 2497WAT     H2 7734   5.849   7.061   6.783
 2498WAT      O 7735   2.324   8.702   7.000
 2498WAT     H1 7736   2.398   8.758   7.039
 2498WAT     H2 7737   2.362   8.617   6.965
 2499WAT      O 7738   1.225   4.687   4.096
 2499WAT     H1 7739   1.178   4.766   4.058
 2499WAT     H2 7740   1.261   4.709   4.186
 2500WAT      O 7741   2.954   6.635   4.594
 2500WAT     H1 7742   3.037   6.668   4.549
 2500WAT     H2 7743   2.915   6.708   4.650
 2501WAT      O 7744   7.716   3.524   2.659
 2501WAT     H1 7745   7.681   3.573   2.579
 2501WAT     H2 7746   7.659   3.444   2.678
 2502WAT      O 7747   0.371   5.999   7.850
 2502WAT     H1 7748   0.371   6.097   7.868
 2502WAT     H2 7749   0.462   5.969   7.823
 2503WAT      O 7750   4.048   9.727   2.721
 2503WAT     H1 7751   4.037   9.715   2.622
 2503WAT     H2 7752   4.100   9.810   2.739
 2504WAT      O 7753   5.553   6.910   7.528
 2504WAT     H1 7754   5.626   6.851   7.564
 2504WAT     H2 7755   5.563   6.918   7.429
 2505WAT      O 7756   8.168   0.640   5.263
 2505WAT     H1 7757   8.259   0.672   5.289
 2505WAT     H2 7758   8.124   0.709   5.205
 2506WAT      O 7759   6.321   9.096   3.880
 2506WAT     H1 7760   6.317   9.099   3.980
 2506WAT     H2 7761   6.411   9.128   3.849
 2507WAT      O 7762   8.974   3.687   5.218
 2507WAT     H1 7763   9.034   3.697   5.139
 2507WAT     H2 7764   8.879   3.681   5.186
 2508WAT      O 7765   0.927   6.730   3.968
 2508WAT     H1 7766   0.985   6.705   3.890
 2508WAT     H2 7767   0.838   6.686   3.959
 2509WAT      O 7768   1.667   4.643   3.654
 2509WAT     H1 7769   1.626   4.663   3.744
 2509WAT     H2 7770   1.608   4.681   3.582
 2510WAT      O 7771   0.661   9.745   2.200
 2510WAT     H1 7772   0.630   9.839   2.190
 2510WAT     H2 7773   0.721   9.738   2.279
 2511WAT      O 7774   5.168   2.451   4.155
 2511WAT     H1 7775   5.220   2.366   4.155
 2511WAT     H2 7776   5.071   2.431   4.141
 2512WAT      O 7777   7.787   6.869   4.698
 2512WAT     H1 7778   7.858   6.898   4.763
 2512WAT     H2 7779   7.750   6.781   4.727
 2513WAT      O 7780   9.739   2.423   1.223
 2513WAT     H1 7781   9.825   2.457   1.260
 2513WAT     H2 7782   9.714   2.477   1.143
 2514WAT      O 7783   3.391   9.706   5.214
 2514WAT     H1 7784   3.448   9.662   5.284
 2514WAT     H2 7785   3.345   9.785   5.254
 2515WAT      O 7786   0.185   5.894   7.637
 2515WAT     H1 7787   0.103   5.950   7.652
 2515WAT     H2 7788   0.260   5.929   7.693
 2516WAT      O 7789   7.767   0.924   9.511
 2516WAT     H1 7790   7.723   0.968   9.432
 2516WAT     H2 7791   7.850   0.973   9.535
 2517WAT      O 7792   7.143   0.615   0.432
 2517WAT     H1 7793   7.122   0.700   0.385
 2517WAT     H2 7794   7.221   0.628   0.493
 2518WAT      O 7795   7.537   6.438   0.739
 2518WAT     H1 7796   7.470   6.513   0.737
 2518WAT     H2 7797   7.491   6.353   0.761
 2519WAT      O 7798   4.228   4.363   1.900
 2519WAT     H1 7799   4.248   4.386   1.995
 2519WAT     H2 7800   4.143   4.409   1.872
 2520WAT      O 7801   6.631   8.506   4.095
 2520WAT     H1 7802   6.648   8.582   4.157
 2520WAT     H2 7803   6.543   8.518   4.050
 2521WAT      O 7804   7.550   3.866   5.498
 2521WAT     H1 7805   7.617   3.904   5.563
 2521WAT     H2 7806   7.468   3.839   5.548
 2522WAT      O 7807   7.593   5.942   2.846
 2522WAT     H1 7808   7.538   6.011   2.799
 2522WAT     H2 7809   7.539   5.859   2.858
 2523WAT      O 7810   6.453   5.642   7.910
 2523WAT     H1 7811   6.420   5.725   7.865
 2523WAT     H2 7812   6.389   5.567   7.894
 2524WAT      O 7813   5.978   3.702   5.448
 2524WAT     H1 7814   5.976   3.689   5.547
 2524WAT     H2 7815   5.885   3.697   5.412
 2525WAT      O 7816   6.867   2.122   2.647
 2525WAT     H1 7817   6.770   2.127   2.667
 2525WAT     H2 7818   6.893   2.198   2.587
 2526WAT      O 7819   6.691   0.742   2.262
 2526WAT     H1 7820   6.726   0.786   2.180
 2526WAT     H2 7821   6.613   0.793   2.297
 2527WAT      O 7822   4.562   9.478   1.008
 2527WAT     H1 7823   4.497   9.414   1.048
 2527WAT     H2 7824   4.653   9.462   1.048
 2528WAT      O 7825   2.107   2.933   0.693
 2528WAT     H1 7826   2.037   3.004   0.688
 2528WAT     H2 7827   2.098   2.871   0.614
 2529WAT      O 7828   9.378   7.652   4.525
 2529WAT     H1 7829   9.360   7.594   4.446
 2529WAT     H2 7830   9.475   7.674   4.529
 2530WAT      O 7831   7.062   3.808   8.686
 2530WAT     H1 7832   7.054   3.908   8.682
 2530WAT     H2 7833   6.990   3.766   8.631
 2531WAT      O 7834   2.929   0.255   4.802
 2531WAT     H1 7835   2.953   0.183   4.868
 2531WAT     H2 7836   2.996   0.257   4.728
 2532WAT      O 7837   2.291   7.886   8.418
 2532WAT     H1 7838   2.251   7.854   8.503
 2532WAT     H2 7839   2.224   7.879   8.344
 2533WAT      O 7840   4.663   6.541   0.911
 2533WAT     H1 7841   4.722   6.463   0.890
 2533WAT     H2 7842   4.571   6.509   0.932
 2534WAT      O 7843   9.648   1.842   9.376
 2534WAT     H1 7844   9.632   1.800   9.286
 2534WAT     H2 7845   9.561   1.862   9.420
 2535WAT      O 7846   9.095   1.660   9.684
 2535WAT     H1 7847   9.033   1.722   9.733
 2535WAT     H2 7848   9.096   1.572   9.731
 2536WAT      O 7849   6.611   7.193   2.502
 2536WAT     H1 7850   6.685   7.259   2.513
 2536WAT     H2 7851   6.538   7.213   2.567
 2537WAT      O 7852   3.793   9.492   8.395
 2537WAT     H1 7853   3.756   9.400   8.378
 2537WAT     H2 7854   3.882   9.484   8.440
 2538WAT      O 7855   5.780   8.829   3.760
 2538WAT     H1 7856   5.766   8.731   3.742
 2538WAT     H2 7857   5.746   8.850   3.852
 2539WAT      O 7858   8.327   8.696   5.395
 2539WAT     H1 7859   8.300   8.774   5.452
 2539WAT     H2 7860   8.351   8.728   5.303
 2540WAT      O 7861   3.589   1.675   8.487
 2540WAT     H1 7862   3.650   1.739   8.534
 2540WAT     H2 7863   3.494   1.695   8.510
 2541WAT      O 7864   3.590   6.081   2.899
 2541WAT     H1 7865   3.585   5.984   2.924
 2541WAT     H2 7866   3.608   6.089   2.801
 2542WAT      O 7867   4.458   7.718   1.855
 2542WAT     H1 7868   4.420   7.649   1.793
 2542WAT     H2 7869   4.438   7.693   1.950
 2543WAT      O 7870   0.431   7.132   3.526
 2543WAT     H1 7871   0.383   7.049   3.553
 2543WAT     H2 7872   0.435   7.137   3.426
 2544WAT      O 7873   2.611   1.545   2.203
 2544WAT     H1 7874   2.620   1.467   2.141
 2544WAT     H2 7875   2.540   1.607   2.170
 2545WAT      O 7876   0.697   5.867   6.491
 2545WAT     H1 7877   0.654   5.907   6.410
 2545WAT     H2 7878   0.625   5.831   6.551
 2546WAT      O 7879   7.042   0.831   6.559
 2546WAT     H1 7880   6.980   0.856   6.485
 2546WAT     H2 7881   7.130   0.877   6.547
 2547WAT      O 7882   3.887   5.724   8.169
 2547WAT     H1 7883   3.863   5.629   8.148
 2547WAT     H2 7884   3.845   5.750   8.256
 2548WAT      O 7885   8.946   8.383   1.261
 2548WAT     H1 7886   9.003   8.318   1.311
 2548WAT     H2 7887   9.004   8.446   1.210
 2549WAT      O 7888   1.261   9.334   5.381
 2549WAT     H1 7889   1.224   9.242   5.385
 2549WAT     H2 7890   1.327   9.340   5.305
 2550WAT      O 7891   8.944   4.208   7.323
 2550WAT     H1 7892   9.000   4.160   7.391
 2550WAT     H2 7893   8.999   4.225   7.241
 2551WAT      O 7894   1.778   3.582   6.464
 2551WAT     H1 7895   1.712   3.595   6.538
 2551WAT     H2 7896   1.739   3.521   6.395
 2552WAT      O 7897   5.133   5.407   4.424
 2552WAT     H1 7898   5.058   5.464   4.457
 2552WAT     H2 7899   5.190   5.460   4.361
 2553WAT      O 7900   2.011   3.788   3.541
 2553WAT     H1 7901   1.934   3.814   3.482
 2553WAT     H2 7902   2.091   3.845   3.519
 2554WAT      O 7903   9.119   9.515   9.093
 2554WAT     H1 7904   9.184   9.460   9.040
 2554WAT     H2 7905   9.058   9.563   9.030
 2555WAT      O 7906   3.854   5.993   6.055
 2555WAT     H1 7907   3.891   6.062   6.118
 2555WAT     H2 7908   3.757   5.981   6.072
 2556WAT      O 7909   1.478   4.187   4.522
 2556WAT     H1 7910   1.431   4.101   4.505
 2556WAT     H2 7911   1.443   4.228   4.607
 2557WAT      O 7912   9.035   2.481   0.549
 2557WAT     H1 7913   8.944   2.521   0.539
 2557WAT     H2 7914   9.093   2.510   0.473
 2558WAT      O 7915   4.809   8.238   1.175
 2558WAT     H1 7916   4.710   8.243   1.160
 2558WAT     H2 7917   4.848   8.168   1.116
 2559WAT      O 7918   9.545   3.594   9.136
 2559WAT     H1 7919   9.570   3.514   9.191
 2559WAT     H2 7920   9.492   3.565   9.056
 2560WAT      O 7921   5.245   1.986   4.582
 2560WAT     H1 7922   5.221   2.008   4.676
 2560WAT     H2 7923   5.248   2.070   4.527
 2561WAT      O 7924   5.365   4.013   4.960
 2561WAT     H1 7925   5.330   3.933   4.912
 2561WAT     H2 7926   5.377   3.991   5.057
 2562WAT      O 7927   8.288   4.825   5.626
 2562WAT     H1 7928   8.257   4.816   5.720
 2562WAT     H2 7929   8.215   4.866   5.570
 2563WAT      O 7930   0.155   1.129   6.818
 2563WAT     H1 7931   0.239   1.077   6.805
 2563WAT     H2 7932   0.088   1.073   6.866
 2564WAT      O 7933   6.048   3.706   7.125
 2564WAT     H1 7934   5.971   3.770   7.119
 2564WAT     H2 7935   6.014   3.612   7.115
 2565WAT      O 7936   7.089   7.451   1.612
 2565WAT     H1 7937   7.137   7.482   1.530
 2565WAT     H2 7938   7.013   7.513   1.632
 2566WAT      O 7939   6.075   7.852   1.149
 2566WAT     H1 7940   6.123   7.867   1.236
 2566WAT     H2 7941   6.010   7.926   1.133
 2567WAT      O 7942   6.857   4.405   3.800
 2567WAT     H1 7943   6.912   4.487   3.813
 2567WAT     H2 7944   6.764   4.422   3.834
 2568WAT      O 7945   6.487   1.278   1.150
 2568WAT     H1 7946   6.515   1.369   1.181
 2568WAT     H2 7947   6.394   1.282   1.113
 2569WAT      O 7948   5.655   8.578   3.731
 2569WAT     H1 7949   5.579   8.635   3.700
 2569WAT     H2 7950   5.703   8.540   3.652
 2570WAT      O 7951   0.184   5.215   4.267
 2570WAT     H1 7952   0.213   5.294   4.320
 2570WAT     H2 7953   0.084   5.211   4.265
 2571WAT      O 7954   9.794   7.831   2.314
 2571WAT     H1 7955   9.853   7.838   2.233
 2571WAT     H2 7956   9.819   7.902   2.380
 2572WAT      O 7957   3.489   8.440   9.283
 2572WAT     H1 7958   3.462   8.528   9.243
 2572WAT     H2 7959   3.565   8.402   9.231
 2573WAT      O 7960   9.769   2.370   5.780
 2573WAT     H1 7961   9.793   2.430   5.703
 2573WAT     H2 7962   9.749   2.426   5.861
 2574WAT      O 7963   3.184   8.572   2.042
 2574WAT     H1 7964   3.202   8.475   2.029
 2574WAT     H2 7965   3.086   8.587   2.056
 2575WAT      O 7966   0.759   5.742   7.101
 2575WAT     H1 7967   0.753   5.832   7.056
 2575WAT     H2 7968   0.824   5.685   7.051
 2576WAT      O 7969   3.577   8.021   6.687
 2576WAT     H1 7970   3.486   7.981   6.692
 2576WAT     H2 7971   3.586   8.094   6.755
 2577WAT      O 7972   7.796   0.066   9.047
 2577WAT     H1 7973   7.858   0.050   9.123
 2577WAT     H2 7974   7.716   0.117   9.079
 2578WAT      O 7975   4.687   6.607   3.472
 2578WAT     H1 7976   4.643   6.560   3.549
 2578WAT     H2 7977   4.624   6.609   3.394
 2579WAT      O 7978   1.879   0.828   6.948
 2579WAT     H1 7979   1.937   0.769   6.891
 2579WAT     H2 7980   1.901   0.924   6.932
 2580WAT      O 7981   7.333   7.244   4.053
 2580WAT     H1 7982   7.355   7.289   3.966
 2580WAT     H2 7983   7.241   7.273   4.082
 2581WAT      O 7984   4.714   0.803   4.044
 2581WAT     H1 7985   4.799   0.807   4.096
 2581WAT     H2 7986   4.664   0.719   4.067
 2582WAT      O 7987   7.754   6.773   6.639
 2582WAT     H1 7988   7.686   6.846   6.642
 2582WAT     H2 7989   7.734   6.705   6.710
 2583WAT      O 7990   2.434   7.306   5.765
 2583WAT     H1 7991   2.482   7.277   5.682
 2583WAT     H2 7992   2.387   7.228   5.806
 2584WAT      O 7993   7.023   2.496   4.142
 2584WAT     H1 7994   6.989   2.470   4.052
 2584WAT     H2 7995   7.123   2.498   4.140
 2585WAT      O 7996   7.616   4.548   3.699
 2585WAT     H1 7997   7.665   4.504   3.624
 2585WAT     H2 7998   7.676   4.616   3.741
 2586WAT      O 7999   9.104   1.202   3.664
 2586WAT     H1 8000   9.113   1.241   3.756
 2586WAT     H2 8001   9.188   1.216   3.613
 2587WAT      O 8002   9.712   6.036   5.530
 2587WAT     H1 8003   9.743   6.056   5.437
 2587WAT     H2 8004   9.663   6.115   5.566
 2588WAT      O 8005   9.552   6.963   5.678
 2588WAT     H1 8006   9.651   6.973   5.679
 2588WAT     H2 8007   9.519   6.952   5.772
 2589WAT      O 8008   2.335   5.784   1.989
 2589WAT     H1 8009   2.312   5.767   2.085
 2589WAT     H2 8010   2.314   5.702   1.936
 2590WAT      O 8011   6.264   4.018   2.083
 2590WAT     H1 8012   6.189   3.968   2.126
 2590WAT     H2 8013   6.228   4.081   2.014
 2591WAT      O 8014   3.187   8.104   1.158
 2591WAT     H1 8015   3.171   8.145   1.247
 2591WAT     H2 8016   3.273   8.138   1.120
 2592WAT      O 8017   1.623   6.971   9.574
 2592WAT     H1 8018   1.646   7.055   9.526
 2592WAT     H2 8019   1.656   6.892   9.522
 2593WAT      O 8020   5.854   5.946   3.987
 2593WAT     H1 8021   5.894   5.905   4.069
 2593WAT     H2 8022   5.819   6.037   4.009
 2594WAT      O 8023   4.734   2.785   9.035
 2594WAT     H1 8024   4.783   2.791   8.948
 2594WAT     H2 8025   4.649   2.733   9.022
 2595WAT      O 8026   2.990   1.038   5.099
 2595WAT     H1 8027   3.045   0.981   5.037
 2595WAT     H2 8028   2.898   1.000   5.106
 2596WAT      O 8029   9.386   2.146   5.435
 2596WAT     H1 8030   9.365   2.086   5.512
 2596WAT     H2 8031   9.378   2.241   5.464
 2597WAT      O 8032   1.533   6.086   6.098
 2597WAT     H1 8033   1.584   6.003   6.120
 2597WAT     H2 8034   1.561   6.161   6.158
 2598WAT      O 8035   8.328   3.630   3.173
 2598WAT     H1 8036   8.228   3.624   3.178
 2598WAT     H2 8037   8.355   3.725   3.156
 2599WAT      O 8038   9.311   9.321   0.090
 2599WAT     H1 8039   9.223   9.368   0.084
 2599WAT     H2 8040   9.296   9.224   0.106
 2600WAT      O 8041   3.159   3.114   3.838
 2600WAT     H1 8042   3.228   3.112   3.910
 2600WAT     H2 8043   3.195   3.068   3.757
 2601WAT      O 8044   0.673   3.591   5.413
 2601WAT     H1 8045   0.683   3.522   5.485
 2601WAT     H2 8046   0.582   3.584   5.372
 2602WAT      O 8047   4.482   6.583   7.043
 2602WAT     H1 8048   4.391   6.572   7.002
 2602WAT     H2 8049   4.500   6.505   7.103
 2603WAT      O 8050   2.366   2.967   4.914
 2603WAT     H1 8051   2.388   2.876   4.880
 2603WAT     H2 8052   2.448   3.009   4.952
 2604WAT      O 8053   8.649   8.256   0.859
 2604WAT     H1 8054   8.718   8.279   0.928
 2604WAT     H2 8055   8.558   8.260   0.901
 2605WAT      O 8056   9.641   8.447   6.848
 2605WAT     H1 8057   9.707   8.408   6.911
 2605WAT     H2 8058   9.552   8.454   6.893
 2606WAT      O 8059   5.422   0.654   8.914
 2606WAT     H1 8060   5.490   0.616   8.976
 2606WAT     H2 8061   5.447   0.631   8.820
 2607WAT      O 8062   0.698   4.021   6.565
 2607WAT     H1 8063   0.636   4.002   6.488
 2607WAT     H2 8064   0.714   3.936   6.616
 2608WAT      O 8065   1.232   7.661   9.196
 2608WAT     H1 8066   1.230   7.689   9.292
 2608WAT     H2 8067   1.327   7.654   9.165
 2609WAT      O 8068   2.712   6.474   7.299
 2609WAT     H1 8069   2.656   6.557   7.292
 2609WAT     H2 8070   2.773   6.482   7.378
 2610WAT      O 8071   0.620   2.674   7.840
 2610WAT     H1 8072   0.716   2.656   7.821
 2610WAT     H2 8073   0.563   2.613   7.785
 2611WAT      O 8074   1.247   8.494   5.588
 2611WAT     H1 8075   1.152   8.463   5.578
 2611WAT     H2 8076   1.309   8.424   5.553
 2612WAT      O 8077   7.654   3.825   1.458
 2612WAT     H1 8078   7.647   3.866   1.367
 2612WAT     H2 8079   7.566   3.834   1.505
 2613WAT      O 8080   1.318   5.450   3.244
 2613WAT     H1 8081   1.367   5.363   3.233
 2613WAT     H2 8082   1.302   5.491   3.155
 2614WAT      O 8083   5.535   0.257   6.134
 2614WAT     H1 8084   5.554   0.352   6.156
 2614WAT     H2 8085   5.452   0.227   6.181
 2615WAT      O 8086   4.119   8.226   2.580
 2615WAT     H1 8087   4.048   8.216   2.650
 2615WAT     H2 8088   4.080   8.205   2.490
 2616WAT      O 8089   5.586   9.147   3.170
 2616WAT     H1 8090   5.494   9.110   3.184
 2616WAT     H2 8091   5.626   9.172   3.258
 2617WAT      O 8092   7.605   2.687   1.491
 2617WAT     H1 8093   7.579   2.684   1.587
 2617WAT     H2 8094   7.701   2.658   1.481
 2618WAT      O 8095   6.275   9.284   2.292
 2618WAT     H1 8096   6.210   9.292   2.216
 2618WAT     H2 8097   6.368   9.304   2.260
 2619WAT      O 8098   2.009   4.652   4.329
 2619WAT     H1 8099   2.006   4.575   4.392
 2619WAT     H2 8100   1.938   4.641   4.259
 2620WAT      O 8101   9.624   8.949   4.974
 2620WAT     H1 8102   9.621   8.862   4.925
 2620WAT     H2 8103   9.543   9.003   4.951
 2621WAT      O 8104   1.227   4.166   9.335
 2621WAT     H1 8105   1.316   4.159   9.291
 2621WAT     H2 8106   1.211   4.087   9.394
 2622WAT      O 8107   2.632   4.222   3.882
 2622WAT     H1 8108   2.593   4.286   3.949
 2622WAT     H2 8109   2.647   4.269   3.795
 2623WAT      O 8110   9.440   1.558   4.463
 2623WAT     H1 8111   9.530   1.555   4.419
 2623WAT     H2 8112   9.449   1.531   4.559
 2624WAT      O 8113   2.077   7.895   5.974
 2624WAT     H1 8114   2.043   7.877   5.881
 2624WAT     H2 8115   2.089   7.994   5.986
 2625WAT      O 8116   1.023   8.914   0.468
 2625WAT     H1 8117   1.043   8.924   0.371
 2625WAT     H2 8118   1.078   8.978   0.521
 2626WAT      O 8119   0.533   2.794   9.589
 2626WAT     H1 8120   0.578   2.883   9.586
 2626WAT     H2 8121   0.459   2.797   9.656
 2627WAT      O 8122   0.765   6.048   4.893
 2627WAT     H1 8123   0.737   6.143   4.903
 2627WAT     H2 8124   0.802   6.015   4.980
 2628WAT      O 8125   2.488   6.548   1.915
 2628WAT     H1 8126   2.558   6.487   1.953
 2628WAT     H2 8127   2.455   6.510   1.828
 2629WAT      O 8128   6.842   4.289   4.177
 2629WAT     H1 8129   6.805   4.340   4.100
 2629WAT     H2 8130   6.892   4.209   4.143
 2630WAT      O 8131   1.984   0.485   8.804
 2630WAT     H1 8132   1.925   0.447   8.733
 2630WAT     H2 8133   1.933   0.552   8.857
 2631WAT      O 8134   5.124   5.793   2.352
 2631WAT     H1 8135   5.081   5.828   2.435
 2631WAT     H2 8136   5.216   5.831   2.343
 2632WAT      O 8137   7.243   4.958   9.850
 2632WAT     H1 8138   7.215   4.879   9.906
 2632WAT     H2 8139   7.162   5.010   9.824
 2633WAT      O 8140   4.701   1.654   8.976
 2633WAT     H1 8141   4.793   1.680   9.006
 2633WAT     H2 8142   4.701   1.641   8.877
 2634WAT      O 8143   5.286   6.249   3.370
 2634WAT     H1 8144   5.206   6.216   3.321
 2634WAT     H2 8145   5.290   6.205   3.460
 2635WAT      O 8146   5.240   7.535   4.146
 2635WAT     H1 8147   5.317   7.598   4.137
 2635WAT     H2 8148   5.185   7.562   4.225
 2636WAT      O 8149   8.469   6.218   5.124
 2636WAT     H1 8150   8.541   6.178   5.180
 2636WAT     H2 8151   8.457   6.314   5.149
 2637WAT      O 8152   4.759   0.573   3.141
 2637WAT     H1 8153   4.676   0.620   3.169
 2637WAT     H2 8154   4.822   0.566   3.218
 2638WAT      O 8155   2.318   5.254   6.825
 2638WAT     H1 8156   2.337   5.250   6.727
 2638WAT     H2 8157   2.304   5.350   6.852
 2639WAT      O 8158   8.305   3.274   8.126
 2639WAT     H1 8159   8.324   3.178   8.104
 2639WAT     H2 8160   8.343   3.333   8.055
 2640WAT      O 8161   6.703   1.056   8.741
 2640WAT     H1 8162   6.639   0.984   8.768
 2640WAT     H2 8163   6.755   1.086   8.821
 2641WAT      O 8164   7.061   3.842   9.309
 2641WAT     H1 8165   7.153   3.830   9.272
 2641WAT     H2 8166   7.064   3.838   9.409
 2642WAT      O 8167   4.075   0.075   9.844
 2642WAT     H1 8168   4.081   0.172   9.869
 2642WAT     H2 8169   4.118   0.061   9.755
 2643WAT      O 8170   9.697   2.970   7.062
 2643WAT     H1 8171   9.680   2.879   7.025
 2643WAT     H2 8172   9.770   3.014   7.009
 2644WAT      O 8173   2.115   6.067   8.203
 2644WAT     H1 8174   2.131   6.090   8.107
 2644WAT     H2 8175   2.031   6.110   8.234
 2645WAT      O 8176   6.030   7.223   8.716
 2645WAT     H1 8177   6.116   7.250   8.759
 2645WAT     H2 8178   5.953   7.257   8.770
 2646WAT      O 8179   9.359   8.194   6.782
 2646WAT     H1 8180   9.406   8.259   6.841
 2646WAT     H2 8181   9.403   8.192   6.693
 2647WAT      O 8182   1.679   9.227   2.509
 2647WAT     H1 8183   1.773   9.210   2.536
 2647WAT     H2 8184   1.653   9.166   2.434
 2648WAT      O 8185   4.619   8.390   5.365
 2648WAT     H1 8186   4.709   8.423   5.396
 2648WAT     H2 8187   4.591   8.313   5.422
 2649WAT      O 8188   3.123   6.171   7.955
 2649WAT     H1 8189   3.210   6.177   7.907
 2649WAT     H2 8190   3.136   6.128   8.044
 2650WAT      O 8191   4.064   9.843   7.113
 2650WAT     H1 8192   4.113   9.774   7.060
 2650WAT     H2 8193   4.127   9.885   7.179
 2651WAT      O 8194   4.380   9.641   5.018
 2651WAT     H1 8195   4.388   9.626   4.920
 2651WAT     H2 8196   4.343   9.732   5.035
 2652WAT      O 8197   9.466   8.885   9.776
 2652WAT     H1 8198   9.419   8.969   9.752
 2652WAT     H2 8199   9.450   8.863   9.872
 2653WAT      O 8200   3.486   3.655   5.062
 2653WAT     H1 8201   3.505   3.670   4.964
 2653WAT     H2 8202   3.413   3.587   5.071
 2654WAT      O 8203   5.206   9.811   4.957
 2654WAT     H1 8204   5.248   9.746   4.894
 2654WAT     H2 8205   5.235   9.790   5.051
 2655WAT      O 8206   3.444   9.592   4.099
 2655WAT     H1 8207   3.368   9.629   4.153
 2655WAT     H2 8208   3.498   9.668   4.062
 2656WAT      O 8209   7.877   8.912   8.726
 2656WAT     H1 8210   7.955   8.871   8.774
 2656WAT     H2 8211   7.799   8.850   8.732
 2657WAT      O 8212   7.877   8.632   3.705
 2657WAT     H1 8213   7.789   8.590   3.728
 2657WAT     H2 8214   7.940   8.562   3.671
 2658WAT      O 8215   8.070   2.841   8.665
 2658WAT     H1 8216   8.025   2.759   8.701
 2658WAT     H2 8217   8.001   2.905   8.632
 2659WAT      O 8218   6.609   1.894   4.830
 2659WAT     H1 8219   6.550   1.918   4.753
 2659WAT     H2 8220   6.666   1.972   4.855
 2660WAT      O 8221   1.360   2.686   2.841
 2660WAT     H1 8222   1.457   2.665   2.857
 2660WAT     H2 8223   1.315   2.608   2.798
 2661WAT      O 8224   0.560   1.828   9.129
 2661WAT     H1 8225   0.473   1.851   9.085
 2661WAT     H2 8226   0.551   1.741   9.178
 2662WAT      O 8227   9.868   6.855   0.757
 2662WAT     H1 8228   9.781   6.905   0.751
 2662WAT     H2 8229   9.943   6.918   0.739
 2663WAT      O 8230   4.044   5.458   2.157
 2663WAT     H1 8231   4.036   5.478   2.059
 2663WAT     H2 8232   4.048   5.544   2.208
 2664WAT      O 8233   7.132   4.085   2.588
 2664WAT     H1 8234   7.220   4.053   2.553
 2664WAT     H2 8235   7.063   4.077   2.516
 2665WAT      O 8236   5.943   6.131   7.060
 2665WAT     H1 8237   5.897   6.144   7.148
 2665WAT     H2 8238   5.921   6.208   7.000
 2666WAT      O 8239   7.491   3.759   6.034
 2666WAT     H1 8240   7.534   3.727   6.118
 2666WAT     H2 8241   7.411   3.703   6.014
 2667WAT      O 8242   9.360   0.131   7.370
 2667WAT     H1 8243   9.347   0.035   7.348
 2667WAT     H2 8244   9.388   0.181   7.288
 2668WAT      O 8245   9.059   8.272   8.224
 2668WAT     H1 8246   9.124   8.201   8.196
 2668WAT     H2 8247   9.021   8.316   8.143
 2669WAT      O 8248   8.826   6.395   9.620
 2669WAT     H1 8249   8.878   6.455   9.558
 2669WAT     H2 8250   8.731   6.391   9.589
 2670WAT      O 8251   5.959   3.126   4.466
 2670WAT     H1 8252   6.025   3.071   4.413
 2670WAT     H2 8253   6.003   3.159   4.549
 2671WAT      O 8254   2.345   1.963   3.078
 2671WAT     H1 8255   2.294   2.027   3.020
 2671WAT     H2 8256   2.283   1.922   3.144
 2672WAT      O 8257   0.678   6.155   7.692
 2672WAT     H1 8258   0.699   6.210   7.611
 2672WAT     H2 8259   0.598   6.194   7.739
 2673WAT      O 8260   7.074   3.385   4.618
 2673WAT     H1 8261   7.011   3.350   4.687
 2673WAT     H2 8262   7.062   3.332   4.533
 2674WAT      O 8263   1.421   8.158   9.079
 2674WAT     H1 8264   1.502   8.214   9.059
 2674WAT     H2 8265   1.449   8.071   9.119
 2675WAT      O 8266   1.803   1.604   1.263
 2675WAT     H1 8267   1.807   1.683   1.202
 2675WAT     H2 8268   1.832   1.522   1.213
 2676WAT      O 8269   4.108   4.256   8.926
 2676WAT     H1 8270   4.023   4.217   8.962
 2676WAT     H2 8271   4.110   4.243   8.826
 2677WAT      O 8272   9.566   1.082   9.000
 2677WAT     H1 8273   9.518   1.038   9.076
 2677WAT     H2 8274   9.646   1.131   9.035
 2678WAT      O 8275   1.025   6.545   6.410
 2678WAT     H1 8276   1.062   6.469   6.463
 2678WAT     H2 8277   0.938   6.517   6.369
 2679WAT      O 8278   6.914   8.202   4.600
 2679WAT     H1 8279   7.000   8.179   4.555
 2679WAT     H2 8280   6.851   8.241   4.532
 2680WAT      O 8281   2.073   6.664   0.681
 2680WAT     H1 8282   2.115   6.719   0.754
 2680WAT     H2 8283   2.000   6.607   0.720
 2681WAT      O 8284   5.077   2.163   7.269
 2681WAT     H1 8285   5.044   2.205   7.354
 2681WAT     H2 8286   5.006   2.102   7.234
 2682WAT      O 8287   2.364   2.259   8.208
 2682WAT     H1 8288   2.305   2.323   8.158
 2682WAT     H2 8289   2.379   2.177   8.154
 2683WAT      O 8290   3.132   6.306   7.324
 2683WAT     H1 8291   3.162   6.322   7.418
 2683WAT     H2 8292   3.140   6.209   7.302
 2684WAT      O 8293   3.973   2.327   1.012
 2684WAT     H1 8294   4.026   2.292   1.089
 2684WAT     H2 8295   4.001   2.421   0.992
 2685WAT      O 8296   9.267   1.750   3.229
 2685WAT     H1 8297   9.218   1.824   3.183
 2685WAT     H2 8298   9.255   1.758   3.328
 2686WAT      O 8299   2.709   5.754   2.011
 2686WAT     H1 8300   2.658   5.670   2.031
 2686WAT     H2 8301   2.646   5.832   2.009
 2687WAT      O 8302   2.262   3.797   3.816
 2687WAT     H1 8303   2.225   3.840   3.899
 2687WAT     H2 8304   2.191   3.739   3.775
 2688WAT      O 8305   7.934   5.429   8.841
 2688WAT     H1 8306   8.027   5.402   8.866
 2688WAT     H2 8307   7.935   5.517   8.793
 2689WAT      O 8308   7.709   3.755   1.980
 2689WAT     H1 8309   7.688   3.661   2.009
 2689WAT     H2 8310   7.626   3.811   1.988
 2690WAT      O 8311   5.923   7.505   3.611
 2690WAT     H1 8312   5.902   7.585   3.667
 2690WAT     H2 8313   5.908   7.528   3.514
 2691WAT      O 8314   9.306   8.422   5.204
 2691WAT     H1 8315   9.214   8.443   5.172
 2691WAT     H2 8316   9.331   8.330   5.175
 2692WAT      O 8317   5.014   8.995   1.328
 2692WAT     H1 8318   4.958   8.917   1.357
 2692WAT     H2 8319   4.984   9.077   1.376
 2693WAT      O 8320   3.565   5.827   1.856
 2693WAT     H1 8321   3.613   5.835   1.769
 2693WAT     H2 8322   3.492   5.895   1.860
 2694WAT      O 8323   9.410   2.056   9.208
 2694WAT     H1 8324   9.434   2.143   9.250
 2694WAT     H2 8325   9.486   2.025   9.150
 2695WAT      O 8326   9.300   3.130   2.838
 2695WAT     H1 8327   9.387   3.134   2.887
 2695WAT     H2 8328   9.278   3.034   2.817
 2696WAT      O 8329   1.267   9.230   3.016
 2696WAT     H1 8330   1.169   9.212   3.013
 2696WAT     H2 8331   1.310   9.168   3.082
 2697WAT      O 8332   7.710   3.679   0.757
 2697WAT     H1 8333   7.800   3.648   0.725
 2697WAT     H2 8334   7.718   3.714   0.850
 2698WAT      O 8335   1.898   4.227   9.093
 2698WAT     H1 8336   1.913   4.280   9.176
 2698WAT     H2 8337   1.834   4.275   9.034
 2699WAT      O 8338   0.623   1.117   1.208
 2699WAT     H1 8339   0.573   1.038   1.171
 2699WAT     H2 8340   0.639   1.183   1.134
 2700WAT      O 8341   5.293   4.459   6.155
 2700WAT     H1 8342   5.392   4.447   6.157
 2700WAT     H2 8343   5.259   4.470   6.249
 2701WAT      O 8344   1.111   7.808   2.397
 2701WAT     H1 8345   1.047   7.849   2.462
 2701WAT     H2 8346   1.205   7.823   2.428
 2702WAT      O 8347   1.891   0.399   5.067
 2702WAT     H1 8348   1.928   0.421   5.157
 2702WAT     H2 8349   1.821   0.466   5.042
 2703WAT      O 8350   9.160   8.348   6.409
 2703WAT     H1 8351   9.134   8.313   6.499
 2703WAT     H2 8352   9.178   8.271   6.347
 2704WAT      O 8353   7.241   7.062   6.927
 2704WAT     H1 8354   7.341   7.061   6.930
 2704WAT     H2 8355   7.209   7.150   6.892
 2705WAT      O 8356   0.414   3.416   3.456
 2705WAT     H1 8357   0.413   3.374   3.547
 2705WAT     H2 8358   0.481   3.369   3.398
 2706WAT      O 8359   3.425   0.732   3.654
 2706WAT     H1 8360   3.414   0.633   3.665
 2706WAT     H2 8361   3.432   0.775   3.743
 2707WAT      O 8362   9.221   6.013   0.210
 2707WAT     H1 8363   9.216   5.922   0.251
 2707WAT     H2 8364   9.134   6.034   0.166
 2708WAT      O 8365   9.035   9.115   6.821
 2708WAT     H1 8366   9.086   9.035   6.790
 2708WAT     H2 8367   8.978   9.090   6.899
 2709WAT      O 8368   8.180   2.691   1.206
 2709WAT     H1 8369   8.151   2.617   1.266
 2709WAT     H2 8370   8.100   2.730   1.160
 2710WAT      O 8371   6.230   3.483   1.456
 2710WAT     H1 8372   6.248   3.531   1.542
 2710WAT     H2 8373   6.159   3.414   1.471
 2711WAT      O 8374   7.158   9.849   1.132
 2711WAT     H1 8375   7.183   9.769   1.188
 2711WAT     H2 8376   7.065   9.838   1.098
 2712WAT      O 8377   2.690   6.806   7.979
 2712WAT     H1 8378   2.710   6.716   8.017
 2712WAT     H2 8379   2.657   6.866   8.052
 2713WAT      O 8380   3.745   1.830   8.624
 2713WAT     H1 8381   3.807   1.891   8.574
 2713WAT     H2 8382   3.783   1.812   8.715
 2714WAT      O 8383   6.238   2.561   4.291
 2714WAT     H1 8384   6.314   2.515   4.246
 2714WAT     H2 8385   6.160   2.567   4.228
 2715WAT      O 8386   5.184   5.679   7.018
 2715WAT     H1 8387   5.255   5.750   7.008
 2715WAT     H2 8388   5.217   5.593   6.978
 2716WAT      O 8389   0.845   1.686   0.547
 2716WAT     H1 8390   0.858   1.670   0.644
 2716WAT     H2 8391   0.798   1.608   0.506
 2717WAT      O 8392   6.221   9.065   6.558
 2717WAT     H1 8393   6.261   8.974   6.553
 2717WAT     H2 8394   6.158   9.078   6.482
 2718WAT      O 8395   1.314   0.121   7.991
 2718WAT     H1 8396   1.271   0.169   8.067
 2718WAT     H2 8397   1.399   0.077   8.022
 2719WAT      O 8398   3.776   5.886   1.350
 2719WAT     H1 8399   3.818   5.976   1.344
 2719WAT     H2 8400   3.824   5.823   1.289
 2720WAT      O 8401   2.235   7.421   1.557
 2720WAT     H1 8402   2.246   7.476   1.474
 2720WAT     H2 8403   2.292   7.339   1.550
 2721WAT      O 8404   5.268   8.879   1.905
 2721WAT     H1 8405   5.279   8.871   2.004
 2721WAT     H2 8406   5.340   8.825   1.859
 2722WAT      O 8407   5.269   5.285   6.620
 2722WAT     H1 8408   5.255   5.192   6.588
 2722WAT     H2 8409   5.293   5.283   6.717
 2723WAT      O 8410   6.473   3.077   6.843
 2723WAT     H1 8411   6.448   3.015   6.917
 2723WAT     H2 8412   6.558   3.046   6.801
 2724WAT      O 8413   5.195   1.147   0.748
 2724WAT     H1 8414   5.132   1.070   0.760
 2724WAT     H2 8415   5.143   1.232   0.743
 2725WAT      O 8416   4.682   8.462   2.649
 2725WAT     H1 8417   4.618   8.400   2.695
 2725WAT     H2 8418   4.679   8.446   2.550
 2726WAT      O 8419   8.711   4.626   3.510
 2726WAT     H1 8420   8.714   4.539   3.462
 2726WAT     H2 8421   8.627   4.632   3.564
 2727WAT      O 8422   7.872   9.702   4.326
 2727WAT     H1 8423   7.894   9.645   4.405
 2727WAT     H2 8424   7.822   9.784   4.356
 2728WAT      O 8425   3.901   7.100   5.395
 2728WAT     H1 8426   3.970   7.030   5.412
 2728WAT     H2 8427   3.889   7.156   5.477
 2729WAT      O 8428   3.832   6.816   5.700
 2729WAT     H1 8429   3.820   6.732   5.753
 2729WAT     H2 8430   3.745   6.842   5.659
 2730WAT      O 8431   9.254   9.446   3.854
 2730WAT     H1 8432   9.248   9.365   3.795
 2730WAT     H2 8433   9.284   9.524   3.800
 2731WAT      O 8434   7.869   8.992   3.443
 2731WAT     H1 8435   7.843   8.896   3.430
 2731WAT     H2 8436   7.787   9.047   3.454
 2732WAT      O 8437   2.253   4.127   1.195
 2732WAT     H1 8438   2.247   4.141   1.294
 2732WAT     H2 8439   2.349   4.116   1.169
 2733WAT      O 8440   3.374   2.939   5.963
 2733WAT     H1 8441   3.467   2.975   5.970
 2733WAT     H2 8442   3.329   2.944   6.052
 2734WAT      O 8443   6.567   9.164   6.204
 2734WAT     H1 8444   6.616   9.216   6.274
 2734WAT     H2 8445   6.575   9.066   6.224
 2735WAT      O 8446   8.045   7.206   4.279
 2735WAT     H1 8447   7.946   7.193   4.289
 2735WAT     H2 8448   8.063   7.267   4.202
 2736WAT      O 8449   9.526   8.635   8.746
 2736WAT     H1 8450   9.613   8.628   8.697
 2736WAT     H2 8451   9.540   8.684   8.832
 2737WAT      O 8452   4.387   0.689   7.514
 2737WAT     H1 8453   4.346   0.601   7.492
 2737WAT     H2 8454   4.479   0.675   7.552
 2738WAT      O 8455   2.337   7.514   7.238
 2738WAT     H1 8456   2.263   7.500   7.303
 2738WAT     H2 8457   2.300   7.544   7.150
 2739WAT      O 8458   1.343   7.544  -0.001
 2739WAT     H1 8459   1.262   7.602  -0.005
 2739WAT     H2 8460   1.419   7.597   0.037
 2740WAT      O 8461   9.840   4.782   4.034
 2740WAT     H1 8462   9.926   4.816   3.995
 2740WAT     H2 8463   9.780   4.751   3.960
 2741WAT      O 8464   6.640   5.338   0.301
 2741WAT     H1 8465   6.657   5.407   0.370
 2741WAT     H2 8466   6.722   5.326   0.245
 2742WAT      O 8467   9.212   0.291   4.482
 2742WAT     H1 8468   9.113   0.302   4.497
 2742WAT     H2 8469   9.227   0.245   4.394
 2743WAT      O 8470   1.998   7.389   7.218
 2743WAT     H1 8471   1.974   7.308   7.272
 2743WAT     H2 8472   2.037   7.361   7.131
 2744WAT      O 8473   7.675   8.299   4.195
 2744WAT     H1 8474   7.689   8.265   4.288
 2744WAT     H2 8475   7.694   8.227   4.129
 2745WAT      O 8476   1.103   2.653   0.934
 2745WAT     H1 8477   1.086   2.630   1.030
 2745WAT     H2 8478   1.030   2.713   0.901
 2746WAT      O 8479   3.161   1.927   5.380
 2746WAT     H1 8480   3.174   1.953   5.476
 2746WAT     H2 8481   3.103   1.994   5.335
 2747WAT      O 8482   1.935   2.454   8.193
 2747WAT     H1 8483   2.029   2.439   8.163
 2747WAT     H2 8484   1.901   2.373   8.240
 2748WAT      O 8485   4.270   3.368   7.637
 2748WAT     H1 8486   4.348   3.306   7.637
 2748WAT     H2 8487   4.249   3.396   7.543
 2749WAT      O 8488   2.816   7.842   8.321
 2749WAT     H1 8489   2.743   7.775   8.331
 2749WAT     H2 8490   2.798   7.920   8.381
 2750WAT      O 8491   7.811   9.493   4.576
 2750WAT     H1 8492   7.757   9.440   4.510
 2750WAT     H2 8493   7.865   9.431   4.633
 2751WAT      O 8494   6.583   1.300   5.632
 2751WAT     H1 8495   6.629   1.267   5.550
 2751WAT     H2 8496   6.647   1.297   5.710
 2752WAT      O 8497   3.764   4.379   2.772
 2752WAT     H1 8498   3.741   4.464   2.820
 2752WAT     H2 8499   3.822   4.401   2.693
 2753WAT      O 8500   4.428   8.210   0.577
 2753WAT     H1 8501   4.365   8.288   0.582
 2753WAT     H2 8502   4.466   8.193   0.668
 2754WAT      O 8503   8.526   7.354   0.172
 2754WAT     H1 8504   8.594   7.281   0.163
 2754WAT     H2 8505   8.438   7.315   0.196
 2755WAT      O 8506   6.922   4.333   8.576
 2755WAT     H1 8507   6.966   4.250   8.611
 2755WAT     H2 8508   6.827   4.335   8.607
 2756WAT      O 8509   8.035   3.573   4.316
 2756WAT     H1 8510   8.133   3.591   4.311
 2756WAT     H2 8511   8.000   3.553   4.225
 2757WAT      O 8512   7.895   2.818   2.665
 2757WAT     H1 8513   7.818   2.866   2.708
 2757WAT     H2 8514   7.937   2.877   2.597
 2758WAT      O 8515   1.990   0.201   4.908
 2758WAT     H1 8516   1.954   0.266   4.975
 2758WAT     H2 8517   1.914   0.165   4.852
 2759WAT      O 8518   8.858   5.461   3.081
 2759WAT     H1 8519   8.954   5.490   3.075
 2759WAT     H2 8520   8.841   5.390   3.013
 2760WAT      O 8521   7.898   8.714   1.301
 2760WAT     H1 8522   7.993   8.734   1.320
 2760WAT     H2 8523   7.851   8.797   1.270
 2761WAT      O 8524   4.625   0.141   9.359
 2761WAT     H1 8525   4.635   0.195   9.276
 2761WAT     H2 8526   4.706   0.151   9.416
 2762WAT      O 8527   6.139   0.476   2.167
 2762WAT     H1 8528   6.098   0.466   2.258
 2762WAT     H2 8529   6.181   0.567   2.160
 2763WAT      O 8530   9.011   8.443   5.125
 2763WAT     H1 8531   8.946   8.462   5.198
 2763WAT     H2 8532   8.966   8.389   5.053
 2764WAT      O 8533   9.138   8.603   1.912
 2764WAT     H1 8534   9.159   8.697   1.884
 2764WAT     H2 8535   9.196   8.539   1.860
 2765WAT      O 8536   6.558   0.160   2.968
 2765WAT     H1 8537   6.607   0.178   2.883
 2765WAT     H2 8538   6.572   0.065   2.996
 2766WAT      O 8539   8.726   9.824   6.534
 2766WAT     H1 8540   8.781   9.858   6.459
 2766WAT     H2 8541   8.699   9.729   6.516
 2767WAT      O 8542   2.114   6.088   8.540
 2767WAT     H1 8543   2.201   6.075   8.588
 2767WAT     H2 8544   2.076   6.000   8.514
 2768WAT      O 8545   2.983   0.656   8.463
 2768WAT     H1 8546   3.080   0.646   8.482
 2768WAT     H2 8547   2.968   0.658   8.364
 2769WAT      O 8548   3.947   7.951   5.296
 2769WAT     H1 8549   3.899   8.031   5.332
 2769WAT     H2 8550   3.889   7.905   5.229
 2770WAT      O 8551   9.637   6.841   2.098
 2770WAT     H1 8552   9.698   6.789   2.157
 2770WAT     H2 8553   9.542   6.813   2.114
 2771WAT      O 8554   4.439   7.863   7.406
 2771WAT     H1 8555   4.450   7.949   7.355
 2771WAT     H2 8556   4.528   7.833   7.441
 2772WAT      O 8557   3.225   7.727   0.399
 2772WAT     H1 8558   3.260   7.794   0.465
 2772WAT     H2 8559   3.271   7.740   0.311
 2773WAT      O 8560   0.271   4.935   8.361
 2773WAT     H1 8561   0.245   4.867   8.429
 2773WAT     H2 8562   0.284   5.024   8.406
 2774WAT      O 8563   7.046   9.027   7.720
 2774WAT     H1 8564   7.041   9.063   7.814
 2774WAT     H2 8565   7.120   9.073   7.671
 2775WAT      O 8566   4.940   9.787   3.804
 2775WAT     H1 8567   4.903   9.744   3.886
 2775WAT     H2 8568   4.894   9.875   3.789
 2776WAT      O 8569   9.878   8.353   8.118
 2776WAT     H1 8570   9.916   8.389   8.032
 2776WAT     H2 8571   9.921   8.266   8.139
 2777WAT      O 8572   5.763   1.075   5.893
 2777WAT     H1 8573   5.822   1.135   5.948
 2777WAT     H2 8574   5.697   1.131   5.843
 2778WAT      O 8575   8.180   9.251   9.564
 2778WAT     H1 8576   8.269   9.263   9.607
 2778WAT     H2 8577   8.108   9.270   9.630
 2779WAT      O 8578   6.357   2.186   4.867
 2779WAT     H1 8579   6.388   2.134   4.946
 2779WAT     H2 8580   6.314   2.124   4.801
 2780WAT      O 8581   4.143   3.015   5.139
 2780WAT     H1 8582   4.160   3.010   5.237
 2780WAT     H2 8583   4.059   2.964   5.117
 2781WAT      O 8584   2.200   7.228   4.615
 2781WAT     H1 8585   2.260   7.308   4.606
 2781WAT     H2 8586   2.194   7.201   4.711
 2782WAT      O 8587   6.615   9.686   2.198
 2782WAT     H1 8588   6.566   9.620   2.141
 2782WAT     H2 8589   6.549   9.739   2.252
 2783WAT      O 8590   8.508   2.896   5.562
 2783WAT     H1 8591   8.462   2.984   5.552
 2783WAT     H2 8592   8.483   2.837   5.485
 2784WAT      O 8593   7.881   0.100   2.490
 2784WAT     H1 8594   7.784   0.107   2.466
 2784WAT     H2 8595   7.890   0.067   2.584
 2785WAT      O 8596   9.796   7.091   3.654
 2785WAT     H1 8597   9.848   7.100   3.569
 2785WAT     H2 8598   9.701   7.070   3.633
 2786WAT      O 8599   6.430   3.382   2.646
 2786WAT     H1 8600   6.378   3.451   2.595
 2786WAT     H2 8601   6.367   3.314   2.683
 2787WAT      O 8602   0.842   3.873   1.136
 2787WAT     H1 8603   0.804   3.907   1.050
 2787WAT     H2 8604   0.941   3.880   1.133
 2788WAT      O 8605   5.259   4.950   1.969
 2788WAT     H1 8606   5.280   4.854   1.988
 2788WAT     H2 8607   5.241   4.997   2.055
 2789WAT      O 8608   9.848   8.494   0.116
 2789WAT     H1 8609   9.795   8.409   0.114
 2789WAT     H2 8610   9.944   8.473   0.131
 2790WAT      O 8611   6.906   3.183   0.089
 2790WAT     H1 8612   6.842   3.121   0.134
 2790WAT     H2 8613   6.855   3.257   0.045
 2791WAT      O 8614   0.819   0.304   1.486
 2791WAT     H1 8615   0.773   0.226   1.530
 2791WAT     H2 8616   0.903   0.326   1.537
 2792WAT      O 8617   0.246   9.362   8.158
 2792WAT     H1 8618   0.148   9.342   8.148
 2792WAT     H2 8619   0.288   9.294   8.217
 2793WAT      O 8620   4.112   7.598   7.398
 2793WAT     H1 8621   4.144   7.504   7.411
 2793WAT     H2 8622   4.163   7.642   7.324
 2794WAT      O 8623   6.080   4.959   4.831
 2794WAT     H1 8624   6.142   4.909   4.891
 2794WAT     H2 8625   6.043   5.038   4.880
 2795WAT      O 8626   5.695   3.315   1.280
 2795WAT     H1 8627   5.606   3.347   1.250
 2795WAT     H2 8628   5.726   3.370   1.357
 2796WAT      O 8629   5.993   4.764   9.310
 2796WAT     H1 8630   5.933   4.811   9.374
 2796WAT     H2 8631   6.032   4.683   9.354
 2797WAT      O 8632   3.593   5.068   9.319
 2797WAT     H1 8633   3.640   5.138   9.373
 2797WAT     H2 8634   3.498   5.060   9.349
 2798WAT      O 8635   9.107   9.294   6.351
 2798WAT     H1 8636   9.145   9.219   6.296
 2798WAT     H2 8637   9.140   9.285   6.445
 2799WAT      O 8638   6.521   4.477   8.833
 2799WAT     H1 8639   6.573   4.559   8.814
 2799WAT     H2 8640   6.423   4.500   8.838
 2800WAT      O 8641   9.633   5.850   3.089
 2800WAT     H1 8642   9.574   5.912   3.140
 2800WAT     H2 8643   9.670   5.896   3.009
 2801WAT      O 8644   1.727   2.492   5.255
 2801WAT     H1 8645   1.667   2.435   5.311
 2801WAT     H2 8646   1.767   2.436   5.182
 2802WAT      O 8647   4.063   4.958   7.433
 2802WAT     H1 8648   3.985   4.959   7.371
 2802WAT     H2 8649   4.111   5.045   7.428
 2803WAT      O 8650   3.647   5.677   8.719
 2803WAT     H1 8651   3.668   5.579   8.729
 2803WAT     H2 8652   3.618   5.714   8.806
 2804WAT      O 8653   5.863   2.246   1.282
 2804WAT     H1 8654   5.934   2.272   1.217
 2804WAT     H2 8655   5.811   2.327   1.309
 2805WAT      O 8656   5.238   9.147   5.136
 2805WAT     H1 8657   5.153   9.096   5.138
 2805WAT     H2 8658   5.243   9.208   5.215
 2806WAT      O 8659   0.733   4.094   2.198
 2806WAT     H1 8660   0.783   4.180   2.207
 2806WAT     H2 8661   0.643   4.104   2.240
 2807WAT      O 8662   8.260   4.203   8.443
 2807WAT     H1 8663   8.238   4.293   8.479
 2807WAT     H2 8664   8.349   4.206   8.396
 2808WAT      O 8665   1.234   5.693   5.481
 2808WAT     H1 8666   1.287   5.697   5.565
 2808WAT     H2 8667   1.154   5.752   5.489
 2809WAT      O 8668   2.388   1.818   6.978
 2809WAT     H1 8669   2.351   1.910   6.991
 2809WAT     H2 8670   2.441   1.792   7.058
 2810WAT      O 8671   6.265   2.651   9.472
 2810WAT     H1 8672   6.257   2.751   9.475
 2810WAT     H2 8673   6.320   2.625   9.393
 2811WAT      O 8674   1.100   2.684   0.079
 2811WAT     H1 8675   1.117   2.670   0.176
 2811WAT     H2 8676   1.124   2.778   0.054
 2812WAT      O 8677   7.160   2.603   2.053
 2812WAT     H1 8678   7.209   2.690   2.051
 2812WAT     H2 8679   7.114   2.589   1.965
 2813WAT      O 8680   7.140   6.500   7.334
 2813WAT     H1 8681   7.184   6.466   7.416
 2813WAT     H2 8682   7.150   6.599   7.330
 2814WAT      O 8683   3.693   4.946   7.976
 2814WAT     H1 8684   3.763   4.905   7.918
 2814WAT     H2 8685   3.670   5.037   7.943
 2815WAT      O 8686   1.954   6.875   4.987
 2815WAT     H1 8687   2.039   6.836   4.952
 2815WAT     H2 8688   1.922   6.822   5.065
 2816WAT      O 8689   4.152   6.695   7.323
 2816WAT     H1 8690   4.125   6.615   7.269
 2816WAT     H2 8691   4.196   6.665   7.408
 2817WAT      O 8692   0.558   0.196   2.211
 2817WAT     H1 8693   0.643   0.245   2.190
 2817WAT     H2 8694   0.486   0.225   2.148
 2818WAT      O 8695   7.570   2.591   2.305
 2818WAT     H1 8696   7.525   2.506   2.331
 2818WAT     H2 8697   7.631   2.573   2.227
 2819WAT      O 8698   0.696   0.157   6.931
 2819WAT     H1 8699   0.617   0.195   6.979
 2819WAT     H2 8700   0.780   0.195   6.972
 2820WAT      O 8701   1.351   8.690   7.875
 2820WAT     H1 8702   1.292   8.614   7.847
 2820WAT     H2 8703   1.436   8.654   7.913
 2821WAT      O 8704   9.195   4.752   0.485
 2821WAT     H1 8705   9.152   4.678   0.435
 2821WAT     H2 8706   9.276   4.717   0.533
 2822WAT      O 8707   1.248   3.432   6.179
 2822WAT     H1 8708   1.218   3.366   6.111
 2822WAT     H2 8709   1.177   3.501   6.193
 2823WAT      O 8710   7.223   7.157   1.782
 2823WAT     H1 8711   7.265   7.246   1.800
 2823WAT     H2 8712   7.143   7.170   1.723
 2824WAT      O 8713   2.956   6.997   9.555
 2824WAT     H1 8714   2.994   7.081   9.517
 2824WAT     H2 8715   3.030   6.933   9.576
 2825WAT      O 8716   5.395   7.656   6.596
 2825WAT     H1 8717   5.350   7.745   6.609
 2825WAT     H2 8718   5.367   7.594   6.669
 2826WAT      O 8719   8.111   7.212   0.206
 2826WAT     H1 8720   8.075   7.251   0.121
 2826WAT     H2 8721   8.082   7.268   0.283
 2827WAT      O 8722   3.862   6.980   0.812
 2827WAT     H1 8723   3.819   6.916   0.877
 2827WAT     H2 8724   3.800   6.995   0.735
 2828WAT      O 8725   4.834   6.427   2.294
 2828WAT     H1 8726   4.771   6.353   2.273
 2828WAT     H2 8727   4.829   6.497   2.222
 2829WAT      O 8728   0.013   5.635   2.805
 2829WAT     H1 8729   0.054   5.606   2.891
 2829WAT     H2 8730   0.046   5.726   2.781
 2830WAT      O 8731   8.532   4.622   6.733
 2830WAT     H1 8732   8.501   4.716   6.722
 2830WAT     H2 8733   8.454   4.562   6.751
 2831WAT      O 8734   3.051   2.517   4.028
 2831WAT     H1 8735   3.112   2.592   4.004
 2831WAT     H2 8736   3.074   2.436   3.975
 2832WAT      O 8737   2.085   6.168   9.196
 2832WAT     H1 8738   2.152   6.215   9.254
 2832WAT     H2 8739   2.128   6.145   9.109
 2833WAT      O 8740   6.640   6.210   0.651
 2833WAT     H1 8741   6.566   6.225   0.587
 2833WAT     H2 8742   6.723   6.255   0.617
 2834WAT      O 8743   7.332   5.553   9.322
 2834WAT     H1 8744   7.302   5.615   9.395
 2834WAT     H2 8745   7.252   5.510   9.281
 2835WAT      O 8746   0.582   6.630   6.894
 2835WAT     H1 8747   0.563   6.532   6.894
 2835WAT     H2 8748   0.524   6.675   6.962
 2836WAT      O 8749   9.001   7.922   3.556
 2836WAT     H1 8750   9.045   7.914   3.645
 2836WAT     H2 8751   8.994   7.831   3.514
 2837WAT      O 8752   3.983   6.694   2.746
 2837WAT     H1 8753   3.888   6.662   2.740
 2837WAT     H2 8754   3.986   6.793   2.733
 2838WAT      O 8755   0.460   1.127   6.877
 2838WAT     H1 8756   0.485   1.203   6.817
 2838WAT     H2 8757   0.540   1.070   6.894
 2839WAT      O 8758   3.926   4.073   5.160
 2839WAT     H1 8759   3.908   3.979   5.189
 2839WAT     H2 8760   3.891   4.137   5.228
 2840WAT      O 8761   9.775   0.290   6.557
 2840WAT     H1 8762   9.819   0.359   6.500
 2840WAT     H2 8763   9.681   0.317   6.576
 2841WAT      O 8764   1.739   4.836   2.313
 2841WAT     H1 8765   1.833   4.840   2.349
 2841WAT     H2 8766   1.706   4.929   2.297
 2842WAT      O 8767   1.494   0.961   0.271
 2842WAT     H1 8768   1.409   0.952   0.322
 2842WAT     H2 8769   1.572   0.941   0.331
 2843WAT      O 8770   1.888   9.159   3.715
 2843WAT     H1 8771   1.955   9.187   3.648
 2843WAT     H2 8772   1.847   9.240   3.758
 2844WAT      O 8773   2.339   0.258   1.695
 2844WAT     H1 8774   2.431   0.288   1.720
 2844WAT     H2 8775   2.346   0.188   1.624
 2845WAT      O 8776   2.695   6.892   9.201
 2845WAT     H1 8777   2.673   6.955   9.126
 2845WAT     H2 8778   2.794   6.893   9.217
 2846WAT      O 8779   4.161   1.962   8.654
 2846WAT     H1 8780   4.149   1.864   8.666
 2846WAT     H2 8781   4.245   1.980   8.604
 2847WAT      O 8782   7.756   5.306   3.735
 2847WAT     H1 8783   7.831   5.320   3.799
 2847WAT     H2 8784   7.792   5.288   3.644
 2848WAT      O 8785   5.346   6.319   4.081
 2848WAT     H1 8786   5.417   6.276   4.137
 2848WAT     H2 8787   5.280   6.365   4.140
 2849WAT      O 8788   6.619   8.075   8.534
 2849WAT     H1 8789   6.599   8.030   8.447
 2849WAT     H2 8790   6.692   8.143   8.521
 2850WAT      O 8791   0.460   6.704   3.890
 2850WAT     H1 8792   0.437   6.626   3.832
 2850WAT     H2 8793   0.379   6.761   3.904
 2851WAT      O 8794   5.915   4.373   6.629
 2851WAT     H1 8795   5.935   4.465   6.597
 2851WAT     H2 8796   5.920   4.370   6.729
 2852WAT      O 8797   2.971   4.264   9.586
 2852WAT     H1 8798   3.043   4.206   9.625
 2852WAT     H2 8799   2.934   4.220   9.504
 2853WAT      O 8800   6.327   3.276   1.788
 2853WAT     H1 8801   6.246   3.319   1.827
 2853WAT     H2 8802   6.374   3.221   1.857
 2854WAT      O 8803   4.412   1.360   2.796
 2854WAT     H1 8804   4.337   1.316   2.846
 2854WAT     H2 8805   4.491   1.368   2.856
 2855WAT      O 8806   4.330   6.329   2.667
 2855WAT     H1 8807   4.316   6.230   2.676
 2855WAT     H2 8808   4.241   6.375   2.664
 2856WAT      O 8809   7.571   1.636   5.930
 2856WAT     H1 8810   7.532   1.698   5.862
 2856WAT     H2 8811   7.668   1.621   5.910
 2857WAT      O 8812   9.468   8.081   4.241
 2857WAT     H1 8813   9.402   8.010   4.216
 2857WAT     H2 8814   9.425   8.147   4.302
 2858WAT      O 8815   2.413   7.473   2.420
 2858WAT     H1 8816   2.338   7.408   2.434
 2858WAT     H2 8817   2.448   7.463   2.327
 2859WAT      O 8818   3.577   7.236   0.477
 2859WAT     H1 8819   3.600   7.284   0.393
 2859WAT     H2 8820   3.533   7.300   0.541
 2860WAT      O 8821   2.752   9.065   6.657
 2860WAT     H1 8822   2.683   9.000   6.625
 2860WAT     H2 8823   2.712   9.127   6.723
 2861WAT      O 8824   7.783   8.990   4.523
 2861WAT     H1 8825   7.738   8.984   4.612
 2861WAT     H2 8826   7.763   8.908   4.470
 2862WAT      O 8827   3.328   1.935   4.786
 2862WAT     H1 8828   3.301   1.847   4.827
 2862WAT     H2 8829   3.246   1.979   4.748
 2863WAT      O 8830   6.962   8.829   4.513
 2863WAT     H1 8831   6.871   8.868   4.499
 2863WAT     H2 8832   6.956   8.729   4.508
 2864WAT      O 8833   7.010   2.854   9.829
 2864WAT     H1 8834   7.070   2.784   9.790
 2864WAT     H2 8835   6.993   2.835   9.925
 2865WAT      O 8836   8.599   1.888   0.744
 2865WAT     H1 8837   8.663   1.916   0.815
 2865WAT     H2 8838   8.591   1.789   0.743
 2866WAT      O 8839   8.816   5.942   8.292
 2866WAT     H1 8840   8.782   6.027   8.332
 2866WAT     H2 8841   8.864   5.890   8.363
 2867WAT      O 8842   1.003   7.304   9.214
 2867WAT     H1 8843   1.060   7.223   9.228
 2867WAT     H2 8844   1.044   7.361   9.143
 2868WAT      O 8845   1.519   3.945   2.396
 2868WAT     H1 8846   1.599   3.906   2.440
 2868WAT     H2 8847   1.546   4.024   2.341
 2869WAT      O 8848   2.750   0.898   5.074
 2869WAT     H1 8849   2.738   0.853   4.985
 2869WAT     H2 8850   2.664   0.938   5.103
 2870WAT      O 8851   6.178   7.604   8.724
 2870WAT     H1 8852   6.116   7.553   8.784
 2870WAT     H2 8853   6.221   7.678   8.776
 2871WAT      O 8854   7.130   1.129   3.686
 2871WAT     H1 8855   7.143   1.055   3.751
 2871WAT     H2 8856   7.033   1.153   3.683
 2872WAT      O 8857   7.987   9.771   5.783
 2872WAT     H1 8858   7.976   9.863   5.746
 2872WAT     H2 8859   8.063   9.726   5.737
 2873WAT      O 8860   6.529   0.881   8.109
 2873WAT     H1 8861   6.565   0.970   8.137
 2873WAT     H2 8862   6.445   0.894   8.057
 2874WAT      O 8863   1.405   8.908   1.810
 2874WAT     H1 8864   1.493   8.881   1.848
 2874WAT     H2 8865   1.334   8.897   1.879
 2875WAT      O 8866   0.437   0.193   1.762
 2875WAT     H1 8867   0.491   0.113   1.790
 2875WAT     H2 8868   0.497   0.261   1.720
 2876WAT      O 8869   4.596   3.225   8.143
 2876WAT     H1 8870   4.673   3.216   8.080
 2876WAT     H2 8871   4.520   3.272   8.098
 2877WAT      O 8872   8.751   1.699   8.579
 2877WAT     H1 8873   8.679   1.647   8.625
 2877WAT     H2 8874   8.725   1.715   8.484
 2878WAT      O 8875   0.202   9.790   4.793
 2878WAT     H1 8876   0.135   9.832   4.733
 2878WAT     H2 8877   0.190   9.824   4.886
 2879WAT      O 8878   6.071   6.975   6.389
 2879WAT     H1 8879   6.011   7.054   6.387
 2879WAT     H2 8880   6.097   6.955   6.483
 2880WAT      O 8881   7.167   0.029   4.496
 2880WAT     H1 8882   7.240   0.050   4.431
 2880WAT     H2 8883   7.078   0.048   4.454
 2881WAT      O 8884   9.263   8.908   3.565
 2881WAT     H1 8885   9.245   8.817   3.604
 2881WAT     H2 8886   9.347   8.945   3.605
 2882WAT      O 8887   0.285   3.172   2.304
 2882WAT     H1 8888   0.267   3.135   2.395
 2882WAT     H2 8889   0.207   3.154   2.244
 2883WAT      O 8890   4.887   5.113   5.398
 2883WAT     H1 8891   4.801   5.121   5.347
 2883WAT     H2 8892   4.937   5.200   5.394
 2884WAT      O 8893   3.562   7.842   0.909
 2884WAT     H1 8894   3.643   7.898   0.892
 2884WAT     H2 8895   3.505   7.886   0.978
 2885WAT      O 8896   6.407   7.443   7.460
 2885WAT     H1 8897   6.437   7.433   7.366
 2885WAT     H2 8898   6.352   7.527   7.470
 2886WAT      O 8899   7.117   4.458   1.794
 2886WAT     H1 8900   7.182   4.438   1.868
 2886WAT     H2 8901   7.047   4.522   1.828
 2887WAT      O 8902   2.061   0.403   5.589
 2887WAT     H1 8903   2.081   0.307   5.608
 2887WAT     H2 8904   2.143   0.448   5.557
 2888WAT      O 8905   4.350   4.049   7.206
 2888WAT     H1 8906   4.298   4.133   7.194
 2888WAT     H2 8907   4.389   4.020   7.119
 2889WAT      O 8908   9.409   4.536   6.880
 2889WAT     H1 8909   9.422   4.535   6.979
 2889WAT     H2 8910   9.334   4.598   6.857
 2890WAT      O 8911   8.861   7.111   1.455
 2890WAT     H1 8912   8.927   7.185   1.442
 2890WAT     H2 8913   8.832   7.111   1.551
 2891WAT      O 8914   2.219   7.381   3.114
 2891WAT     H1 8915   2.306   7.408   3.155
 2891WAT     H2 8916   2.213   7.420   3.022
 2892WAT      O 8917   3.797   0.447   8.948
 2892WAT     H1 8918   3.829   0.506   8.874
 2892WAT     H2 8919   3.873   0.390   8.980
 2893WAT      O 8920   1.892   5.826   1.304
 2893WAT     H1 8921   1.910   5.887   1.227
 2893WAT     H2 8922   1.979   5.787   1.337
 2894WAT      O 8923   9.458   1.116   3.107
 2894WAT     H1 8924   9.369   1.133   3.148
 2894WAT     H2 8925   9.516   1.066   3.171
 2895WAT      O 8926   9.111   1.274   4.514
 2895WAT     H1 8927   9.072   1.207   4.451
 2895WAT     H2 8928   9.166   1.226   4.583
 2896WAT      O 8929   8.358   2.818   8.966
 2896WAT     H1 8930   8.324   2.852   8.878
 2896WAT     H2 8931   8.452   2.850   8.981
 2897WAT      O 8932   1.531   0.769   8.580
 2897WAT     H1 8933   1.629   0.761   8.567
 2897WAT     H2 8934   1.497   0.690   8.631
 2898WAT      O 8935   5.094   8.405   7.544
 2898WAT     H1 8936   5.184   8.414   7.587
 2898WAT     H2 8937   5.027   8.460   7.596
 2899WAT      O 8938   0.493   5.808   0.605
 2899WAT     H1 8939   0.394   5.804   0.588
 2899WAT     H2 8940   0.541   5.825   0.519
 2900WAT      O 8941   2.871   5.677   3.673
 2900WAT     H1 8942   2.895   5.751   3.610
 2900WAT     H2 8943   2.815   5.713   3.747
 2901WAT      O 8944   5.463   6.418   3.278
 2901WAT     H1 8945   5.448   6.440   3.182
 2901WAT     H2 8946   5.397   6.349   3.307
 2902WAT      O 8947   1.105   1.098   8.689
 2902WAT     H1 8948   1.086   1.182   8.637
 2902WAT     H2 8949   1.203   1.082   8.691
 2903WAT      O 8950   0.036   4.881   7.083
 2903WAT     H1 8951   0.133   4.895   7.063
 2903WAT     H2 8952  -0.006   4.827   7.010
 2904WAT      O 8953   9.592   7.894   6.541
 2904WAT     H1 8954   9.688   7.864   6.535
 2904WAT     H2 8955   9.543   7.865   6.459
 2905WAT      O 8956   5.701   6.577   0.603
 2905WAT     H1 8957   5.800   6.582   0.615
 2905WAT     H2 8958   5.680   6.522   0.522
 2906WAT      O 8959   8.070   9.628   3.047
 2906WAT     H1 8960   8.103   9.711   3.001
 2906WAT     H2 8961   8.108   9.624   3.140
 2907WAT      O 8962   9.029   1.041   3.311
 2907WAT     H1 8963   9.099   1.098   3.267
 2907WAT     H2 8964   9.016   0.958   3.257
 2908WAT      O 8965   2.603   5.065   0.877
 2908WAT     H1 8966   2.545   5.028   0.805
 2908WAT     H2 8967   2.699   5.052   0.853
 2909WAT      O 8968   5.864   8.308   0.670
 2909WAT     H1 8969   5.858   8.218   0.627
 2909WAT     H2 8970   5.957   8.322   0.704
 2910WAT      O 8971   7.602   2.361   6.464
 2910WAT     H1 8972   7.506   2.390   6.474
 2910WAT     H2 8973   7.654   2.434   6.420
 2911WAT      O 8974   2.426   0.603   1.246
 2911WAT     H1 8975   2.433   0.512   1.204
 2911WAT     H2 8976   2.489   0.665   1.200
 2912WAT      O 8977   1.523   1.401   4.419
 2912WAT     H1 8978   1.607   1.377   4.371
 2912WAT     H2 8979   1.514   1.501   4.423
 2913WAT      O 8980   2.999   0.868   7.984
 2913WAT     H1 8981   3.024   0.772   7.989
 2913WAT     H2 8982   2.918   0.879   7.927
 2914WAT      O 8983   0.075   1.717   3.745
 2914WAT     H1 8984   0.012   1.750   3.675
 2914WAT     H2 8985   0.164   1.762   3.735
 2915WAT      O 8986   3.619   7.514   2.813
 2915WAT     H1 8987   3.677   7.524   2.732
 2915WAT     H2 8988   3.631   7.423   2.852
 2916WAT      O 8989   8.020   8.144   0.480
 2916WAT     H1 8990   7.960   8.169   0.557
 2916WAT     H2 8991   8.101   8.096   0.515
 2917WAT      O 8992   5.031   3.948   4.037
 2917WAT     H1 8993   5.091   3.882   3.992
 2917WAT     H2 8994   5.063   3.963   4.131
 2918WAT      O 8995   7.081   8.577   4.215
 2918WAT     H1 8996   6.998   8.633   4.213
 2918WAT     H2 8997   7.157   8.630   4.176
 2919WAT      O 8998   5.931   8.364   7.212
 2919WAT     H1 8999   5.893   8.332   7.298
 2919WAT     H2 9000   5.890   8.453   7.188
 2920WAT      O 9001   6.448   4.894   4.515
 2920WAT     H1 9002   6.422   4.970   4.574
 2920WAT     H2 9003   6.377   4.878   4.446
 2921WAT      O 9004   1.744   7.286   7.579
 2921WAT     H1 9005   1.817   7.347   7.610
 2921WAT     H2 9006   1.782   7.195   7.561
 2922WAT      O 9007   4.952   6.290   8.994
 2922WAT     H1 9008   4.862   6.283   8.951
 2922WAT     H2 9009   5.022   6.256   8.930
 2923WAT      O 9010   3.126   7.645   3.649
 2923WAT     H1 9011   3.125   7.546   3.634
 2923WAT     H2 9012   3.171   7.664   3.737
 2924WAT      O 9013   8.764   5.404   3.590
 2924WAT     H1 9014   8.702   5.483   3.599
 2924WAT     H2 9015   8.742   5.336   3.659
 2925WAT      O 9016   2.783   9.666   6.833
 2925WAT     H1 9017   2.860   9.714   6.791
 2925WAT     H2 9018   2.786   9.569   6.808
 2926WAT      O 9019   6.988   4.027   1.182
 2926WAT     H1 9020   7.001   4.109   1.238
 2926WAT     H2 9021   6.983   3.946   1.241
 2927WAT      O 9022   9.584   3.899   9.658
 2927WAT     H1 9023   9.638   3.975   9.621
 2927WAT     H2 9024   9.526   3.861   9.586
 2928WAT      O 9025   7.971   2.589   5.506
 2928WAT     H1 9026   7.924   2.672   5.476
 2928WAT     H2 9027   7.917   2.544   5.577
 2929WAT      O 9028   9.342   4.751   3.748
 2929WAT     H1 9029   9.418   4.812   3.727
 2929WAT     H2 9030   9.263   4.804   3.780
 2930WAT      O 9031   7.922   0.045   2.744
 2930WAT     H1 9032   7.842   0.050   2.804
 2930WAT     H2 9033   7.933  -0.048   2.711
 2931WAT      O 9034   1.831   1.640   8.720
 2931WAT     H1 9035   1.809   1.633   8.817
 2931WAT     H2 9036   1.923   1.676   8.709
 2932WAT      O 9037   7.044   9.101   4.584
 2932WAT     H1 9038   7.112   9.118   4.513
 2932WAT     H2 9039   7.012   9.007   4.579
 2933WAT      O 9040   7.987   0.078   6.634
 2933WAT     H1 9041   8.062   0.060   6.569
 2933WAT     H2 9042   8.005   0.028   6.719
 2934WAT      O 9043   0.986   9.499   6.279
 2934WAT     H1 9044   0.889   9.478   6.268
 2934WAT     H2 9045   1.006   9.587   6.236
 2935WAT      O 9046   2.540   0.899   3.395
 2935WAT     H1 9047   2.635   0.884   3.426
 2935WAT     H2 9048   2.524   0.997   3.382
 2936WAT      O 9049   6.446   4.665   2.393
 2936WAT     H1 9050   6.405   4.726   2.325
 2936WAT     H2 9051   6.469   4.718   2.475
 2937WAT      O 9052   5.453   3.125   5.786
 2937WAT     H1 9053   5.431   3.221   5.766
 2937WAT     H2 9054   5.444   3.109   5.885
 2938WAT      O 9055   4.792   7.189   0.032
 2938WAT     H1 9056   4.852   7.153  -0.039
 2938WAT     H2 9057   4.772   7.285   0.014
 2939WAT      O 9058   1.237   9.426   4.442
 2939WAT     H1 9059   1.187   9.344   4.416
 2939WAT     H2 9060   1.273   9.471   4.360
 2940WAT      O 9061   7.301   9.565   9.770
 2940WAT     H1 9062   7.365   9.604   9.836
 2940WAT     H2 9063   7.311   9.465   9.768
 2941WAT      O 9064   4.867   0.356   8.964
 2941WAT     H1 9065   4.900   0.265   8.989
 2941WAT     H2 9066   4.853   0.360   8.865
 2942WAT      O 9067   5.254   8.844   9.749
 2942WAT     H1 9068   5.237   8.908   9.823
 2942WAT     H2 9069   5.171   8.834   9.693
 2943WAT      O 9070   6.102   2.787   4.689
 2943WAT     H1 9071   6.167   2.859   4.666
 2943WAT     H2 9072   6.119   2.707   4.630
 2944WAT      O 9073   6.130   6.994   2.732
 2944WAT     H1 9074   6.054   6.944   2.773
 2944WAT     H2 9075   6.191   6.930   2.686
 2945WAT      O 9076   0.634   4.796   1.376
 2945WAT     H1 9077   0.690   4.721   1.411
 2945WAT     H2 9078   0.635   4.794   1.276
 2946WAT      O 9079   7.860   0.292   5.245
 2946WAT     H1 9080   7.775   0.276   5.295
 2946WAT     H2 9081   7.860   0.386   5.210
 2947WAT      O 9082   1.952   2.227   8.584
 2947WAT     H1 9083   2.013   2.304   8.601
 2947WAT     H2 9084   1.873   2.233   8.645
 2948WAT      O 9085   3.173   0.835   0.469
 2948WAT     H1 9086   3.226   0.803   0.547
 2948WAT     H2 9087   3.234   0.879   0.403
 2949WAT      O 9088   1.878   3.009   4.686
 2949WAT     H1 9089   1.929   2.924   4.678
 2949WAT     H2 9090   1.855   3.043   4.594
 2950WAT      O 9091   8.616   0.163   3.718
 2950WAT     H1 9092   8.666   0.076   3.717
 2950WAT     H2 9093   8.664   0.229   3.776
 2951WAT      O 9094   2.950   7.759   2.926
 2951WAT     H1 9095   2.851   7.756   2.934
 2951WAT     H2 9096   2.992   7.703   2.998
 2952WAT      O 9097   5.066   5.733   4.644
 2952WAT     H1 9098   5.093   5.766   4.554
 2952WAT     H2 9099   5.028   5.641   4.636
 2953WAT      O 9100   8.417   8.345   6.167
 2953WAT     H1 9101   8.393   8.369   6.073
 2953WAT     H2 9102   8.359   8.397   6.230
 2954WAT      O 9103   1.225   6.902   6.990
 2954WAT     H1 9104   1.298   6.957   7.030
 2954WAT     H2 9105   1.178   6.955   6.919
 2955WAT      O 9106   4.682   7.190   6.477
 2955WAT     H1 9107   4.766   7.150   6.510
 2955WAT     H2 9108   4.634   7.125   6.418
 2956WAT      O 9109   0.200   7.457   0.957
 2956WAT     H1 9110   0.225   7.554   0.956
 2956WAT     H2 9111   0.186   7.425   0.864
 2957WAT      O 9112   5.156   9.659   2.557
 2957WAT     H1 9113   5.127   9.574   2.601
 2957WAT     H2 9114   5.076   9.710   2.525
 2958WAT      O 9115   1.036   8.785   7.629
 2958WAT     H1 9116   1.085   8.732   7.560
 2958WAT     H2 9117   0.944   8.748   7.641
 2959WAT      O 9118   0.175   6.316   1.935
 2959WAT     H1 9119   0.239   6.378   1.890
 2959WAT     H2 9120   0.156   6.239   1.874
 2960WAT      O 9121   6.370   7.441   5.490
 2960WAT     H1 9122   6.296   7.468   5.552
 2960WAT     H2 9123   6.332   7.392   5.412
 2961WAT      O 9124   6.174   1.168   2.133
 2961WAT     H1 9125   6.107   1.161   2.059
 2961WAT     H2 9126   6.164   1.257   2.178
 2962WAT      O 9127   2.379   3.175   6.363
 2962WAT     H1 9128   2.388   3.215   6.271
 2962WAT     H2 9129   2.383   3.075   6.356
 2963WAT      O 9130   2.538   9.552   5.583
 2963WAT     H1 9131   2.591   9.506   5.654
 2963WAT     H2 9132   2.600   9.587   5.512
 2964WAT      O 9133   6.907   1.860   5.219
 2964WAT     H1 9134   6.993   1.890   5.178
 2964WAT     H2 9135   6.833   1.873   5.153
 2965WAT      O 9136   8.144   8.590   1.393
 2965WAT     H1 9137   8.158   8.491   1.394
 2965WAT     H2 9138   8.207   8.633   1.457
 2966WAT      O 9139   0.758   5.898   4.457
 2966WAT     H1 9140   0.815   5.841   4.397
 2966WAT     H2 9141   0.752   5.991   4.420
 2967WAT      O 9142   2.803   4.920   7.233
 2967WAT     H1 9143   2.719   4.936   7.283
 2967WAT     H2 9144   2.806   4.977   7.151
 2968WAT      O 9145   8.203   5.020   4.127
 2968WAT     H1 9146   8.298   4.990   4.132
 2968WAT     H2 9147   8.182   5.079   4.205
 2969WAT      O 9148   5.500   6.238   9.740
 2969WAT     H1 9149   5.468   6.209   9.830
 2969WAT     H2 9150   5.530   6.333   9.743
 2970WAT      O 9151   2.663   8.106   5.998
 2970WAT     H1 9152   2.598   8.160   6.051
 2970WAT     H2 9153   2.668   8.013   6.035
 2971WAT      O 9154   4.661   5.355   7.171
 2971WAT     H1 9155   4.680   5.441   7.220
 2971WAT     H2 9156   4.599   5.373   7.095
 2972WAT      O 9157   0.582   3.401   2.493
 2972WAT     H1 9158   0.591   3.488   2.541
 2972WAT     H2 9159   0.661   3.343   2.513
 2973WAT      O 9160   2.507   2.879   6.463
 2973WAT     H1 9161   2.603   2.905   6.478
 2973WAT     H2 9162   2.490   2.873   6.365
 2974WAT      O 9163   5.108   6.686   1.315
 2974WAT     H1 9164   5.199   6.647   1.300
 2974WAT     H2 9165   5.039   6.628   1.271
 2975WAT      O 9166   1.420   5.974   0.350
 2975WAT     H1 9167   1.350   5.971   0.421
 2975WAT     H2 9168   1.463   6.064   0.349
 2976WAT      O 9169   5.295   7.849   4.809
 2976WAT     H1 9170   5.394   7.852   4.795
 2976WAT     H2 9171   5.260   7.942   4.820
 2977WAT      O 9172   5.606   8.505   1.163
 2977WAT     H1 9173   5.648   8.545   1.245
 2977WAT     H2 9174   5.601   8.575   1.092
 2978WAT      O 9175   6.345   7.304   5.810
 2978WAT     H1 9176   6.285   7.228   5.783
 2978WAT     H2 9177   6.295   7.390   5.804
 2979WAT      O 9178   6.732   6.474   3.666
 2979WAT     H1 9179   6.768   6.550   3.612
 2979WAT     H2 9180   6.803   6.442   3.729
 2980WAT      O 9181   5.161   4.140   2.249
 2980WAT     H1 9182   5.071   4.095   2.250
 2980WAT     H2 9183   5.218   4.098   2.178
 2981WAT      O 9184   3.340   2.110   3.476
 2981WAT     H1 9185   3.326   2.144   3.570
 2981WAT     H2 9186   3.251   2.104   3.430
 2982WAT      O 9187   3.944   2.819   5.295
 2982WAT     H1 9188   3.899   2.893   5.345
 2982WAT     H2 9189   3.905   2.814   5.202
 2983WAT      O 9190   2.592   7.505   0.098
 2983WAT     H1 9191   2.554   7.559   0.173
 2983WAT     H2 9192   2.520   7.483   0.032
 2984WAT      O 9193   7.025   6.131   2.435
 2984WAT     H1 9194   7.084   6.094   2.363
 2984WAT     H2 9195   6.964   6.200   2.397
 2985WAT      O 9196   6.859   1.688   7.763
 2985WAT     H1 9197   6.947   1.700   7.718
 2985WAT     H2 9198   6.843   1.591   7.781
 2986WAT      O 9199   3.024   7.258   0.507
 2986WAT     H1 9200   2.993   7.166   0.484
 2986WAT     H2 9201   3.056   7.304   0.424
 2987WAT      O 9202   8.820   2.697   9.323
 2987WAT     H1 9203   8.824   2.631   9.398
 2987WAT     H2 9204   8.794   2.651   9.239
 2988WAT      O 9205   8.564   6.653   7.935
 2988WAT     H1 9206   8.571   6.740   7.887
 2988WAT     H2 9207   8.496   6.595   7.890
 2989WAT      O 9208   0.944   1.452   9.440
 2989WAT     H1 9209   1.000   1.480   9.518
 2989WAT     H2 9210   0.878   1.383   9.468
 2990WAT      O 9211   0.383   5.238   2.229
 2990WAT     H1 9212   0.417   5.163   2.172
 2990WAT     H2 9213   0.438   5.320   2.212
 2991WAT      O 9214   7.712   7.619   5.228
 2991WAT     H1 9215   7.695   7.524   5.255
 2991WAT     H2 9216   7.716   7.677   5.309
 2992WAT      O 9217   7.894   5.692   3.679
 2992WAT     H1 9218   7.815   5.659   3.628
 2992WAT     H2 9219   7.960   5.734   3.616
 2993WAT      O 9220   2.460   9.267   1.078
 2993WAT     H1 9221   2.453   9.330   1.155
 2993WAT     H2 9222   2.541   9.290   1.024
 2994WAT      O 9223   6.306   2.060   8.319
 2994WAT     H1 9224   6.294   2.050   8.418
 2994WAT     H2 9225   6.385   2.119   8.302
 2995WAT      O 9226   1.074   9.200   6.735
 2995WAT     H1 9227   0.989   9.227   6.690
 2995WAT     H2 9228   1.068   9.219   6.833
 2996WAT      O 9229   0.304   5.080   0.643
 2996WAT     H1 9230   0.295   5.039   0.552
 2996WAT     H2 9231   0.221   5.130   0.666
 2997WAT      O 9232   5.716   7.825   6.821
 2997WAT     H1 9233   5.793   7.792   6.767
 2997WAT     H2 9234   5.710   7.924   6.815
 2998WAT      O 9235   9.629   2.527   4.015
 2998WAT     H1 9236   9.607   2.622   4.036
 2998WAT     H2 9237   9.548   2.482   3.977
 2999WAT      O 9238   5.020   0.657   2.252
 2999WAT     H1 9239   5.066   0.745   2.240
 2999WAT     H2 9240   4.963   0.639   2.172
 3000WAT      O 9241   4.253   5.004   2.987
 3000WAT     H1 9242   4.297   5.011   3.077
 3000WAT     H2 9243   4.285   4.922   2.940
 3001WAT      O 9244   9.088   2.470   6.913
 3001WAT     H1 9245   9.149   2.455   6.834
 3001WAT     H2 9246   9.098   2.564   6.945
 3002WAT      O 9247   6.264   8.572   0.432
 3002WAT     H1 9248   6.183   8.522   0.402
 3002WAT     H2 9249   6.324   8.509   0.483
 3003WAT      O 9250   6.441   1.640   8.501
 3003WAT     H1 9251   6.362   1.596   8.457
 3003WAT     H2 9252   6.512   1.572   8.518
 3004WAT      O 9253   6.422   5.230   7.323
 3004WAT     H1 9254   6.511   5.209   7.362
 3004WAT     H2 9255   6.414   5.189   7.232
 3005WAT      O 9256   7.979   2.612   8.772
 3005WAT     H1 9257   7.889   2.596   8.812
 3005WAT     H2 9258   8.044   2.545   8.809
 3006WAT      O 9259   2.609   0.974   8.012
 3006WAT     H1 9260   2.514   0.955   8.038
 3006WAT     H2 9261   2.631   1.069   8.031
 3007WAT      O 9262   8.823   6.961   8.447
 3007WAT     H1 9263   8.746   6.903   8.423
 3007WAT     H2 9264   8.793   7.056   8.452
 3008WAT      O 9265   7.010   4.168   9.745
 3008WAT     H1 9266   7.070   4.150   9.667
 3008WAT     H2 9267   7.066   4.191   9.825
 3009WAT      O 9268   0.841   7.259   5.223
 3009WAT     H1 9269   0.931   7.264   5.181
 3009WAT     H2 9270   0.773   7.298   5.162
 3010WAT      O 9271   5.277   4.326   1.275
 3010WAT     H1 9272   5.180   4.338   1.252
 3010WAT     H2 9273   5.332   4.387   1.219
 3011WAT      O 9274   6.338   3.161   5.727
 3011WAT     H1 9275   6.371   3.233   5.667
 3011WAT     H2 9276   6.347   3.189   5.822
 3012WAT      O 9277   4.628   7.355   2.529
 3012WAT     H1 9278   4.672   7.431   2.482
 3012WAT     H2 9279   4.675   7.270   2.506
 3013WAT      O 9280   5.772   5.589   8.466
 3013WAT     H1 9281   5.753   5.572   8.563
 3013WAT     H2 9282   5.862   5.551   8.442
 3014WAT      O 9283   5.026   6.159   9.460
 3014WAT     H1 9284   5.023   6.095   9.383
 3014WAT     H2 9285   5.121   6.172   9.489
 3015WAT      O 9286   9.486   1.983   1.059
 3015WAT     H1 9287   9.571   2.004   1.107
 3015WAT     H2 9288   9.493   1.893   1.016
 3016WAT      O 9289   9.139   8.784   1.366
 3016WAT     H1 9290   9.047   8.752   1.386
 3016WAT     H2 9291   9.162   8.861   1.426
 3017WAT      O 9292   9.104   1.425   3.282
 3017WAT     H1 9293   9.043   1.388   3.353
 3017WAT     H2 9294   9.195   1.438   3.321
 3018WAT      O 9295   8.132   1.752   9.178
 3018WAT     H1 9296   8.147   1.851   9.180
 3018WAT     H2 9297   8.049   1.732   9.125
 3019WAT      O 9298   2.161   2.891   6.087
 3019WAT     H1 9299   2.098   2.882   6.010
 3019WAT     H2 9300   2.111   2.922   6.168
 3020WAT      O 9301   9.005   5.645   6.970
 3020WAT     H1 9302   8.950   5.608   7.045
 3020WAT     H2 9303   9.097   5.606   6.974
 3021WAT      O 9304   4.804   3.007   9.768
 3021WAT     H1 9305   4.856   3.064   9.704
 3021WAT     H2 9306   4.706   3.014   9.747
 3022WAT      O 9307   6.502   2.769   8.508
 3022WAT     H1 9308   6.488   2.851   8.452
 3022WAT     H2 9309   6.529   2.796   8.601
 3023WAT      O 9310   2.098   1.034   0.652
 3023WAT     H1 9311   2.173   0.987   0.699
 3023WAT     H2 9312   2.014   1.027   0.707
 3024WAT      O 9313   5.500   6.455   5.477
 3024WAT     H1 9314   5.558   6.374   5.469
 3024WAT     H2 9315   5.449   6.468   5.393
 3025WAT      O 9316   5.176   7.534   0.054
 3025WAT     H1 9317   5.103   7.492   0.108
 3025WAT     H2 9318   5.258   7.543   0.111
 3026WAT      O 9319   8.911   9.068   1.579
 3026WAT     H1 9320   8.900   8.983   1.630
 3026WAT     H2 9321   8.838   9.076   1.511
 3027WAT      O 9322   8.995   7.880   6.117
 3027WAT     H1 9323   8.999   7.864   6.216
 3027WAT     H2 9324   9.085   7.910   6.084
 3028WAT      O 9325   3.628   4.680   0.770
 3028WAT     H1 9326   3.724   4.656   0.756
 3028WAT     H2 9327   3.577   4.598   0.797
 3029WAT      O 9328   6.363   4.521   4.807
 3029WAT     H1 9329   6.300   4.483   4.739
 3029WAT     H2 9330   6.415   4.596   4.767
 3030WAT      O 9331   6.878   2.537   0.299
 3030WAT     H1 9332   6.888   2.445   0.337
 3030WAT     H2 9333   6.832   2.596   0.366
 3031WAT      O 9334   1.048   4.196   8.615
 3031WAT     H1 9335   1.013   4.131   8.547
 3031WAT     H2 9336   1.145   4.180   8.629
 3032WAT      O 9337   3.244   9.085   9.099
 3032WAT     H1 9338   3.183   9.008   9.119
 3032WAT     H2 9339   3.196   9.171   9.119
 3033WAT      O 9340   4.629   6.998   6.859
 3033WAT     H1 9341   4.617   7.032   6.952
 3033WAT     H2 9342   4.578   7.057   6.796
 3034WAT      O 9343   5.037   3.601   4.872
 3034WAT     H1 9344   4.970   3.580   4.943
 3034WAT     H2 9345   5.101   3.525   4.863
 3035WAT      O 9346   1.413   0.871   6.467
 3035WAT     H1 9347   1.440   0.779   6.496
 3035WAT     H2 9348   1.413   0.875   6.367
 3036WAT      O 9349   8.590   2.381   3.875
 3036WAT     H1 9350   8.682   2.397   3.840
 3036WAT     H2 9351   8.595   2.359   3.972
 3037WAT      O 9352   9.290   5.806   4.885
 3037WAT     H1 9353   9.370   5.795   4.826
 3037WAT     H2 9354   9.321   5.821   4.979
 3038WAT      O 9355   6.453   2.211   5.412
 3038WAT     H1 9356   6.379   2.253   5.465
 3038WAT     H2 9357   6.440   2.232   5.315
 3039WAT      O 9358   1.170   0.200   9.385
 3039WAT     H1 9359   1.175   0.174   9.289
 3039WAT     H2 9360   1.232   0.275   9.403
 3040WAT      O 9361   5.011   9.578   2.007
 3040WAT     H1 9362   5.096   9.593   2.058
 3040WAT     H2 9363   5.004   9.482   1.981
 3041WAT      O 9364   7.762   9.591   7.181
 3041WAT     H1 9365   7.797   9.537   7.105
 3041WAT     H2 9366   7.814   9.570   7.264
 3042WAT      O 9367   9.642   9.565   0.974
 3042WAT     H1 9368   9.543   9.568   0.990
 3042WAT     H2 9369   9.661   9.516   0.889
 3043WAT      O 9370   8.711   1.850   6.492
 3043WAT     H1 9371   8.724   1.935   6.442
 3043WAT     H2 9372   8.726   1.772   6.431
 3044WAT      O 9373   9.162   7.345   6.657
 3044WAT     H1 9374   9.139   7.434   6.696
 3044WAT     H2 9375   9.094   7.278   6.684
 3045WAT      O 9376   7.453   5.924   3.940
 3045WAT     H1 9377   7.421   5.923   3.845
 3045WAT     H2 9378   7.506   6.007   3.956
 3046WAT      O 9379   0.088   5.843   2.488
 3046WAT     H1 9380   0.015   5.796   2.439
 3046WAT     H2 9381   0.172   5.838   2.434
 3047WAT      O 9382   0.192   9.688   9.573
 3047WAT     H1 9383   0.182   9.596   9.535
 3047WAT     H2 9384   0.289   9.710   9.582
 3048WAT      O 9385   3.352   2.923   5.022
 3048WAT     H1 9386   3.275   2.987   5.025
 3048WAT     H2 9387   3.430   2.968   4.977
 3049WAT      O 9388   1.811   4.446   8.572
 3049WAT     H1 9389   1.717   4.416   8.588
 3049WAT     H2 9390   1.859   4.454   8.659
 3050WAT      O 9391   0.632   3.028   9.530
 3050WAT     H1 9392   0.703   3.095   9.553
 3050WAT     H2 9393   0.598   3.046   9.438
 3051WAT      O 9394   0.081   3.825   5.609
 3051WAT     H1 9395   0.165   3.877   5.593
 3051WAT     H2 9396   0.014   3.883   5.656
 3052WAT      O 9397   3.126   5.281   5.448
 3052WAT     H1 9398   3.169   5.246   5.365
 3052WAT     H2 9399   3.193   5.331   5.502
 3053WAT      O 9400   8.184   9.157   3.886
 3053WAT     H1 9401   8.126   9.140   3.807
 3053WAT     H2 9402   8.279   9.164   3.857
 3054WAT      O 9403   8.552   4.995   5.881
 3054WAT     H1 9404   8.642   4.989   5.925
 3054WAT     H2 9405   8.481   4.996   5.952
 3055WAT      O 9406   4.953   2.918   8.840
 3055WAT     H1 9407   5.042   2.909   8.794
 3055WAT     H2 9408   4.950   3.006   8.888
 3056WAT      O 9409   6.619   8.750   4.266
 3056WAT     H1 9410   6.608   8.812   4.188
 3056WAT     H2 9411   6.528   8.726   4.301
 3057WAT      O 9412   4.058   4.743   6.865
 3057WAT     H1 9413   4.129   4.810   6.843
 3057WAT     H2 9414   4.077   4.702   6.954
 3058WAT      O 9415   6.847   2.926   7.118
 3058WAT     H1 9416   6.774   2.984   7.154
 3058WAT     H2 9417   6.887   2.969   7.037
 3059WAT      O 9418   4.046   1.028   9.090
 3059WAT     H1 9419   4.017   1.085   9.013
 3059WAT     H2 9420   3.966   0.982   9.129
 3060WAT      O 9421   9.767   3.666   1.386
 3060WAT     H1 9422   9.844   3.662   1.450
 3060WAT     H2 9423   9.702   3.594   1.408
 3061WAT      O 9424   1.297   4.391   6.631
 3061WAT     H1 9425   1.259   4.446   6.557
 3061WAT     H2 9426   1.223   4.341   6.676
 3062WAT      O 9427   2.334   7.062   5.846
 3062WAT     H1 9428   2.315   6.981   5.791
 3062WAT     H2 9429   2.260   7.075   5.913
 3063WAT      O 9430   7.992   7.702   7.526
 3063WAT     H1 9431   7.938   7.738   7.450
 3063WAT     H2 9432   8.013   7.606   7.510
 3064WAT      O 9433   2.745   4.111   7.794
 3064WAT     H1 9434   2.649   4.110   7.767
 3064WAT     H2 9435   2.803   4.100   7.714
 3065WAT      O 9436   5.725   4.119   0.782
 3065WAT     H1 9437   5.823   4.110   0.795
 3065WAT     H2 9438   5.707   4.165   0.695
 3066WAT      O 9439   3.242   0.323   0.576
 3066WAT     H1 9440   3.179   0.363   0.510
 3066WAT     H2 9441   3.260   0.389   0.649
 3067WAT      O 9442   3.183   3.699   6.103
 3067WAT     H1 9443   3.156   3.785   6.145
 3067WAT     H2 9444   3.136   3.689   6.015
 3068WAT      O 9445   2.414   3.104   3.849
 3068WAT     H1 9446   2.462   3.186   3.878
 3068WAT     H2 9447   2.410   3.039   3.924
 3069WAT      O 9448   0.488   6.669   8.135
 3069WAT     H1 9449   0.545   6.595   8.172
 3069WAT     H2 9450   0.542   6.723   8.070
 3070WAT      O 9451   2.354   9.737   5.675
 3070WAT     H1 9452   2.426   9.669   5.663
 3070WAT     H2 9453   2.309   9.754   5.587
 3071WAT      O 9454   7.963   5.979   1.260
 3071WAT     H1 9455   7.945   6.076   1.276
 3071WAT     H2 9456   7.912   5.948   1.180
 3072WAT      O 9457   8.612   4.238   0.428
 3072WAT     H1 9458   8.541   4.270   0.365
 3072WAT     H2 9459   8.658   4.317   0.468
 3073WAT      O 9460   1.723   6.462   3.172
 3073WAT     H1 9461   1.793   6.507   3.228
 3073WAT     H2 9462   1.640   6.450   3.227
 3074WAT      O 9463   3.248   9.329   8.404
 3074WAT     H1 9464   3.310   9.320   8.326
 3074WAT     H2 9465   3.294   9.299   8.487
 3075WAT      O 9466   4.299   3.642   6.684
 3075WAT     H1 9467   4.384   3.647   6.631
 3075WAT     H2 9468   4.237   3.577   6.640
 3076WAT      O 9469   9.722   8.027   0.833
 3076WAT     H1 9470   9.795   8.079   0.878
 3076WAT     H2 9471   9.668   7.980   0.902
 3077WAT      O 9472   5.116   7.485   3.735
 3077WAT     H1 9473   5.104   7.585   3.735
 3077WAT     H2 9474   5.109   7.450   3.828
 3078WAT      O 9475   3.006   2.357   1.067
 3078WAT     H1 9476   2.939   2.360   1.141
 3078WAT     H2 9477   2.963   2.387   0.982
 3079WAT      O 9478   7.582   9.782   5.527
 3079WAT     H1 9479   7.661   9.737   5.485
 3079WAT     H2 9480   7.614   9.865   5.575
 3080WAT      O 9481   4.233   6.303   1.512
 3080WAT     H1 9482   4.233   6.205   1.533
 3080WAT     H2 9483   4.271   6.353   1.590
 3081WAT      O 9484   9.145   7.617   1.883
 3081WAT     H1 9485   9.179   7.710   1.899
 3081WAT     H2 9486   9.106   7.612   1.791
 3082WAT      O 9487   3.658   0.640   5.297
 3082WAT     H1 9488   3.669   0.724   5.350
 3082WAT     H2 9489   3.749   0.605   5.271
 3083WAT      O 9490   2.560   9.358   7.648
 3083WAT     H1 9491   2.629   9.348   7.720
 3083WAT     H2 9492   2.470   9.372   7.689
 3084WAT      O 9493   0.646   9.240   8.695
 3084WAT     H1 9494   0.694   9.284   8.619
 3084WAT     H2 9495   0.710   9.184   8.747
 3085WAT      O 9496   9.781   0.989   4.434
 3085WAT     H1 9497   9.690   0.950   4.424
 3085WAT     H2 9498   9.775   1.089   4.435
 3086WAT      O 9499   7.192   1.490   0.718
 3086WAT     H1 9500   7.096   1.492   0.690
 3086WAT     H2 9501   7.202   1.533   0.808
 3087WAT      O 9502   1.889   0.281   6.090
 3087WAT     H1 9503   1.944   0.358   6.058
 3087WAT     H2 9504   1.803   0.315   6.128
 3088WAT      O 9505   8.983   1.694   4.380
 3088WAT     H1 9506   9.068   1.719   4.424
 3088WAT     H2 9507   9.002   1.656   4.289
 3089WAT      O 9508   8.448   0.394   6.797
 3089WAT     H1 9509   8.405   0.342   6.870
 3089WAT     H2 9510   8.515   0.458   6.836
 3090WAT      O 9511   3.574   7.077   6.015
 3090WAT     H1 9512   3.525   7.161   6.039
 3090WAT     H2 9513   3.567   7.012   6.091
 3091WAT      O 9514   5.246   9.274   7.340
 3091WAT     H1 9515   5.257   9.355   7.397
 3091WAT     H2 9516   5.219   9.302   7.247
 3092WAT      O 9517   9.379   5.827   5.399
 3092WAT     H1 9518   9.456   5.830   5.462
 3092WAT     H2 9519   9.303   5.776   5.442
 3093WAT      O 9520   0.817   4.801   3.808
 3093WAT     H1 9521   0.892   4.824   3.746
 3093WAT     H2 9522   0.748   4.872   3.804
 3094WAT      O 9523   9.537   6.623   8.876
 3094WAT     H1 9524   9.625   6.604   8.919
 3094WAT     H2 9525   9.537   6.716   8.840
 3095WAT      O 9526   5.353   2.167   5.398
 3095WAT     H1 9527   5.258   2.162   5.428
 3095WAT     H2 9528   5.367   2.106   5.320
 3096WAT      O 9529   6.350   0.862   8.708
 3096WAT     H1 9530   6.302   0.783   8.746
 3096WAT     H2 9531   6.404   0.906   8.779
 3097WAT      O 9532   8.355   2.900   6.247
 3097WAT     H1 9533   8.277   2.853   6.287
 3097WAT     H2 9534   8.357   2.995   6.280
 3098WAT      O 9535   8.417   7.116   2.712
 3098WAT     H1 9536   8.382   7.196   2.762
 3098WAT     H2 9537   8.515   7.106   2.730
 3099WAT      O 9538   1.491   4.673   4.567
 3099WAT     H1 9539   1.580   4.717   4.559
 3099WAT     H2 9540   1.467   4.665   4.663
 3100WAT      O 9541   4.579   3.721   7.429
 3100WAT     H1 9542   4.629   3.757   7.350
 3100WAT     H2 9543   4.480   3.730   7.413
 3101WAT      O 9544   9.847   3.119   6.004
 3101WAT     H1 9545   9.817   3.030   6.037
 3101WAT     H2 9546   9.931   3.108   5.951
 3102WAT      O 9547   8.398   3.921   5.523
 3102WAT     H1 9548   8.425   3.908   5.618
 3102WAT     H2 9549   8.473   3.892   5.462
 3103WAT      O 9550   2.507   9.401   4.045
 3103WAT     H1 9551   2.500   9.452   4.131
 3103WAT     H2 9552   2.576   9.329   4.054
 3104WAT      O 9553   3.046   6.366   4.010
 3104WAT     H1 9554   3.093   6.343   4.095
 3104WAT     H2 9555   2.947   6.372   4.026
 3105WAT      O 9556   5.369   2.909   3.199
 3105WAT     H1 9557   5.414   2.851   3.267
 3105WAT     H2 9558   5.270   2.901   3.207
 3106WAT      O 9559   5.168   5.982   0.028
 3106WAT     H1 9560   5.212   5.994   0.117
 3106WAT     H2 9561   5.208   5.903  -0.019
 3107WAT      O 9562   8.023   6.905   6.155
 3107WAT     H1 9563   8.090   6.913   6.080
 3107WAT     H2 9564   7.990   6.811   6.160
 3108WAT      O 9565   9.560   7.665   0.312
 3108WAT     H1 9566   9.551   7.656   0.213
 3108WAT     H2 9567   9.619   7.742   0.334
 3109WAT      O 9568   5.457   1.009   0.663
 3109WAT     H1 9569   5.358   1.021   0.658
 3109WAT     H2 9570   5.493   1.054   0.744
 3110WAT      O 9571   0.401   3.302   7.096
 3110WAT     H1 9572   0.413   3.224   7.035
 3110WAT     H2 9573   0.343   3.276   7.173
 3111WAT      O 9574   4.008   3.837   8.075
 3111WAT     H1 9575   4.010   3.832   8.175
 3111WAT     H2 9576   4.087   3.788   8.037
 3112WAT      O 9577   6.784   5.653   4.028
 3112WAT     H1 9578   6.725   5.594   4.084
 3112WAT     H2 9579   6.824   5.599   3.954
 3113WAT      O 9580   2.690   3.224   9.613
 3113WAT     H1 9581   2.626   3.220   9.536
 3113WAT     H2 9582   2.743   3.309   9.608
 3114WAT      O 9583   3.706   8.731   7.548
 3114WAT     H1 9584   3.725   8.789   7.469
 3114WAT     H2 9585   3.608   8.728   7.565
 3115WAT      O 9586   8.158   3.467   8.410
 3115WAT     H1 9587   8.063   3.440   8.423
 3115WAT     H2 9588   8.185   3.532   8.480
 3116WAT      O 9589   2.089   0.206   8.528
 3116WAT     H1 9590   2.128   0.206   8.620
 3116WAT     H2 9591   2.022   0.132   8.520
 3117WAT      O 9592   8.449   8.917   0.785
 3117WAT     H1 9593   8.421   8.924   0.689
 3117WAT     H2 9594   8.368   8.904   0.842
 3118WAT      O 9595   6.764   6.815   3.301
 3118WAT     H1 9596   6.794   6.908   3.320
 3118WAT     H2 9597   6.690   6.816   3.234
 3119WAT      O 9598   3.522   9.156   0.904
 3119WAT     H1 9599   3.604   9.109   0.939
 3119WAT     H2 9600   3.440   9.113   0.942
 3120WAT      O 9601   6.117   1.852   5.149
 3120WAT     H1 9602   6.150   1.871   5.056
 3120WAT     H2 9603   6.169   1.776   5.188
 3121WAT      O 9604   5.243   6.757   7.989
 3121WAT     H1 9605   5.201   6.672   7.957
 3121WAT     H2 9606   5.292   6.801   7.913
 3122WAT      O 9607   5.692   9.624   8.118
 3122WAT     H1 9608   5.776   9.676   8.130
 3122WAT     H2 9609   5.708   9.528   8.140
 3123WAT      O 9610   5.655   5.110   2.308
 3123WAT     H1 9611   5.635   5.146   2.218
 3123WAT     H2 9612   5.753   5.113   2.325
 3124WAT      O 9613   7.095   5.821   8.340
 3124WAT     H1 9614   7.189   5.796   8.315
 3124WAT     H2 9615   7.093   5.916   8.370
 3125WAT      O 9616   9.127   4.605   5.360
 3125WAT     H1 9617   9.088   4.598   5.452
 3125WAT     H2 9618   9.060   4.647   5.299
 3126WAT      O 9619   1.885   5.733   6.712
 3126WAT     H1 9620   1.886   5.635   6.691
 3126WAT     H2 9621   1.793   5.761   6.738
 3127WAT      O 9622   1.935   9.531   8.269
 3127WAT     H1 9623   1.890   9.611   8.228
 3127WAT     H2 9624   2.030   9.528   8.239
 3128WAT      O 9625   0.300   6.415   7.673
 3128WAT     H1 9626   0.251   6.342   7.627
 3128WAT     H2 9627   0.237   6.491   7.690
 3129WAT      O 9628   4.306   7.747   7.602
 3129WAT     H1 9629   4.227   7.703   7.559
 3129WAT     H2 9630   4.365   7.786   7.531
 3130WAT      O 9631   6.770   8.415   0.348
 3130WAT     H1 9632   6.820   8.412   0.434
 3130WAT     H2 9633   6.789   8.502   0.301
 3131WAT      O 9634   7.161   8.982   4.092
 3131WAT     H1 9635   7.221   9.062   4.094
 3131WAT     H2 9636   7.217   8.899   4.095
 3132WAT      O 9637   3.384   4.930   9.474
 3132WAT     H1 9638   3.469   4.904   9.520
 3132WAT     H2 9639   3.320   4.967   9.541
 3133WAT      O 9640   7.327   5.625   3.606
 3133WAT     H1 9641   7.323   5.588   3.699
 3133WAT     H2 9642   7.248   5.593   3.554
 3134WAT      O 9643   2.133   6.167   7.944
 3134WAT     H1 9644   2.210   6.149   7.882
 3134WAT     H2 9645   2.055   6.112   7.917
 3135WAT      O 9646   0.101   1.436   6.496
 3135WAT     H1 9647   0.160   1.375   6.442
 3135WAT     H2 9648   0.088   1.398   6.587
 3136WAT      O 9649   0.945   7.730   2.752
 3136WAT     H1 9650   0.911   7.748   2.844
 3136WAT     H2 9651   1.027   7.672   2.758
 3137WAT      O 9652   1.715   4.535   2.358
 3137WAT     H1 9653   1.704   4.629   2.324
 3137WAT     H2 9654   1.705   4.534   2.458
 3138WAT      O 9655   9.141   6.904   7.062
 3138WAT     H1 9656   9.231   6.861   7.059
 3138WAT     H2 9657   9.072   6.838   7.033
 3139WAT      O 9658   5.026   1.485   8.619
 3139WAT     H1 9659   5.062   1.508   8.710
 3139WAT     H2 9660   5.038   1.562   8.558
 3140WAT      O 9661   4.113   0.658   5.740
 3140WAT     H1 9662   4.013   0.661   5.747
 3140WAT     H2 9663   4.140   0.675   5.645
 3141WAT      O 9664   1.836   1.205   0.065
 3141WAT     H1 9665   1.741   1.172   0.064
 3141WAT     H2 9666   1.862   1.226   0.160
 3142WAT      O 9667   5.534   6.180   0.479
 3142WAT     H1 9668   5.487   6.122   0.412
 3142WAT     H2 9669   5.473   6.199   0.556
 3143WAT      O 9670   6.165   1.636   7.887
 3143WAT     H1 9671   6.163   1.601   7.980
 3143WAT     H2 9672   6.160   1.736   7.889
 3144WAT      O 9673   3.299   7.958   6.185
 3144WAT     H1 9674   3.302   7.859   6.171
 3144WAT     H2 9675   3.318   7.979   6.281
 3145WAT      O 9676   1.407   3.646   6.977
 3145WAT     H1 9677   1.494   3.647   7.027
 3145WAT     H2 9678   1.404   3.565   6.918
 3146WAT      O 9679   4.393   5.821   7.941
 3146WAT     H1 9680   4.309   5.876   7.943
 3146WAT     H2 9681   4.419   5.804   7.846
 3147WAT      O 9682   8.334   0.187   4.693
 3147WAT     H1 9683   8.363   0.163   4.785
 3147WAT     H2 9684   8.283   0.110   4.653
 3148WAT      O 9685   7.534   0.057   6.418
 3148WAT     H1 9686   7.547   0.132   6.482
 3148WAT     H2 9687   7.443   0.065   6.377
 3149WAT      O 9688   9.646   8.462   5.974
 3149WAT     H1 9689   9.567   8.469   6.035
 3149WAT     H2 9690   9.672   8.553   5.942
 3150WAT      O 9691   4.697   5.319   4.140
 3150WAT     H1 9692   4.770   5.353   4.080
 3150WAT     H2 9693   4.675   5.225   4.115
 3151WAT      O 9694   4.243   2.093   9.425
 3151WAT     H1 9695   4.320   2.136   9.471
 3151WAT     H2 9696   4.257   2.096   9.326
 3152WAT      O 9697   5.259   3.820   0.241
 3152WAT     H1 9698   5.281   3.895   0.178
 3152WAT     H2 9699   5.243   3.736   0.189
 3153WAT      O 9700   2.519   8.430   8.007
 3153WAT     H1 9701   2.433   8.456   7.964
 3153WAT     H2 9702   2.546   8.501   8.073
 3154WAT      O 9703   5.275   4.623   4.106
 3154WAT     H1 9704   5.317   4.634   4.016
 3154WAT     H2 9705   5.181   4.589   4.095
 3155WAT      O 9706   2.268   4.785   1.118
 3155WAT     H1 9707   2.345   4.847   1.134
 3155WAT     H2 9708   2.299   4.690   1.126
 3156WAT      O 9709   6.053   7.032   5.194
 3156WAT     H1 9710   6.100   6.955   5.152
 3156WAT     H2 9711   5.964   7.044   5.150
 3157WAT      O 9712   0.848   4.758   3.199
 3157WAT     H1 9713   0.914   4.684   3.209
 3157WAT     H2 9714   0.805   4.777   3.287
 3158WAT      O 9715   0.456   0.222   7.667
 3158WAT     H1 9716   0.362   0.200   7.694
 3158WAT     H2 9717   0.474   0.185   7.576
 3159WAT      O 9718   8.869   6.605   7.205
 3159WAT     H1 9719   8.953   6.551   7.211
 3159WAT     H2 9720   8.795   6.558   7.254
 3160WAT      O 9721   8.738   3.301   8.438
 3160WAT     H1 9722   8.815   3.302   8.374
 3160WAT     H2 9723   8.655   3.329   8.390
 3161WAT      O 9724   3.078   6.580   9.180
 3161WAT     H1 9725   3.147   6.614   9.243
 3161WAT     H2 9726   3.071   6.642   9.102
 3162WAT      O 9727   1.483   3.006   4.728
 3162WAT     H1 9728   1.540   2.927   4.751
 3162WAT     H2 9729   1.387   2.977   4.718
 3163WAT      O 9730   4.849   8.786   1.381
 3163WAT     H1 9731   4.773   8.768   1.443
 3163WAT     H2 9732   4.838   8.731   1.298
 3164WAT      O 9733   1.080   5.737   4.764
 3164WAT     H1 9734   1.018   5.815   4.765
 3164WAT     H2 9735   1.173   5.769   4.747
 3165WAT      O 9736   7.204   6.145   4.923
 3165WAT     H1 9737   7.202   6.220   4.990
 3165WAT     H2 9738   7.244   6.178   4.837
 3166WAT      O 9739   6.628   3.123   1.725
 3166WAT     H1 9740   6.654   3.077   1.810
 3166WAT     H2 9741   6.635   3.222   1.738
 3167WAT      O 9742   2.271   7.793   6.317
 3167WAT     H1 9743   2.202   7.725   6.340
 3167WAT     H2 9744   2.234   7.885   6.333
 3168WAT      O 9745   8.977   0.378   3.691
 3168WAT     H1 9746   8.911   0.431   3.744
 3168WAT     H2 9747   8.969   0.281   3.714
 3169WAT      O 9748   8.703   8.631   3.268
 3169WAT     H1 9749   8.731   8.723   3.239
 3169WAT     H2 9750   8.662   8.583   3.191
 3170WAT      O 9751   0.034   2.095   0.248
 3170WAT     H1 9752  -0.049   2.132   0.204
 3170WAT     H2 9753   0.010   2.015   0.302
 3171WAT      O 9754   5.674   3.552   7.090
 3171WAT     H1 9755   5.611   3.537   7.167
 3171WAT     H2 9756   5.694   3.650   7.082
 3172WAT      O 9757   5.688   8.049   5.122
 3172WAT     H1 9758   5.694   7.989   5.202
 3172WAT     H2 9759   5.643   8.001   5.047
 3173WAT      O 9760   7.352   8.660   5.525
 3173WAT     H1 9761   7.437   8.698   5.488
 3173WAT     H2 9762   7.278   8.675   5.460
 3174WAT      O 9763   4.657   6.751   2.317
 3174WAT     H1 9764   4.723   6.707   2.255
 3174WAT     H2 9765   4.658   6.850   2.301
 3175WAT      O 9766   7.171   4.651   4.293
 3175WAT     H1 9767   7.106   4.586   4.255
 3175WAT     H2 9768   7.260   4.608   4.301
 3176WAT      O 9769   4.398   2.244   3.531
 3176WAT     H1 9770   4.394   2.263   3.629
 3176WAT     H2 9771   4.433   2.324   3.483
 3177WAT      O 9772   2.688   8.787   5.831
 3177WAT     H1 9773   2.696   8.853   5.755
 3177WAT     H2 9774   2.737   8.823   5.911
 3178WAT      O 9775   4.040   8.632   3.528
 3178WAT     H1 9776   4.121   8.596   3.574
 3178WAT     H2 9777   4.040   8.602   3.432
 3179WAT      O 9778   4.183   8.559   1.329
 3179WAT     H1 9779   4.113   8.539   1.398
 3179WAT     H2 9780   4.146   8.622   1.261
 3180WAT      O 9781   9.037   7.367   8.754
 3180WAT     H1 9782   9.092   7.319   8.822
 3180WAT     H2 9783   9.048   7.323   8.665
 3181WAT      O 9784   1.723   8.295   1.020
 3181WAT     H1 9785   1.705   8.241   1.102
 3181WAT     H2 9786   1.682   8.386   1.030
 3182WAT      O 9787   0.747   1.780   3.905
 3182WAT     H1 9788   0.825   1.784   3.967
 3182WAT     H2 9789   0.758   1.702   3.843
 3183WAT      O 9790   3.385   9.499   1.351
 3183WAT     H1 9791   3.380   9.507   1.451
 3183WAT     H2 9792   3.412   9.407   1.326
 3184WAT      O 9793   6.471   0.876   2.339
 3184WAT     H1 9794   6.436   0.959   2.296
 3184WAT     H2 9795   6.426   0.863   2.427
 3185WAT      O 9796   4.203   8.671   3.774
 3185WAT     H1 9797   4.278   8.718   3.728
 3185WAT     H2 9798   4.176   8.722   3.856
 3186WAT      O 9799   0.985   0.623   0.035
 3186WAT     H1 9800   0.936   0.613   0.121
 3186WAT     H2 9801   0.926   0.598  -0.041
 3187WAT      O 9802   1.018   2.034   4.609
 3187WAT     H1 9803   0.962   2.107   4.569
 3187WAT     H2 9804   1.034   1.964   4.540
 3188WAT      O 9805   7.249   1.445   7.141
 3188WAT     H1 9806   7.271   1.459   7.237
 3188WAT     H2 9807   7.314   1.498   7.085
 3189WAT      O 9808   0.947   5.918   6.767
 3189WAT     H1 9809   0.856   5.949   6.741
 3189WAT     H2 9810   0.991   5.986   6.825
 3190WAT      O 9811   3.581   0.516   0.305
 3190WAT     H1 9812   3.486   0.534   0.332
 3190WAT     H2 9813   3.602   0.566   0.221
 3191WAT      O 9814   4.009   9.735   6.259
 3191WAT     H1 9815   4.037   9.745   6.164
 3191WAT     H2 9816   3.986   9.825   6.296
 3192WAT      O 9817   5.384   8.414   1.614
 3192WAT     H1 9818   5.374   8.513   1.600
 3192WAT     H2 9819   5.320   8.383   1.684
 3193WAT      O 9820   4.935   3.201   1.276
 3193WAT     H1 9821   4.954   3.293   1.243
 3193WAT     H2 9822   4.987   3.135   1.221
 3194WAT      O 9823   1.350   8.836   4.422
 3194WAT     H1 9824   1.447   8.859   4.413
 3194WAT     H2 9825   1.330   8.817   4.517
 3195WAT      O 9826   5.572   5.833   9.390
 3195WAT     H1 9827   5.642   5.825   9.461
 3195WAT     H2 9828   5.580   5.923   9.346
 3196WAT      O 9829   9.212   6.813   8.560
 3196WAT     H1 9830   9.218   6.903   8.516
 3196WAT     H2 9831   9.265   6.747   8.506
 3197WAT      O 9832   3.530   3.420   7.203
 3197WAT     H1 9833   3.629   3.426   7.217
 3197WAT     H2 9834   3.503   3.479   7.127
 3198WAT      O 9835   5.189   2.402   6.245
 3198WAT     H1 9836   5.281   2.365   6.240
 3198WAT     H2 9837   5.140   2.359   6.321
 3199WAT      O 9838   6.369   2.261   9.802
 3199WAT     H1 9839   6.363   2.354   9.765
 3199WAT     H2 9840   6.316   2.199   9.744
 3200WAT      O 9841   6.256   7.645   1.404
 3200WAT     H1 9842   6.271   7.737   1.368
 3200WAT     H2 9843   6.177   7.646   1.465
 3201WAT      O 9844   2.923   3.001   0.847
 3201WAT     H1 9845   2.976   2.967   0.770
 3201WAT     H2 9846   2.949   3.096   0.866
 3202WAT      O 9847   8.952   4.845   7.613
 3202WAT     H1 9848   8.854   4.844   7.593
 3202WAT     H2 9849   8.973   4.921   7.675
 3203WAT      O 9850   2.042   5.163   6.813
 3203WAT     H1 9851   2.138   5.191   6.805
 3203WAT     H2 9852   2.016   5.165   6.910
 3204WAT      O 9853   0.193   9.824   5.862
 3204WAT     H1 9854   0.200   9.728   5.887
 3204WAT     H2 9855   0.275   9.851   5.811
 3205WAT      O 9856   1.763   0.331   9.171
 3205WAT     H1 9857   1.820   0.256   9.205
 3205WAT     H2 9858   1.736   0.313   9.077
 3206WAT      O 9859   8.312   9.054   9.429
 3206WAT     H1 9860   8.310   9.152   9.444
 3206WAT     H2 9861   8.253   9.030   9.352
 3207WAT      O 9862   6.777   7.076   1.296
 3207WAT     H1 9863   6.778   7.165   1.250
 3207WAT     H2 9864   6.722   7.012   1.243
 3208WAT      O 9865   4.342   0.826   8.792
 3208WAT     H1 9866   4.345   0.901   8.858
 3208WAT     H2 9867   4.299   0.859   8.708
 3209WAT      O 9868   6.134   6.376   9.745
 3209WAT     H1 9869   6.172   6.348   9.657
 3209WAT     H2 9870   6.204   6.424   9.798
 3210WAT      O 9871   2.923   9.248   3.406
 3210WAT     H1 9872   3.008   9.196   3.397
 3210WAT     H2 9873   2.944   9.345   3.418
 3211WAT      O 9874   5.138   8.212   8.475
 3211WAT     H1 9875   5.128   8.114   8.457
 3211WAT     H2 9876   5.222   8.245   8.431
 3212WAT      O 9877   0.790   0.578   1.971
 3212WAT     H1 9878   0.880   0.547   2.001
 3212WAT     H2 9879   0.731   0.593   2.051
 3213WAT      O 9880   1.615   1.860   0.350
 3213WAT     H1 9881   1.698   1.888   0.301
 3213WAT     H2 9882   1.557   1.805   0.290
 3214WAT      O 9883   1.239   2.838   6.403
 3214WAT     H1 9884   1.170   2.771   6.374
 3214WAT     H2 9885   1.237   2.848   6.502
 3215WAT      O 9886   8.516   7.517   1.669
 3215WAT     H1 9887   8.582   7.553   1.603
 3215WAT     H2 9888   8.536   7.553   1.760
 3216WAT      O 9889   4.765   8.734   8.401
 3216WAT     H1 9890   4.665   8.735   8.395
 3216WAT     H2 9891   4.799   8.827   8.416
 3217WAT      O 9892   2.168   0.466   1.606
 3217WAT     H1 9893   2.207   0.387   1.654
 3217WAT     H2 9894   2.119   0.524   1.671
 3218WAT      O 9895   6.548   0.849   6.714
 3218WAT     H1 9896   6.622   0.851   6.782
 3218WAT     H2 9897   6.572   0.784   6.642
 3219WAT      O 9898   2.885   2.773   6.797
 3219WAT     H1 9899   2.897   2.674   6.807
 3219WAT     H2 9900   2.961   2.821   6.842
 3220WAT      O 9901   9.462   4.072   0.596
 3220WAT     H1 9902   9.444   4.064   0.498
 3220WAT     H2 9903   9.421   3.994   0.644
 3221WAT      O 9904   6.522   2.830   9.235
 3221WAT     H1 9905   6.542   2.839   9.333
 3221WAT     H2 9906   6.475   2.743   9.219
 3222WAT      O 9907   8.353   0.247   7.006
 3222WAT     H1 9908   8.380   0.154   6.981
 3222WAT     H2 9909   8.254   0.251   7.015
 3223WAT      O 9910   9.805   3.178   7.274
 3223WAT     H1 9911   9.796   3.123   7.191
 3223WAT     H2 9912   9.779   3.273   7.255
 3224WAT      O 9913   8.539   4.450   1.544
 3224WAT     H1 9914   8.552   4.439   1.643
 3224WAT     H2 9915   8.563   4.364   1.498
 3225WAT      O 9916   3.214   5.604   5.220
 3225WAT     H1 9917   3.243   5.512   5.247
 3225WAT     H2 9918   3.240   5.621   5.125
 3226WAT      O 9919   6.836   0.964   3.812
 3226WAT     H1 9920   6.926   0.955   3.854
 3226WAT     H2 9921   6.788   1.041   3.854
 3227WAT      O 9922   8.793   4.263   0.926
 3227WAT     H1 9923   8.798   4.170   0.890
 3227WAT     H2 9924   8.794   4.260   1.026
 3228WAT      O 9925   6.439   3.100   1.509
 3228WAT     H1 9926   6.514   3.111   1.573
 3228WAT     H2 9927   6.412   3.189   1.473
 3229WAT      O 9928   5.658   2.037   3.292
 3229WAT     H1 9929   5.643   2.132   3.319
 3229WAT     H2 9930   5.697   2.034   3.200
 3230WAT      O 9931   3.632   9.617   3.338
 3230WAT     H1 9932   3.534   9.626   3.353
 3230WAT     H2 9933   3.649   9.564   3.255
 3231WAT      O 9934   4.509   5.676   4.015
 3231WAT     H1 9935   4.528   5.583   3.985
 3231WAT     H2 9936   4.418   5.703   3.984
 3232WAT      O 9937   7.086   1.649   2.553
 3232WAT     H1 9938   7.059   1.553   2.560
 3232WAT     H2 9939   7.015   1.699   2.503
 3233WAT      O 9940   7.233   7.881   8.984
 3233WAT     H1 9941   7.149   7.930   8.961
 3233WAT     H2 9942   7.312   7.935   8.955
 3234WAT      O 9943   8.445   7.525   0.718
 3234WAT     H1 9944   8.449   7.540   0.620
 3234WAT     H2 9945   8.504   7.447   0.742
 3235WAT      O 9946   0.072   5.368   0.176
 3235WAT     H1 9947  -0.001   5.420   0.132
 3235WAT     H2 9948   0.037   5.277   0.201
 3236WAT      O 9949   4.993   9.265   8.630
 3236WAT     H1 9950   5.043   9.313   8.557
 3236WAT     H2 9951   4.947   9.185   8.591
 3237WAT      O 9952   5.663   1.135   7.934
 3237WAT     H1 9953   5.586   1.176   7.885
 3237WAT     H2 9954   5.722   1.208   7.968
 3238WAT      O 9955   6.188   1.257   1.798
 3238WAT     H1 9956   6.282   1.289   1.809
 3238WAT     H2 9957   6.145   1.307   1.723
 3239WAT      O 9958   6.554   7.775   7.273
 3239WAT     H1 9959   6.624   7.841   7.244
 3239WAT     H2 9960   6.510   7.809   7.356
 3240WAT      O 9961   2.234   0.207   8.305
 3240WAT     H1 9962   2.268   0.114   8.293
 3240WAT     H2 9963   2.199   0.218   8.398
 3241WAT      O 9964   3.397   8.251   4.892
 3241WAT     H1 9965   3.345   8.210   4.817
 3241WAT     H2 9966   3.393   8.192   4.972
 3242WAT      O 9967   2.269   2.504   7.844
 3242WAT     H1 9968   2.367   2.521   7.836
 3242WAT     H2 9969   2.245   2.423   7.791
 3243WAT      O 9970   5.682   2.041   8.544
 3243WAT     H1 9971   5.755   2.102   8.573
 3243WAT     H2 9972   5.705   2.001   8.455
 3244WAT      O 9973   3.979   4.809   1.835
 3244WAT     H1 9974   4.048   4.742   1.810
 3244WAT     H2 9975   4.021   4.899   1.844
 3245WAT      O 9976   8.981   6.521   9.447
 3245WAT     H1 9977   8.938   6.583   9.381
 3245WAT     H2 9978   9.067   6.561   9.479
 3246WAT      O 9979   3.301   7.632   2.274
 3246WAT     H1 9980   3.313   7.535   2.296
 3246WAT     H2 9981   3.341   7.651   2.184
 3247WAT      O 9982   8.004   8.253   6.918
 3247WAT     H1 9983   7.997   8.159   6.951
 3247WAT     H2 9984   8.055   8.255   6.832
 3248WAT      O 9985   7.894   9.391   4.888
 3248WAT     H1 9986   7.931   9.384   4.796
 3248WAT     H2 9987   7.882   9.299   4.926
 3249WAT      O 9988   9.182   3.072   0.412
 3249WAT     H1 9989   9.226   3.029   0.491
 3249WAT     H2 9990   9.187   3.172   0.421
 3250WAT      O 9991   2.232   8.853   2.748
 3250WAT     H1 9992   2.298   8.927   2.758
 3250WAT     H2 9993   2.148   8.875   2.798
 3251WAT      O 9994   4.357   1.757   3.362
 3251WAT     H1 9995   4.326   1.852   3.351
 3251WAT     H2 9996   4.288   1.705   3.412
 3252WAT      O 9997   1.856   2.395   1.840
 3252WAT     H1 9998   1.844   2.438   1.751
 3252WAT     H2 9999   1.798   2.440   1.907
 3253WAT      O10000   2.623   8.550   8.814
 3253WAT     H110001   2.559   8.580   8.885
 3253WAT     H210002   2.681   8.627   8.786
 3254WAT      O10003   1.050   1.232   2.528
 3254WAT     H110004   0.993   1.226   2.611
 3254WAT     H210005   1.086   1.141   2.506
 3255WAT      O10006   3.063   4.572   6.626
 3255WAT     H110007   3.091   4.479   6.604
 3255WAT     H210008   3.136   4.617   6.678
 3256WAT      O10009   8.459   7.458   6.268
 3256WAT     H110010   8.372   7.454   6.317
 3256WAT     H210011   8.511   7.374   6.287
 3257WAT      O10012   4.571   5.909   3.522
 3257WAT     H110013   4.619   5.989   3.487
 3257WAT     H210014   4.598   5.828   3.470
 3258WAT      O10015   8.422   9.513   2.349
 3258WAT     H110016   8.488   9.581   2.318
 3258WAT     H210017   8.463   9.422   2.343
 3259WAT      O10018   6.702   8.963   4.476
 3259WAT     H110019   6.715   9.037   4.410
 3259WAT     H210020   6.641   8.894   4.438
 3260WAT      O10021   3.123   5.912   1.324
 3260WAT     H110022   3.160   5.820   1.316
 3260WAT     H210023   3.042   5.921   1.266
 3261WAT      O10024   2.101   4.543   1.492
 3261WAT     H110025   2.095   4.553   1.393
 3261WAT     H210026   2.014   4.571   1.533
 3262WAT      O10027   4.059   0.806   2.285
 3262WAT     H110028   4.068   0.837   2.190
 3262WAT     H210029   4.114   0.863   2.345
 3263WAT      O10030   9.812   0.729   9.750
 3263WAT     H110031   9.760   0.766   9.826
 3263WAT     H210032   9.752   0.712   9.672
 3264WAT      O10033   1.302   2.943   8.250
 3264WAT     H110034   1.332   3.038   8.253
 3264WAT     H210035   1.210   2.937   8.289
 3265WAT      O10036   7.585   9.006   8.380
 3265WAT     H110037   7.673   9.048   8.404
 3265WAT     H210038   7.596   8.950   8.298
 3266WAT      O10039   2.648   2.371   5.588
 3266WAT     H110040   2.708   2.417   5.653
 3266WAT     H210041   2.692   2.287   5.556
 3267WAT      O10042   2.348   0.838   6.868
 3267WAT     H110043   2.262   0.820   6.821
 3267WAT     H210044   2.353   0.781   6.950
 3268WAT      O10045   0.633   2.559   2.689
 3268WAT     H110046   0.697   2.527   2.759
 3268WAT     H210047   0.583   2.481   2.650
 3269WAT      O10048   0.799   6.088   1.142
 3269WAT     H110049   0.739   6.152   1.191
 3269WAT     H210050   0.774   5.994   1.167
 3270WAT      O10051   9.204   2.980   1.128
 3270WAT     H110052   9.279   2.914   1.123
 3270WAT     H210053   9.169   2.997   1.037
 3271WAT      O10054   3.914   0.651   9.300
 3271WAT     H110055   3.829   0.602   9.317
 3271WAT     H210056   3.976   0.637   9.378
 3272WAT      O10057   7.704   1.816   0.548
 3272WAT     H110058   7.614   1.782   0.522
 3272WAT     H210059   7.703   1.916   0.547
 3273WAT      O10060   8.491   4.158   2.433
 3273WAT     H110061   8.444   4.140   2.519
 3273WAT     H210062   8.517   4.072   2.390
 3274WAT      O10063   4.604   8.506   6.655
 3274WAT     H110064   4.540   8.469   6.587
 3274WAT     H210065   4.679   8.441   6.668
 3275WAT      O10066   3.446   9.729   8.258
 3275WAT     H110067   3.421   9.669   8.182
 3275WAT     H210068   3.543   9.718   8.279
 3276WAT      O10069   1.794   9.696   8.131
 3276WAT     H110070   1.704   9.679   8.170
 3276WAT     H210071   1.804   9.794   8.113
 3277WAT      O10072   1.682   6.885   9.824
 3277WAT     H110073   1.627   6.801   9.829
 3277WAT     H210074   1.633   6.954   9.772
 3278WAT      O10075   1.396   4.820   1.542
 3278WAT     H110076   1.391   4.721   1.534
 3278WAT     H210077   1.394   4.846   1.638
 3279WAT      O10078   8.541   5.263   8.397
 3279WAT     H110079   8.624   5.289   8.347
 3279WAT     H210080   8.473   5.335   8.387
 3280WAT      O10081   9.670   0.835   0.065
 3280WAT     H110082   9.703   0.921   0.105
 3280WAT     H210083   9.604   0.792   0.126
 3281WAT      O10084   8.854   7.168   6.006
 3281WAT     H110085   8.859   7.235   5.932
 3281WAT     H210086   8.824   7.213   6.090
 3282WAT      O10087   2.297   7.685   2.566
 3282WAT     H110088   2.333   7.621   2.498
 3282WAT     H210089   2.197   7.690   2.558
 3283WAT      O10090   9.049   9.175   0.329
 3283WAT     H110091   9.130   9.121   0.308
 3283WAT     H210092   9.021   9.226   0.247
 3284WAT      O10093   7.198   1.882   1.808
 3284WAT     H110094   7.152   1.821   1.872
 3284WAT     H210095   7.262   1.941   1.858
 3285WAT      O10096   7.091   2.459   6.579
 3285WAT     H110097   7.184   2.452   6.616
 3285WAT     H210098   7.092   2.431   6.483
 3286WAT      O10099   3.468   2.434   2.484
 3286WAT     H110100   3.483   2.461   2.579
 3286WAT     H210101   3.494   2.509   2.423
 3287WAT      O10102   8.328   1.696   0.670
 3287WAT     H110103   8.238   1.664   0.642
 3287WAT     H210104   8.344   1.788   0.635
 3288WAT      O10105   6.172   6.033   7.462
 3288WAT     H110106   6.179   6.103   7.533
 3288WAT     H210107   6.147   5.945   7.503
 3289WAT      O10108   8.918   8.106   8.611
 3289WAT     H110109   8.830   8.068   8.581
 3289WAT     H210110   8.938   8.189   8.558
 3290WAT      O10111   8.960   2.566   4.833
 3290WAT     H110112   8.865   2.545   4.813
 3290WAT     H210113   9.010   2.481   4.852
 3291WAT      O10114   8.279   3.309   1.384
 3291WAT     H110115   8.197   3.282   1.334
 3291WAT     H210116   8.272   3.405   1.412
 3292WAT      O10117   6.038   9.842   2.588
 3292WAT     H110118   6.096   9.827   2.668
 3292WAT     H210119   6.090   9.890   2.518
 3293WAT      O10120   3.296   6.487   7.181
 3293WAT     H110121   3.243   6.420   7.233
 3293WAT     H210122   3.369   6.524   7.238
 3294WAT      O10123   0.704   0.322   3.419
 3294WAT     H110124   0.638   0.257   3.382
 3294WAT     H210125   0.797   0.290   3.399
 3295WAT      O10126   6.150   8.191   7.758
 3295WAT     H110127   6.226   8.256   7.769
 3295WAT     H210128   6.104   8.208   7.672
 3296WAT      O10129   9.005   7.899   0.710
 3296WAT     H110130   9.050   7.988   0.700
 3296WAT     H210131   9.046   7.834   0.646
 3297WAT      O10132   2.278   7.819   1.383
 3297WAT     H110133   2.343   7.782   1.449
 3297WAT     H210134   2.304   7.913   1.359
 3298WAT      O10135   1.186   4.114   1.753
 3298WAT     H110136   1.210   4.211   1.759
 3298WAT     H210137   1.265   4.058   1.778
 3299WAT      O10138   7.380   1.293   1.591
 3299WAT     H110139   7.387   1.193   1.594
 3299WAT     H210140   7.287   1.320   1.616
 3300WAT      O10141   8.577   1.474   4.028
 3300WAT     H110142   8.546   1.552   4.082
 3300WAT     H210143   8.602   1.399   4.089
 3301WAT      O10144   1.425   0.999   5.156
 3301WAT     H110145   1.361   0.982   5.082
 3301WAT     H210146   1.387   1.069   5.217
 3302WAT      O10147   6.189   6.184   9.214
 3302WAT     H110148   6.170   6.167   9.117
 3302WAT     H210149   6.255   6.258   9.222
 3303WAT      O10150   5.656   2.044   6.048
 3303WAT     H110151   5.749   2.081   6.042
 3303WAT     H210152   5.654   1.973   6.118
 3304WAT      O10153   2.845   0.418   3.767
 3304WAT     H110154   2.821   0.417   3.670
 3304WAT     H210155   2.762   0.411   3.822
 3305WAT      O10156   3.828   5.413   5.875
 3305WAT     H110157   3.922   5.386   5.900
 3305WAT     H210158   3.831   5.477   5.799
 3306WAT      O10159   9.825   7.957   1.199
 3306WAT     H110160   9.790   7.867   1.225
 3306WAT     H210161   9.825   8.017   1.279
 3307WAT      O10162   6.954   0.629   7.467
 3307WAT     H110163   6.928   0.565   7.539
 3307WAT     H210164   6.873   0.676   7.433
 3308WAT      O10165   2.875   2.966   8.892
 3308WAT     H110166   2.862   2.981   8.794
 3308WAT     H210167   2.859   2.869   8.912
 3309WAT      O10168   7.492   8.561   5.969
 3309WAT     H110169   7.557   8.493   5.939
 3309WAT     H210170   7.485   8.559   6.069
 3310WAT      O10171   7.772   4.547   7.598
 3310WAT     H110172   7.861   4.589   7.618
 3310WAT     H210173   7.786   4.452   7.570
 3311WAT      O10174   1.558   4.253   4.897
 3311WAT     H110175   1.616   4.205   4.831
 3311WAT     H210176   1.471   4.276   4.854
 3312WAT      O10177   6.860   9.544   9.657
 3312WAT     H110178   6.846   9.496   9.744
 3312WAT     H210179   6.948   9.590   9.658
 3313WAT      O10180   0.174   8.191   2.423
 3313WAT     H110181   0.200   8.286   2.436
 3313WAT     H210182   0.254   8.139   2.392
 3314WAT      O10183   0.564   1.049   3.897
 3314WAT     H110184   0.633   0.977   3.903
 3314WAT     H210185   0.515   1.055   3.984
 3315WAT      O10186   8.958   1.533   3.068
 3315WAT     H110187   9.008   1.502   3.149
 3315WAT     H210188   8.860   1.535   3.087
 3316WAT      O10189   3.271   6.923   4.225
 3316WAT     H110190   3.300   7.016   4.203
 3316WAT     H210191   3.349   6.861   4.216
 3317WAT      O10192   3.556   2.116   8.976
 3317WAT     H110193   3.583   2.044   9.039
 3317WAT     H210194   3.631   2.135   8.913
 3318WAT      O10195   0.750   8.510   7.411
 3318WAT     H110196   0.726   8.597   7.368
 3318WAT     H210197   0.670   8.472   7.456
 3319WAT      O10198   7.756   9.242   1.969
 3319WAT     H110199   7.663   9.226   1.936
 3319WAT     H210200   7.754   9.274   2.063
 3320WAT      O10201   5.210   7.325   6.417
 3320WAT     H110202   5.177   7.246   6.365
 3320WAT     H210203   5.308   7.314   6.435
 3321WAT      O10204   3.198   9.466   8.673
 3321WAT     H110205   3.174   9.371   8.653
 3321WAT     H210206   3.193   9.520   8.589
 3322WAT      O10207   8.838   2.416   3.779
 3322WAT     H110208   8.889   2.350   3.835
 3322WAT     H210209   8.823   2.378   3.688
 3323WAT      O10210   2.321   5.162   5.683
 3323WAT     H110211   2.289   5.236   5.743
 3323WAT     H210212   2.261   5.156   5.603
 3324WAT      O10213   5.326   0.247   6.811
 3324WAT     H110214   5.368   0.206   6.729
 3324WAT     H210215   5.325   0.180   6.885
 3325WAT      O10216   9.013   6.991   5.222
 3325WAT     H110217   8.919   6.969   5.247
 3325WAT     H210218   9.072   6.979   5.302
 3326WAT      O10219   3.450   6.205   3.960
 3326WAT     H110220   3.354   6.195   3.933
 3326WAT     H210221   3.506   6.135   3.915
 3327WAT      O10222   7.187   3.543   0.778
 3327WAT     H110223   7.216   3.490   0.698
 3327WAT     H210224   7.110   3.496   0.823
 3328WAT      O10225   7.925   0.380   8.885
 3328WAT     H110226   7.956   0.340   8.799
 3328WAT     H210227   8.002   0.426   8.930
 3329WAT      O10228   2.177   1.789   9.456
 3329WAT     H110229   2.276   1.780   9.466
 3329WAT     H210230   2.140   1.705   9.416
 3330WAT      O10231   5.770   7.034   9.476
 3330WAT     H110232   5.852   6.984   9.504
 3330WAT     H210233   5.698   6.970   9.452
 3331WAT      O10234   1.148   8.786   4.237
 3331WAT     H110235   1.220   8.783   4.307
 3331WAT     H210236   1.184   8.828   4.154
 3332WAT      O10237   9.405   1.579   0.179
 3332WAT     H110238   9.322   1.618   0.138
 3332WAT     H210239   9.387   1.485   0.206
 3333WAT      O10240   7.512   7.336   8.466
 3333WAT     H110241   7.535   7.239   8.467
 3333WAT     H210242   7.414   7.347   8.454
 3334WAT      O10243   0.075   6.743   1.924
 3334WAT     H110244   0.130   6.825   1.939
 3334WAT     H210245   0.068   6.691   2.008
 3335WAT      O10246   8.884   6.700   9.250
 3335WAT     H110247   8.936   6.768   9.302
 3335WAT     H210248   8.903   6.712   9.153
 3336WAT      O10249   0.173   3.675   9.277
 3336WAT     H110250   0.104   3.614   9.237
 3336WAT     H210251   0.166   3.671   9.377
 3337WAT      O10252   4.748   9.357   4.952
 3337WAT     H110253   4.792   9.429   4.898
 3337WAT     H210254   4.692   9.398   5.024
 3338WAT      O10255   3.838   7.341   0.201
 3338WAT     H110256   3.766   7.409   0.186
 3338WAT     H210257   3.927   7.382   0.178
 3339WAT      O10258   3.963   1.596   6.519
 3339WAT     H110259   3.934   1.507   6.484
 3339WAT     H210260   3.883   1.651   6.542
 3340WAT      O10261   3.417   7.388   2.644
 3340WAT     H110262   3.434   7.485   2.664
 3340WAT     H210263   3.459   7.364   2.557
 3341WAT      O10264   4.081   2.184   5.177
 3341WAT     H110265   4.015   2.116   5.207
 3341WAT     H210266   4.105   2.168   5.081
 3342WAT      O10267   4.684   9.028   8.828
 3342WAT     H110268   4.739   9.069   8.902
 3342WAT     H210269   4.730   8.947   8.794
 3343WAT      O10270   7.651   6.161   3.080
 3343WAT     H110271   7.730   6.104   3.103
 3343WAT     H210272   7.662   6.251   3.124
 3344WAT      O10273   5.735   5.176   9.706
 3344WAT     H110274   5.826   5.194   9.669
 3344WAT     H210275   5.675   5.143   9.633
 3345WAT      O10276   1.559   6.922   2.013
 3345WAT     H110277   1.544   6.852   2.083
 3345WAT     H210278   1.619   6.886   1.942
 3346WAT      O10279   0.724   9.392   9.035
 3346WAT     H110280   0.724   9.416   9.133
 3346WAT     H210281   0.787   9.316   9.020
 3347WAT      O10282   6.243   4.154   3.529
 3347WAT     H110283   6.332   4.164   3.573
 3347WAT     H210284   6.252   4.099   3.447
 3348WAT      O10285   9.540   5.372   3.690
 3348WAT     H110286   9.527   5.353   3.593
 3348WAT     H210287   9.473   5.441   3.719
 3349WAT      O10288   7.235   6.003   4.264
 3349WAT     H110289   7.236   6.087   4.210
 3349WAT     H210290   7.328   5.967   4.273
 3350WAT      O10291   6.504   0.622   0.587
 3350WAT     H110292   6.507   0.568   0.672
 3350WAT     H210293   6.595   0.624   0.546
 3351WAT      O10294   7.146   6.372   6.294
 3351WAT     H110295   7.204   6.451   6.313
 3351WAT     H210296   7.059   6.383   6.343
 3352WAT      O10297   4.688   3.041   7.189
 3352WAT     H110298   4.630   3.090   7.124
 3352WAT     H210299   4.706   2.949   7.155
 3353WAT      O10300   4.870   5.862   9.485
 3353WAT     H110301   4.794   5.900   9.539
 3353WAT     H210302   4.948   5.844   9.544
 3354WAT      O10303   1.796   7.001   0.598
 3354WAT     H110304   1.776   6.974   0.504
 3354WAT     H210305   1.882   7.053   0.600
 3355WAT      O10306   4.019   1.336   3.248
 3355WAT     H110307   4.036   1.312   3.344
 3355WAT     H210308   3.933   1.386   3.242
 3356WAT      O10309   3.492   6.421   4.096
 3356WAT     H110310   3.544   6.403   4.179
 3356WAT     H210311   3.481   6.337   4.044
 3357WAT      O10312   6.261   4.555   8.782
 3357WAT     H110313   6.223   4.631   8.730
 3357WAT     H210314   6.189   4.489   8.804
 3358WAT      O10315   9.302   2.573   3.381
 3358WAT     H110316   9.249   2.615   3.308
 3358WAT     H210317   9.362   2.503   3.342
 3359WAT      O10318   6.858   3.293   2.493
 3359WAT     H110319   6.930   3.227   2.513
 3359WAT     H210320   6.769   3.248   2.501
 3360WAT      O10321   1.548   4.322   9.376
 3360WAT     H110322   1.479   4.394   9.368
 3360WAT     H210323   1.610   4.344   9.452
 3361WAT      O10324   1.018   4.390   9.826
 3361WAT     H110325   1.116   4.373   9.814
 3361WAT     H210326   0.979   4.322   9.888
 3362WAT      O10327   9.477   2.110   4.100
 3362WAT     H110328   9.456   2.167   4.179
 3362WAT     H210329   9.552   2.151   4.048
 3363WAT      O10330   1.660   4.616   1.189
 3363WAT     H110331   1.592   4.592   1.258
 3363WAT     H210332   1.676   4.715   1.191
 3364WAT      O10333   7.274   2.202   1.234
 3364WAT     H110334   7.338   2.209   1.157
 3364WAT     H210335   7.194   2.258   1.215
 3365WAT      O10336   6.598   6.937   0.316
 3365WAT     H110337   6.513   6.964   0.270
 3365WAT     H210338   6.676   6.953   0.256
 3366WAT      O10339   1.717   0.808   7.194
 3366WAT     H110340   1.783   0.818   7.119
 3366WAT     H210341   1.733   0.880   7.261
 3367WAT      O10342   6.861   2.753   4.183
 3367WAT     H110343   6.928   2.680   4.196
 3367WAT     H210344   6.909   2.839   4.164
 3368WAT      O10345   8.185   6.153   6.499
 3368WAT     H110346   8.236   6.216   6.440
 3368WAT     H210347   8.091   6.187   6.509
 3369WAT      O10348   6.959   0.900   3.300
 3369WAT     H110349   6.971   0.900   3.201
 3369WAT     H210350   6.872   0.856   3.323
 3370WAT      O10351   8.711   4.185   9.345
 3370WAT     H110352   8.742   4.138   9.262
 3370WAT     H210353   8.790   4.228   9.390
 3371WAT      O10354   3.466   4.636   0.146
 3371WAT     H110355   3.564   4.618   0.154
 3371WAT     H210356   3.435   4.610   0.054
 3372WAT      O10357   3.838   1.154   6.514
 3372WAT     H110358   3.860   1.110   6.426
 3372WAT     H210359   3.840   1.086   6.587
 3373WAT      O10360   0.033   7.101   2.299
 3373WAT     H110361   0.018   7.191   2.340
 3373WAT     H210362   0.071   7.040   2.368
 3374WAT      O10363   6.147   7.012   7.481
 3374WAT     H110364   6.243   7.003   7.508
 3374WAT     H210365   6.142   7.017   7.381
 3375WAT      O10366   8.462   4.798   4.525
 3375WAT     H110367   8.379   4.818   4.577
 3375WAT     H210368   8.526   4.749   4.583
 3376WAT      O10369   5.471   3.926   9.077
 3376WAT     H110370   5.523   3.872   9.011
 3376WAT     H210371   5.403   3.981   9.028
 3377WAT      O10372   6.567   7.753   5.949
 3377WAT     H110373   6.584   7.841   5.992
 3377WAT     H210374   6.654   7.705   5.938
 3378WAT      O10375   6.520   4.787   1.668
 3378WAT     H110376   6.580   4.751   1.739
 3378WAT     H210377   6.569   4.790   1.581
 3379WAT      O10378   5.849   7.719   6.352
 3379WAT     H110379   5.784   7.645   6.373
 3379WAT     H210380   5.923   7.683   6.295
 3380WAT      O10381   2.935   8.082   5.944
 3380WAT     H110382   2.977   8.078   6.035
 3380WAT     H210383   2.847   8.129   5.950
 3381WAT      O10384   4.627   1.953   3.346
 3381WAT     H110385   4.649   1.856   3.352
 3381WAT     H210386   4.698   2.000   3.293
 3382WAT      O10387   4.584   8.806   5.115
 3382WAT     H110388   4.537   8.737   5.170
 3382WAT     H210389   4.563   8.897   5.151
 3383WAT      O10390   0.975   9.265   6.473
 3383WAT     H110391   0.886   9.307   6.452
 3383WAT     H210392   0.961   9.169   6.498
 3384WAT      O10393   1.754   9.094   7.331
 3384WAT     H110394   1.795   9.042   7.257
 3384WAT     H210395   1.779   9.191   7.321
 3385WAT      O10396   2.429   4.249   8.896
 3385WAT     H110397   2.461   4.344   8.898
 3385WAT     H210398   2.394   4.227   8.805
 3386WAT      O10399   1.879   5.130   3.792
 3386WAT     H110400   1.799   5.189   3.791
 3386WAT     H210401   1.929   5.140   3.705
 3387WAT      O10402   1.720   2.573   2.341
 3387WAT     H110403   1.630   2.592   2.382
 3387WAT     H210404   1.710   2.506   2.267
 3388WAT      O10405   9.491   0.833   8.212
 3388WAT     H110406   9.401   0.852   8.253
 3388WAT     H210407   9.563   0.868   8.272
 3389WAT      O10408   8.868   7.726   9.621
 3389WAT     H110409   8.871   7.634   9.660
 3389WAT     H210410   8.923   7.728   9.537
 3390WAT      O10411   8.921   8.310   3.342
 3390WAT     H110412   8.979   8.266   3.274
 3390WAT     H210413   8.921   8.409   3.327
 3391WAT      O10414   3.396   4.791   1.596
 3391WAT     H110415   3.395   4.865   1.664
 3391WAT     H210416   3.375   4.829   1.506
 3392WAT      O10417   5.305   8.434   7.291
 3392WAT     H110418   5.382   8.376   7.262
 3392WAT     H210419   5.337   8.527   7.305
 3393WAT      O10420   9.137   9.673   8.546
 3393WAT     H110421   9.158   9.702   8.639
 3393WAT     H210422   9.148   9.574   8.538
 3394WAT      O10423   5.931   9.604   2.163
 3394WAT     H110424   6.013   9.659   2.147
 3394WAT     H210425   5.951   9.508   2.146
 3395WAT      O10426   5.467   5.247   9.004
 3395WAT     H110427   5.425   5.272   8.916
 3395WAT     H210428   5.398   5.204   9.062
 3396WAT      O10429   2.625   9.041   9.280
 3396WAT     H110430   2.620   9.000   9.372
 3396WAT     H210431   2.717   9.026   9.243
 3397WAT      O10432   9.153   6.590   9.660
 3397WAT     H110433   9.062   6.631   9.670
 3397WAT     H210434   9.221   6.647   9.708
 3398WAT      O10435   1.931   0.746   6.179
 3398WAT     H110436   1.856   0.810   6.161
 3398WAT     H210437   2.013   0.797   6.206
 3399WAT      O10438   8.347   7.323   7.342
 3399WAT     H110439   8.421   7.388   7.324
 3399WAT     H210440   8.270   7.343   7.280
 3400WAT      O10441   5.984   5.599   0.312
 3400WAT     H110442   5.944   5.660   0.242
 3400WAT     H210443   5.919   5.588   0.387
 3401WAT      O10444   8.792   0.392   6.375
 3401WAT     H110445   8.774   0.490   6.364
 3401WAT     H210446   8.741   0.357   6.453
 3402WAT      O10447   5.631   6.750   2.932
 3402WAT     H110448   5.653   6.658   2.963
 3402WAT     H210449   5.560   6.746   2.862
 3403WAT      O10450   4.587   0.640   3.700
 3403WAT     H110451   4.517   0.640   3.628
 3403WAT     H210452   4.657   0.708   3.678
 3404WAT      O10453   4.081   9.212   0.255
 3404WAT     H110454   4.163   9.236   0.307
 3404WAT     H210455   4.001   9.216   0.315
 3405WAT      O10456   9.161   4.378   7.678
 3405WAT     H110457   9.125   4.464   7.643
 3405WAT     H210458   9.186   4.319   7.601
 3406WAT      O10459   7.552   4.958   2.879
 3406WAT     H110460   7.497   5.025   2.829
 3406WAT     H210461   7.499   4.918   2.953
 3407WAT      O10462   9.317   9.832   5.745
 3407WAT     H110463   9.266   9.781   5.676
 3407WAT     H210464   9.327   9.927   5.715
 3408WAT      O10465   1.418   8.416   2.162
 3408WAT     H110466   1.449   8.323   2.183
 3408WAT     H210467   1.370   8.454   2.241
 3409WAT      O10468   0.565   7.485   2.232
 3409WAT     H110469   0.500   7.418   2.195
 3409WAT     H210470   0.598   7.453   2.321
 3410WAT      O10471   3.490   1.784   5.477
 3410WAT     H110472   3.587   1.767   5.461
 3410WAT     H210473   3.449   1.823   5.394
 3411WAT      O10474   6.294   3.435   3.288
 3411WAT     H110475   6.246   3.426   3.375
 3411WAT     H210476   6.389   3.408   3.300
 3412WAT      O10477   8.825   4.010   0.833
 3412WAT     H110478   8.841   3.979   0.739
 3412WAT     H210479   8.909   4.002   0.886
 3413WAT      O10480   9.580   4.756   5.280
 3413WAT     H110481   9.482   4.770   5.299
 3413WAT     H210482   9.614   4.680   5.334
 3414WAT      O10483   0.934   1.067   2.990
 3414WAT     H110484   0.841   1.071   3.025
 3414WAT     H210485   0.963   0.972   2.981
 3415WAT      O10486   6.528   9.397   6.635
 3415WAT     H110487   6.511   9.299   6.634
 3415WAT     H210488   6.450   9.444   6.677
 3416WAT      O10489   6.710   4.322   8.971
 3416WAT     H110490   6.732   4.359   9.061
 3416WAT     H210491   6.664   4.392   8.916
 3417WAT      O10492   3.825   5.363   2.555
 3417WAT     H110493   3.863   5.309   2.630
 3417WAT     H210494   3.752   5.312   2.511
 3418WAT      O10495   6.100   1.156   6.078
 3418WAT     H110496   6.020   1.216   6.066
 3418WAT     H210497   6.131   1.124   5.989
 3419WAT      O10498   4.271   2.362   3.132
 3419WAT     H110499   4.185   2.329   3.093
 3419WAT     H210500   4.254   2.403   3.221
 3420WAT      O10501   3.921   7.474   5.781
 3420WAT     H110502   3.984   7.513   5.714
 3420WAT     H210503   3.857   7.545   5.811
 3421WAT      O10504   1.092   0.671   4.845
 3421WAT     H110505   1.183   0.711   4.852
 3421WAT     H210506   1.101   0.572   4.831
 3422WAT      O10507   9.882   1.963   7.311
 3422WAT     H110508   9.907   1.891   7.377
 3422WAT     H210509   9.788   1.947   7.279
 3423WAT      O10510   6.420   5.753   2.714
 3423WAT     H110511   6.453   5.796   2.629
 3423WAT     H210512   6.496   5.703   2.757
 3424WAT      O10513   9.239   6.260   2.528
 3424WAT     H110514   9.170   6.331   2.512
 3424WAT     H210515   9.228   6.187   2.461
 3425WAT      O10516   3.376   9.460   0.394
 3425WAT     H110517   3.364   9.413   0.481
 3425WAT     H210518   3.443   9.411   0.338
 3426WAT      O10519   6.141   7.743   0.251
 3426WAT     H110520   6.199   7.665   0.230
 3426WAT     H210521   6.146   7.763   0.349
 3427WAT      O10522   1.056   6.963   6.785
 3427WAT     H110523   1.051   6.889   6.718
 3427WAT     H210524   0.965   6.980   6.824
 3428WAT      O10525   7.730   4.266   4.436
 3428WAT     H110526   7.696   4.218   4.355
 3428WAT     H210527   7.822   4.233   4.458
 3429WAT      O10528   3.536   3.002   4.563
 3429WAT     H110529   3.528   3.100   4.584
 3429WAT     H210530   3.462   2.975   4.501
 3430WAT      O10531   3.454   2.472   3.144
 3430WAT     H110532   3.496   2.434   3.061
 3430WAT     H210533   3.395   2.548   3.120
 3431WAT      O10534   6.522   0.541   2.196
 3431WAT     H110535   6.453   0.578   2.134
 3431WAT     H210536   6.591   0.611   2.216
 3432WAT      O10537   5.043   2.561   1.635
 3432WAT     H110538   5.036   2.539   1.538
 3432WAT     H210539   5.132   2.604   1.653
 3433WAT      O10540   0.086   5.911   4.032
 3433WAT     H110541   0.139   5.892   3.950
 3433WAT     H210542   0.016   5.979   4.012
 3434WAT      O10543   5.187   1.867   1.708
 3434WAT     H110544   5.164   1.858   1.805
 3434WAT     H210545   5.285   1.881   1.698
 3435WAT      O10546   7.596   5.682   9.459
 3435WAT     H110547   7.608   5.731   9.373
 3435WAT     H210548   7.563   5.744   9.529
 3436WAT      O10549   7.849   4.019   2.100
 3436WAT     H110550   7.854   3.926   2.064
 3436WAT     H210551   7.791   4.075   2.040
 3437WAT      O10552   7.034   5.346   6.957
 3437WAT     H110553   7.008   5.355   6.861
 3437WAT     H210554   7.051   5.437   6.996
 3438WAT      O10555   0.300   3.207   1.055
 3438WAT     H110556   0.319   3.279   1.121
 3438WAT     H210557   0.357   3.127   1.073
 3439WAT      O10558   4.405   8.093   2.049
 3439WAT     H110559   4.369   8.042   1.972
 3439WAT     H210560   4.362   8.062   2.134
 3440WAT      O10561   2.306   6.813   7.936
 3440WAT     H110562   2.321   6.726   7.890
 3440WAT     H210563   2.379   6.877   7.912
 3441WAT      O10564   6.967   7.874   4.882
 3441WAT     H110565   6.983   7.819   4.964
 3441WAT     H210566   7.045   7.865   4.820
 3442WAT      O10567   4.295   7.023   9.097
 3442WAT     H110568   4.283   7.056   9.190
 3442WAT     H210569   4.392   7.007   9.079
 3443WAT      O10570   4.715   5.671   4.211
 3443WAT     H110571   4.737   5.768   4.224
 3443WAT     H210572   4.635   5.664   4.151
 3444WAT      O10573   4.042   6.645   1.628
 3444WAT     H110574   3.963   6.704   1.643
 3444WAT     H210575   4.032   6.560   1.680
 3445WAT      O10576   4.076   5.013   1.546
 3445WAT     H110577   4.157   4.975   1.502
 3445WAT     H210578   4.085   5.004   1.645
 3446WAT      O10579   5.053   7.431   9.723
 3446WAT     H110580   5.088   7.457   9.813
 3446WAT     H210581   5.024   7.335   9.724
 3447WAT      O10582   0.108   6.123   5.840
 3447WAT     H110583   0.183   6.127   5.775
 3447WAT     H210584   0.064   6.034   5.835
 3448WAT      O10585   0.195   1.269   8.170
 3448WAT     H110586   0.177   1.213   8.089
 3448WAT     H210587   0.257   1.219   8.231
 3449WAT      O10588   9.446   6.119   3.929
 3449WAT     H110589   9.350   6.140   3.915
 3449WAT     H210590   9.474   6.045   3.867
 3450WAT      O10591   4.870   8.652   5.056
 3450WAT     H110592   4.919   8.646   4.969
 3450WAT     H210593   4.777   8.686   5.039
 3451WAT      O10594   0.172   5.212   8.044
 3451WAT     H110595   0.153   5.131   8.100
 3451WAT     H210596   0.096   5.276   8.050
 3452WAT      O10597   8.855   1.695   6.643
 3452WAT     H110598   8.833   1.723   6.736
 3452WAT     H210599   8.820   1.764   6.579
 3453WAT      O10600   1.768   5.841   8.553
 3453WAT     H110601   1.804   5.783   8.625
 3453WAT     H210602   1.841   5.865   8.489
 3454WAT      O10603   2.898   0.036   0.425
 3454WAT     H110604   2.825  -0.030   0.443
 3454WAT     H210605   2.942   0.060   0.511
 3455WAT      O10606   1.975   9.312   9.833
 3455WAT     H110607   2.049   9.354   9.781
 3455WAT     H210608   1.890   9.362   9.814
 3456WAT      O10609   1.031   3.638   9.473
 3456WAT     H110610   1.094   3.713   9.452
 3456WAT     H210611   0.995   3.600   9.388
 3457WAT      O10612   1.480   1.497   2.047
 3457WAT     H110613   1.579   1.480   2.055
 3457WAT     H210614   1.459   1.527   1.954
 3458WAT      O10615   6.959   0.405   0.384
 3458WAT     H110616   7.020   0.484   0.388
 3458WAT     H210617   6.957   0.358   0.472
 3459WAT      O10618   5.578   8.539   4.630
 3459WAT     H110619   5.538   8.451   4.603
 3459WAT     H210620   5.599   8.538   4.727
 3460WAT      O10621   4.611   6.232   5.911
 3460WAT     H110622   4.560   6.318   5.918
 3460WAT     H210623   4.548   6.155   5.915
 3461WAT      O10624   4.545   0.495   7.304
 3461WAT     H110625   4.453   0.482   7.341
 3461WAT     H210626   4.547   0.462   7.210
 3462WAT      O10627   7.677   5.450   4.327
 3462WAT     H110628   7.601   5.447   4.263
 3462WAT     H210629   7.760   5.480   4.280
 3463WAT      O10630   4.564   3.122   2.487
 3463WAT     H110631   4.591   3.189   2.418
 3463WAT     H210632   4.469   3.137   2.512
 3464WAT      O10633   9.653   1.768   7.522
 3464WAT     H110634   9.751   1.772   7.537
 3464WAT     H210635   9.605   1.803   7.603
 3465WAT      O10636   5.387   4.106   1.315
 3465WAT     H110637   5.341   4.195   1.316
 3465WAT     H210638   5.364   4.058   1.230
 3466WAT      O10639   2.429   3.932   8.425
 3466WAT     H110640   2.462   3.881   8.346
 3466WAT     H210641   2.453   3.882   8.509
 3467WAT      O10642   9.205   5.735   0.263
 3467WAT     H110643   9.115   5.695   0.278
 3467WAT     H210644   9.275   5.664   0.272
 3468WAT      O10645   5.933   2.198   3.879
 3468WAT     H110646   5.953   2.100   3.886
 3468WAT     H210647   6.007   2.250   3.922
 3469WAT      O10648   7.003   5.947   6.818
 3469WAT     H110649   7.009   5.961   6.720
 3469WAT     H210650   7.085   5.985   6.862
 3470WAT      O10651   4.583   1.256   9.731
 3470WAT     H110652   4.508   1.307   9.689
 3470WAT     H210653   4.624   1.194   9.663
 3471WAT      O10654   5.057   2.527   5.578
 3471WAT     H110655   5.123   2.538   5.653
 3471WAT     H210656   5.098   2.470   5.507
 3472WAT      O10657   1.378   7.219   1.695
 3472WAT     H110658   1.367   7.250   1.600
 3472WAT     H210659   1.378   7.119   1.697
 3473WAT      O10660   5.949   6.008   0.975
 3473WAT     H110661   5.935   6.003   0.876
 3473WAT     H210662   5.922   5.921   1.017
 3474WAT      O10663   5.939   3.591   7.570
 3474WAT     H110664   5.870   3.644   7.520
 3474WAT     H210665   6.021   3.647   7.581
 3475WAT      O10666   9.822   1.527   6.921
 3475WAT     H110667   9.824   1.540   7.020
 3475WAT     H210668   9.794   1.612   6.876
 3476WAT      O10669   4.982   9.465   0.513
 3476WAT     H110670   4.934   9.473   0.601
 3476WAT     H210671   4.928   9.409   0.451
 3477WAT      O10672   6.110   8.282   0.778
 3477WAT     H110673   6.134   8.193   0.818
 3477WAT     H210674   6.170   8.352   0.815
 3478WAT      O10675   1.393   6.338   2.523
 3478WAT     H110676   1.413   6.246   2.490
 3478WAT     H210677   1.449   6.404   2.473
 3479WAT      O10678   3.762   7.665   8.251
 3479WAT     H110679   3.797   7.689   8.342
 3479WAT     H210680   3.816   7.589   8.214
 3480WAT      O10681   3.909   1.225   1.106
 3480WAT     H110682   3.953   1.142   1.139
 3480WAT     H210683   3.811   1.219   1.121
 3481WAT      O10684   9.505   0.395   0.403
 3481WAT     H110685   9.552   0.362   0.485
 3481WAT     H210686   9.572   0.438   0.342
 3482WAT      O10687   2.366   4.789   8.699
 3482WAT     H110688   2.457   4.809   8.662
 3482WAT     H210689   2.358   4.829   8.790
 3483WAT      O10690   0.277   6.245   6.041
 3483WAT     H110691   0.193   6.209   6.000
 3483WAT     H210692   0.333   6.170   6.075
 3484WAT      O10693   6.318   6.930   2.167
 3484WAT     H110694   6.331   6.967   2.259
 3484WAT     H210695   6.350   6.836   2.164
 3485WAT      O10696   2.857   3.544   7.605
 3485WAT     H110697   2.892   3.498   7.524
 3485WAT     H210698   2.847   3.642   7.586
 3486WAT      O10699   3.256   8.052   1.563
 3486WAT     H110700   3.197   8.121   1.520
 3486WAT     H210701   3.200   7.992   1.620
 3487WAT      O10702   8.473   9.419   1.713
 3487WAT     H110703   8.512   9.437   1.802
 3487WAT     H210704   8.525   9.467   1.642
 3488WAT      O10705   0.686   4.411   0.845
 3488WAT     H110706   0.676   4.484   0.913
 3488WAT     H210707   0.771   4.424   0.795
 3489WAT      O10708   2.831   8.493   0.890
 3489WAT     H110709   2.808   8.396   0.888
 3489WAT     H210710   2.774   8.542   0.823
 3490WAT      O10711   3.704   6.485   7.679
 3490WAT     H110712   3.658   6.493   7.768
 3490WAT     H210713   3.703   6.574   7.634
 3491WAT      O10714   1.320   9.378   4.696
 3491WAT     H110715   1.368   9.291   4.705
 3491WAT     H210716   1.294   9.393   4.601
 3492WAT      O10717   8.380   1.287   2.972
 3492WAT     H110718   8.403   1.316   2.879
 3492WAT     H210719   8.362   1.368   3.028
 3493WAT      O10720   1.448   2.817   5.059
 3493WAT     H110721   1.445   2.916   5.069
 3493WAT     H210722   1.539   2.789   5.028
 3494WAT      O10723   6.037   0.307   1.938
 3494WAT     H110724   5.954   0.347   1.899
 3494WAT     H210725   6.081   0.374   1.999
 3495WAT      O10726   7.119   5.594   1.598
 3495WAT     H110727   7.213   5.569   1.620
 3495WAT     H210728   7.056   5.529   1.640
 3496WAT      O10729   6.242   8.210   3.338
 3496WAT     H110730   6.222   8.117   3.308
 3496WAT     H210731   6.161   8.268   3.323
 3497WAT      O10732   9.114   6.601   3.408
 3497WAT     H110733   9.140   6.684   3.357
 3497WAT     H210734   9.107   6.622   3.505
 3498WAT      O10735   5.504   2.378   5.072
 3498WAT     H110736   5.549   2.429   4.998
 3498WAT     H210737   5.407   2.401   5.073
 3499WAT      O10738   4.936   3.764   5.374
 3499WAT     H110739   4.845   3.779   5.412
 3499WAT     H210740   4.945   3.669   5.344
 3500WAT      O10741   2.256   0.832   5.465
 3500WAT     H110742   2.262   0.741   5.423
 3500WAT     H210743   2.334   0.887   5.434
 3501WAT      O10744   4.762   7.817   6.781
 3501WAT     H110745   4.714   7.899   6.749
 3501WAT     H210746   4.819   7.841   6.860
 3502WAT      O10747   2.435   0.574   9.064
 3502WAT     H110748   2.511   0.602   9.122
 3502WAT     H210749   2.450   0.607   8.970
 3503WAT      O10750   0.588   0.896   6.716
 3503WAT     H110751   0.653   0.969   6.735
 3503WAT     H210752   0.555   0.857   6.802
 3504WAT      O10753   8.895   2.103   6.689
 3504WAT     H110754   8.805   2.106   6.732
 3504WAT     H210755   8.907   2.015   6.643
 3505WAT      O10756   3.401   1.034   1.462
 3505WAT     H110757   3.330   0.990   1.408
 3505WAT     H210758   3.399   0.998   1.556
 3506WAT      O10759   2.909   1.800   9.673
 3506WAT     H110760   2.956   1.768   9.755
 3506WAT     H210761   2.971   1.858   9.620
 3507WAT      O10762   7.314   4.675   5.023
 3507WAT     H110763   7.290   4.717   4.936
 3507WAT     H210764   7.251   4.600   5.042
 3508WAT      O10765   4.065   5.487   8.828
 3508WAT     H110766   4.025   5.549   8.895
 3508WAT     H210767   4.009   5.486   8.745
 3509WAT      O10768   8.675   0.565   1.705
 3509WAT     H110769   8.649   0.473   1.733
 3509WAT     H210770   8.628   0.631   1.763
 3510WAT      O10771   4.879   8.814   8.799
 3510WAT     H110772   4.970   8.845   8.771
 3510WAT     H210773   4.869   8.827   8.898
 3511WAT      O10774   2.838   0.588   9.000
 3511WAT     H110775   2.814   0.611   8.906
 3511WAT     H210776   2.757   0.595   9.058
 3512WAT      O10777   3.445   8.978   3.382
 3512WAT     H110778   3.448   8.886   3.344
 3512WAT     H210779   3.356   9.019   3.364
 3513WAT      O10780   6.591   8.336   7.031
 3513WAT     H110781   6.509   8.278   7.032
 3513WAT     H210782   6.635   8.329   6.941
 3514WAT      O10783   7.300   9.798   8.279
 3514WAT     H110784   7.288   9.856   8.359
 3514WAT     H210785   7.397   9.773   8.269
 3515WAT      O10786   8.041   4.002   2.314
 3515WAT     H110787   8.074   4.081   2.365
 3515WAT     H210788   7.976   4.033   2.244
 3516WAT      O10789   7.632   1.008   7.493
 3516WAT     H110790   7.560   0.965   7.547
 3516WAT     H210791   7.642   1.104   7.522
 3517WAT      O10792   2.137   0.400   4.404
 3517WAT     H110793   2.109   0.439   4.316
 3517WAT     H210794   2.056   0.391   4.463
 3518WAT      O10795   7.825   0.658   3.313
 3518WAT     H110796   7.898   0.593   3.292
 3518WAT     H210797   7.863   0.734   3.366
 3519WAT      O10798   8.813   7.224   8.494
 3519WAT     H110799   8.913   7.234   8.496
 3519WAT     H210800   8.774   7.294   8.435
 3520WAT      O10801   4.348   7.250   1.425
 3520WAT     H110802   4.425   7.313   1.437
 3520WAT     H210803   4.363   7.167   1.478
 3521WAT      O10804   3.251   4.097   9.653
 3521WAT     H110805   3.317   4.160   9.693
 3521WAT     H210806   3.288   4.058   9.569
 3522WAT      O10807   4.962   1.914   4.022
 3522WAT     H110808   4.874   1.875   3.996
 3522WAT     H210809   5.021   1.921   3.941
 3523WAT      O10810   5.094   3.950   3.403
 3523WAT     H110811   5.180   3.974   3.359
 3523WAT     H210812   5.104   3.863   3.452
 3524WAT      O10813   5.929   9.390   3.496
 3524WAT     H110814   5.994   9.425   3.429
 3524WAT     H210815   5.836   9.413   3.467
 3525WAT      O10816   2.939   9.546   5.513
 3525WAT     H110817   2.906   9.527   5.606
 3525WAT     H210818   3.006   9.476   5.487
 3526WAT      O10819   6.881   4.333   3.536
 3526WAT     H110820   6.850   4.351   3.629
 3526WAT     H210821   6.980   4.318   3.536
 3527WAT      O10822   2.596   5.040   4.389
 3527WAT     H110823   2.585   5.030   4.487
 3527WAT     H210824   2.692   5.029   4.365
 3528WAT      O10825   2.013   3.348   3.436
 3528WAT     H110826   2.103   3.340   3.479
 3528WAT     H210827   2.025   3.378   3.341
 3529WAT      O10828   4.531   3.932   1.781
 3529WAT     H110829   4.529   3.892   1.690
 3529WAT     H210830   4.597   4.007   1.784
 3530WAT      O10831   6.832   2.247   7.206
 3530WAT     H110832   6.793   2.283   7.291
 3530WAT     H210833   6.919   2.203   7.224
 3531WAT      O10834   3.132   0.404   3.135
 3531WAT     H110835   3.210   0.383   3.195
 3531WAT     H210836   3.158   0.478   3.072
 3532WAT      O10837   1.969   9.626   9.035
 3532WAT     H110838   2.025   9.668   9.107
 3532WAT     H210839   2.005   9.536   9.012
 3533WAT      O10840   7.998   4.827   9.070
 3533WAT     H110841   7.992   4.920   9.035
 3533WAT     H210842   8.031   4.828   9.164
 3534WAT      O10843   0.064   2.755   1.089
 3534WAT     H110844   0.129   2.752   1.013
 3534WAT     H210845   0.081   2.679   1.151
 3535WAT      O10846   6.517   7.710   6.294
 3535WAT     H110847   6.612   7.738   6.278
 3535WAT     H210848   6.477   7.767   6.366
 3536WAT      O10849   9.713   7.141   3.008
 3536WAT     H110850   9.750   7.220   2.959
 3536WAT     H210851   9.615   7.132   2.988
 3537WAT      O10852   7.470   1.908   1.498
 3537WAT     H110853   7.545   1.945   1.552
 3537WAT     H210854   7.436   1.824   1.541
 3538WAT      O10855   2.117   1.132   9.387
 3538WAT     H110856   2.049   1.165   9.452
 3538WAT     H210857   2.074   1.121   9.297
 3539WAT      O10858   1.386   1.698   2.785
 3539WAT     H110859   1.475   1.681   2.743
 3539WAT     H210860   1.316   1.646   2.735
 3540WAT      O10861   8.464   6.090   6.112
 3540WAT     H110862   8.415   6.038   6.041
 3540WAT     H210863   8.403   6.159   6.150
 3541WAT      O10864   8.994   6.642   0.147
 3541WAT     H110865   8.995   6.635   0.247
 3541WAT     H210866   8.929   6.712   0.119
 3542WAT      O10867   7.703   2.282   1.687
 3542WAT     H110868   7.724   2.378   1.706
 3542WAT     H210869   7.626   2.252   1.743
 3543WAT      O10870   0.922   6.143   5.203
 3543WAT     H110871   0.884   6.054   5.178
 3543WAT     H210872   0.868   6.183   5.277
 3544WAT      O10873   4.336   5.081   7.999
 3544WAT     H110874   4.373   5.174   8.006
 3544WAT     H210875   4.387   5.021   8.061
 3545WAT      O10876   8.477   4.073   0.569
 3545WAT     H110877   8.528   4.136   0.510
 3545WAT     H210878   8.478   4.106   0.663
 3546WAT      O10879   7.320   2.710   1.234
 3546WAT     H110880   7.316   2.619   1.275
 3546WAT     H210881   7.393   2.712   1.165
 3547WAT      O10882   4.831   9.810   7.177
 3547WAT     H110883   4.835   9.711   7.163
 3547WAT     H210884   4.852   9.857   7.091
 3548WAT      O10885   2.351   6.027   8.685
 3548WAT     H110886   2.371   5.931   8.669
 3548WAT     H210887   2.436   6.079   8.692
 3549WAT      O10888   5.682   9.700   0.930
 3549WAT     H110889   5.616   9.627   0.950
 3549WAT     H210890   5.760   9.662   0.882
 3550WAT      O10891   8.246   3.566   0.784
 3550WAT     H110892   8.280   3.503   0.714
 3550WAT     H210893   8.224   3.516   0.867
 3551WAT      O10894   9.789   5.688   5.350
 3551WAT     H110895   9.800   5.629   5.431
 3551WAT     H210896   9.858   5.759   5.352
 3552WAT      O10897   0.835   0.010   3.649
 3552WAT     H110898   0.768  -0.062   3.670
 3552WAT     H210899   0.911  -0.029   3.597
 3553WAT      O10900   8.828   7.968   3.007
 3553WAT     H110901   8.749   8.024   2.984
 3553WAT     H210902   8.909   8.002   2.959
 3554WAT      O10903   5.258   3.025   0.228
 3554WAT     H110904   5.197   3.103   0.243
 3554WAT     H210905   5.258   3.001   0.131
 3555WAT      O10906   6.750   2.021   9.537
 3555WAT     H110907   6.722   1.925   9.531
 3555WAT     H210908   6.843   2.031   9.500
 3556WAT      O10909   6.154   7.078   9.657
 3556WAT     H110910   6.230   7.116   9.604
 3556WAT     H210911   6.190   7.036   9.740
 3557WAT      O10912   4.849   2.489   7.628
 3557WAT     H110913   4.860   2.566   7.691
 3557WAT     H210914   4.834   2.523   7.535
 3558WAT      O10915   4.104   0.693   7.591
 3558WAT     H110916   4.197   0.697   7.555
 3558WAT     H210917   4.095   0.613   7.649
 3559WAT      O10918   4.797   0.173   3.790
 3559WAT     H110919   4.717   0.117   3.811
 3559WAT     H210920   4.776   0.234   3.714
 3560WAT      O10921   6.965   4.043   7.680
 3560WAT     H110922   6.941   4.069   7.773
 3560WAT     H210923   6.916   4.102   7.615
 3561WAT      O10924   9.433   4.689   3.152
 3561WAT     H110925   9.399   4.605   3.194
 3561WAT     H210926   9.498   4.666   3.080
 3562WAT      O10927   4.663   1.318   1.469
 3562WAT     H110928   4.670   1.416   1.456
 3562WAT     H210929   4.568   1.293   1.487
 3563WAT      O10930   7.285   3.070   7.712
 3563WAT     H110931   7.347   3.100   7.639
 3563WAT     H210932   7.338   3.040   7.791
 3564WAT      O10933   4.756   0.560   1.688
 3564WAT     H110934   4.700   0.634   1.651
 3564WAT     H210935   4.839   0.550   1.634
 3565WAT      O10936   1.719   1.049   6.925
 3565WAT     H110937   1.716   0.949   6.933
 3565WAT     H210938   1.626   1.085   6.927
 3566WAT      O10939   2.698   0.760   4.834
 3566WAT     H110940   2.615   0.721   4.792
 3566WAT     H210941   2.753   0.686   4.872
 3567WAT      O10942   6.744   2.682   0.466
 3567WAT     H110943   6.727   2.617   0.540
 3567WAT     H210944   6.733   2.775   0.501
 3568WAT      O10945   8.933   3.583   2.882
 3568WAT     H110946   8.985   3.525   2.944
 3568WAT     H210947   8.990   3.660   2.853
 3569WAT      O10948   9.861   7.067   2.772
 3569WAT     H110949   9.858   7.016   2.687
 3569WAT     H210950   9.781   7.127   2.778
 3570WAT      O10951   1.839   8.930   9.367
 3570WAT     H110952   1.816   8.905   9.273
 3570WAT     H210953   1.863   8.848   9.418
 3571WAT      O10954   5.138   2.704   6.792
 3571WAT     H110955   5.154   2.606   6.797
 3571WAT     H210956   5.226   2.752   6.781
 3572WAT      O10957   5.258   7.592   6.351
 3572WAT     H110958   5.322   7.604   6.427
 3572WAT     H210959   5.223   7.498   6.351
 3573WAT      O10960   1.649   2.111   7.411
 3573WAT     H110961   1.689   2.024   7.441
 3573WAT     H210962   1.678   2.130   7.317
 3574WAT      O10963   7.921   5.635   8.290
 3574WAT     H110964   7.961   5.724   8.314
 3574WAT     H210965   7.882   5.641   8.198
 3575WAT      O10966   6.877   8.251   1.356
 3575WAT     H110967   6.808   8.321   1.340
 3575WAT     H210968   6.848   8.193   1.432
 3576WAT      O10969   7.302   0.099   9.140
 3576WAT     H110970   7.223   0.155   9.113
 3576WAT     H210971   7.272   0.004   9.150
 3577WAT      O10972   5.645   2.488   0.484
 3577WAT     H110973   5.673   2.578   0.518
 3577WAT     H210974   5.550   2.470   0.512
 3578WAT      O10975   3.511   0.244   7.206
 3578WAT     H110976   3.420   0.285   7.202
 3578WAT     H210977   3.560   0.277   7.286
 3579WAT      O10978   9.785   7.562   6.957
 3579WAT     H110979   9.815   7.658   6.964
 3579WAT     H210980   9.722   7.542   7.032
 3580WAT      O10981   2.771   8.477   9.774
 3580WAT     H110982   2.770   8.509   9.869
 3580WAT     H210983   2.861   8.496   9.733
 3581WAT      O10984   4.092   3.868   6.629
 3581WAT     H110985   4.021   3.872   6.558
 3581WAT     H210986   4.094   3.776   6.669
 3582WAT      O10987   4.106   2.131   3.553
 3582WAT     H110988   4.083   2.191   3.630
 3582WAT     H210989   4.169   2.178   3.491
 3583WAT      O10990   2.436   6.013   2.934
 3583WAT     H110991   2.515   6.073   2.946
 3583WAT     H210992   2.467   5.918   2.932
 3584WAT      O10993   1.888   7.792   8.011
 3584WAT     H110994   1.981   7.824   8.030
 3584WAT     H210995   1.828   7.870   7.996
 3585WAT      O10996   8.786   3.673   9.077
 3585WAT     H110997   8.717   3.737   9.111
 3585WAT     H210998   8.874   3.692   9.121
 3586WAT      O10999   3.514   3.537   3.805
 3586WAT     H111000   3.521   3.473   3.881
 3586WAT     H211001   3.527   3.631   3.839
 3587WAT      O11002   8.442   9.156   2.100
 3587WAT     H111003   8.490   9.068   2.100
 3587WAT     H211004   8.430   9.187   2.006
 3588WAT      O11005   2.420   1.563   5.606
 3588WAT     H111006   2.423   1.587   5.509
 3588WAT     H211007   2.431   1.464   5.615
 3589WAT      O11008   4.137   5.300   6.205
 3589WAT     H111009   4.203   5.281   6.278
 3589WAT     H211010   4.046   5.313   6.245
 3590WAT      O11011   1.439   7.668   5.867
 3590WAT     H111012   1.442   7.569   5.869
 3590WAT     H211013   1.355   7.698   5.820
 3591WAT      O11014   7.806   6.435   9.596
 3591WAT     H111015   7.800   6.458   9.693
 3591WAT     H211016   7.893   6.388   9.577
 3592WAT      O11017   5.233   0.530   9.168
 3592WAT     H111018   5.249   0.432   9.177
 3592WAT     H211019   5.297   0.581   9.225
 3593WAT      O11020   8.640   7.205   4.799
 3593WAT     H111021   8.623   7.131   4.863
 3593WAT     H211022   8.639   7.292   4.848
 3594WAT      O11023   7.344   7.993   5.377
 3594WAT     H111024   7.296   8.081   5.382
 3594WAT     H211025   7.306   7.939   5.302
 3595WAT      O11026   7.221   8.913   4.461
 3595WAT     H111027   7.209   8.984   4.392
 3595WAT     H211028   7.131   8.879   4.490
 3596WAT      O11029   1.272   7.925   9.647
 3596WAT     H111030   1.243   7.834   9.618
 3596WAT     H211031   1.292   7.925   9.745
 3597WAT      O11032   3.659   9.403   6.486
 3597WAT     H111033   3.623   9.491   6.518
 3597WAT     H211034   3.706   9.416   6.399
 3598WAT      O11035   4.289   2.196   7.525
 3598WAT     H111036   4.198   2.155   7.510
 3598WAT     H211037   4.358   2.124   7.525
 3599WAT      O11038   7.512   3.331   1.649
 3599WAT     H111039   7.447   3.397   1.612
 3599WAT     H211040   7.577   3.305   1.577
 3600WAT      O11041   1.615   4.547   3.013
 3600WAT     H111042   1.551   4.517   2.942
 3600WAT     H211043   1.565   4.559   3.099
 3601WAT      O11044   7.124   4.676   7.238
 3601WAT     H111045   7.093   4.733   7.162
 3601WAT     H211046   7.154   4.587   7.204
 3602WAT      O11047   7.393   2.327   4.453
 3602WAT     H111048   7.440   2.288   4.373
 3602WAT     H211049   7.460   2.374   4.510
 3603WAT      O11050   6.050   4.861   6.915
 3603WAT     H111051   5.974   4.799   6.932
 3603WAT     H211052   6.081   4.901   7.002
 3604WAT      O11053   9.140   8.037   5.753
 3604WAT     H111054   9.199   8.032   5.672
 3604WAT     H211055   9.191   8.002   5.832
 3605WAT      O11056   0.665   8.032   4.119
 3605WAT     H111057   0.687   7.983   4.034
 3605WAT     H211058   0.601   7.977   4.173
 3606WAT      O11059   4.499   7.770   0.886
 3606WAT     H111060   4.555   7.739   0.809
 3606WAT     H211061   4.493   7.698   0.954
 3607WAT      O11062   8.462   0.676   5.615
 3607WAT     H111063   8.420   0.645   5.700
 3607WAT     H211064   8.393   0.683   5.544
 3608WAT      O11065   0.234   3.766   2.232
 3608WAT     H111066   0.320   3.743   2.277
 3608WAT     H211067   0.250   3.839   2.166
 3609WAT      O11068   8.843   1.665   3.556
 3609WAT     H111069   8.869   1.571   3.537
 3609WAT     H211070   8.785   1.668   3.637
 3610WAT      O11071   6.662   1.752   9.645
 3610WAT     H111072   6.646   1.665   9.692
 3610WAT     H211073   6.576   1.789   9.612
 3611WAT      O11074   4.713   3.754   4.480
 3611WAT     H111075   4.680   3.700   4.558
 3611WAT     H211076   4.796   3.804   4.507
 3612WAT      O11077   3.241   6.900   7.532
 3612WAT     H111078   3.178   6.965   7.489
 3612WAT     H211079   3.332   6.912   7.494
 3613WAT      O11080   3.379   3.070   4.053
 3613WAT     H111081   3.418   3.131   4.123
 3613WAT     H211082   3.438   3.071   3.972
 3614WAT      O11083   4.910   4.937   2.441
 3614WAT     H111084   4.838   4.951   2.509
 3614WAT     H211085   4.881   4.866   2.377
 3615WAT      O11086   2.585   2.826   4.610
 3615WAT     H111087   2.539   2.862   4.529
 3615WAT     H211088   2.652   2.893   4.643
 3616WAT      O11089   6.262   7.380   0.469
 3616WAT     H111090   6.291   7.462   0.519
 3616WAT     H211091   6.290   7.299   0.521
 3617WAT      O11092   0.603   8.653   9.190
 3617WAT     H111093   0.508   8.650   9.157
 3617WAT     H211094   0.605   8.685   9.284
 3618WAT      O11095   4.635   2.078   3.590
 3618WAT     H111096   4.601   1.988   3.616
 3618WAT     H211097   4.626   2.090   3.491
 3619WAT      O11098   0.157   0.560   1.383
 3619WAT     H111099   0.161   0.500   1.463
 3619WAT     H211100   0.192   0.511   1.303
 3620WAT      O11101   3.736   7.237   8.081
 3620WAT     H111102   3.659   7.231   8.145
 3620WAT     H211103   3.773   7.146   8.065
 3621WAT      O11104   3.404   0.583   3.301
 3621WAT     H111105   3.379   0.679   3.317
 3621WAT     H211106   3.502   0.571   3.315
 3622WAT      O11107   8.564   5.169   0.989
 3622WAT     H111108   8.543   5.266   1.000
 3622WAT     H211109   8.664   5.157   0.990
 3623WAT      O11110   5.629   2.341   3.332
 3623WAT     H111111   5.547   2.327   3.386
 3623WAT     H211112   5.607   2.328   3.235
 3624WAT      O11113   0.905   8.284   0.885
 3624WAT     H111114   0.930   8.219   0.813
 3624WAT     H211115   0.807   8.300   0.884
 3625WAT      O11116   1.665   7.278   3.894
 3625WAT     H111117   1.759   7.243   3.894
 3625WAT     H211118   1.624   7.264   3.804
 3626WAT      O11119   7.947   9.198   5.247
 3626WAT     H111120   8.033   9.149   5.236
 3626WAT     H211121   7.901   9.204   5.159
 3627WAT      O11122   4.137   4.838   0.083
 3627WAT     H111123   4.156   4.936   0.086
 3627WAT     H211124   4.169   4.801  -0.005
 3628WAT      O11125   0.681   3.469   1.055
 3628WAT     H111126   0.775   3.471   1.019
 3628WAT     H211127   0.682   3.433   1.148
 3629WAT      O11128   6.506   7.589   5.677
 3629WAT     H111129   6.443   7.664   5.699
 3629WAT     H211130   6.466   7.534   5.603
 3630WAT      O11131   0.360   7.109   9.163
 3630WAT     H111132   0.456   7.095   9.138
 3630WAT     H211133   0.303   7.108   9.081
 3631WAT      O11134   2.580   6.886   7.532
 3631WAT     H111135   2.496   6.933   7.558
 3631WAT     H211136   2.647   6.893   7.606
 3632WAT      O11137   0.439   4.792   9.119
 3632WAT     H111138   0.532   4.756   9.128
 3632WAT     H211139   0.442   4.891   9.104
 3633WAT      O11140   5.668   6.635   7.991
 3633WAT     H111141   5.712   6.704   8.049
 3633WAT     H211142   5.731   6.558   7.978
 3634WAT      O11143   7.406   7.251   7.670
 3634WAT     H111144   7.419   7.338   7.623
 3634WAT     H211145   7.478   7.239   7.739
 3635WAT      O11146   9.746   1.269   6.857
 3635WAT     H111147   9.648   1.278   6.843
 3635WAT     H211148   9.785   1.358   6.880
 3636WAT      O11149   3.986   0.024   8.343
 3636WAT     H111150   4.012   0.110   8.389
 3636WAT     H211151   3.930  -0.031   8.404
 3637WAT      O11152   3.132   7.022   8.933
 3637WAT     H111153   3.044   7.053   8.897
 3637WAT     H211154   3.147   7.062   9.023
 3638WAT      O11155   9.288   1.768   5.953
 3638WAT     H111156   9.213   1.821   5.991
 3638WAT     H211157   9.331   1.714   6.025
 3639WAT      O11158   5.220   0.255   9.182
 3639WAT     H111159   5.129   0.272   9.219
 3639WAT     H211160   5.249   0.162   9.205
 3640WAT      O11161   1.669   1.219   3.170
 3640WAT     H111162   1.759   1.233   3.128
 3640WAT     H211163   1.644   1.300   3.224
 3641WAT      O11164   8.387   9.384   0.065
 3641WAT     H111165   8.360   9.306   0.120
 3641WAT     H211166   8.306   9.433   0.033
 3642WAT      O11167   0.934   5.469   0.376
 3642WAT     H111168   0.843   5.450   0.339
 3642WAT     H211169   1.002   5.417   0.324
 3643WAT      O11170   6.976   3.967   7.381
 3643WAT     H111171   6.989   4.064   7.400
 3643WAT     H211172   6.901   3.956   7.315
 3644WAT      O11173   5.308   4.375   6.653
 3644WAT     H111174   5.384   4.312   6.641
 3644WAT     H211175   5.236   4.332   6.708
 3645WAT      O11176   5.735   9.367   8.181
 3645WAT     H111177   5.677   9.294   8.145
 3645WAT     H211178   5.827   9.358   8.142
 3646WAT      O11179   3.782   1.456   5.339
 3646WAT     H111180   3.774   1.554   5.357
 3646WAT     H211181   3.697   1.423   5.299
 3647WAT      O11182   1.128   2.928   5.953
 3647WAT     H111183   1.040   2.895   5.919
 3647WAT     H211184   1.199   2.861   5.933
 3648WAT      O11185   2.820   0.368   7.170
 3648WAT     H111186   2.809   0.279   7.213
 3648WAT     H211187   2.758   0.376   7.093
 3649WAT      O11188   7.949   6.911   4.486
 3649WAT     H111189   7.892   6.888   4.565
 3649WAT     H211190   8.035   6.862   4.492
 3650WAT      O11191   4.755   3.907   3.706
 3650WAT     H111192   4.714   3.882   3.618
 3650WAT     H211193   4.847   3.868   3.713
 3651WAT      O11194   5.606   4.685   4.013
 3651WAT     H111195   5.579   4.776   4.045
 3651WAT     H211196   5.619   4.625   4.091
 3652WAT      O11197   0.915   8.946   7.304
 3652WAT     H111198   0.885   8.987   7.219
 3652WAT     H211199   0.902   9.011   7.379
 3653WAT      O11200   6.173   5.896   2.766
 3653WAT     H111201   6.110   5.916   2.691
 3653WAT     H211202   6.248   5.839   2.732
 3654WAT      O11203   0.431   1.137   7.287
 3654WAT     H111204   0.418   1.038   7.282
 3654WAT     H211205   0.364   1.182   7.228
 3655WAT      O11206   5.940   3.628   9.502
 3655WAT     H111207   5.999   3.704   9.527
 3655WAT     H211208   5.942   3.615   9.402
 3656WAT      O11209   3.683   0.869   7.359
 3656WAT     H111210   3.760   0.830   7.410
 3656WAT     H211211   3.714   0.898   7.269
 3657WAT      O11212   6.547   2.174   3.749
 3657WAT     H111213   6.557   2.150   3.845
 3657WAT     H211214   6.579   2.268   3.735
 3658WAT      O11215   5.094   8.934   6.069
 3658WAT     H111216   5.110   8.850   6.121
 3658WAT     H211217   5.182   8.974   6.043
 3659WAT      O11218   6.332   0.967   1.249
 3659WAT     H111219   6.410   1.022   1.281
 3659WAT     H211220   6.248   1.004   1.288
 3660WAT      O11221   1.062   6.817   2.105
 3660WAT     H111222   1.099   6.905   2.133
 3660WAT     H211223   1.135   6.761   2.066
 3661WAT      O11224   4.812   4.844   7.241
 3661WAT     H111225   4.878   4.895   7.186
 3661WAT     H211226   4.773   4.904   7.310
 3662WAT      O11227   7.415   6.806   7.149
 3662WAT     H111228   7.398   6.881   7.213
 3662WAT     H211229   7.480   6.836   7.080
 3663WAT      O11230   3.734   3.788   3.167
 3663WAT     H111231   3.665   3.728   3.209
 3663WAT     H211232   3.766   3.747   3.082
 3664WAT      O11233   4.022   7.130   4.864
 3664WAT     H111234   4.032   7.057   4.797
 3664WAT     H211235   3.998   7.090   4.953
 3665WAT      O11236   2.156   1.388   8.627
 3665WAT     H111237   2.085   1.452   8.656
 3665WAT     H211238   2.245   1.418   8.661
 3666WAT      O11239   5.549   8.905   6.151
 3666WAT     H111240   5.489   8.858   6.216
 3666WAT     H211241   5.609   8.838   6.106
 3667WAT      O11242   8.880   0.020   8.933
 3667WAT     H111243   8.803  -0.016   8.985
 3667WAT     H211244   8.866   0.002   8.836
 3668WAT      O11245   6.240   2.029   4.111
 3668WAT     H111246   6.252   1.937   4.075
 3668WAT     H211247   6.210   2.024   4.207
 3669WAT      O11248   5.851   2.995   1.003
 3669WAT     H111249   5.940   3.034   1.024
 3669WAT     H211250   5.833   2.917   1.063
 3670WAT      O11251   2.242   0.114   5.007
 3670WAT     H111252   2.149   0.140   4.983
 3670WAT     H211253   2.307   0.169   4.953
 3671WAT      O11254   7.656   2.071   3.173
 3671WAT     H111255   7.669   2.162   3.134
 3671WAT     H211256   7.613   2.079   3.263
 3672WAT      O11257   9.329   4.753   3.410
 3672WAT     H111258   9.385   4.757   3.328
 3672WAT     H211259   9.372   4.806   3.483
 3673WAT      O11260   0.648   6.690   2.823
 3673WAT     H111261   0.733   6.694   2.769
 3673WAT     H211262   0.571   6.713   2.764
 3674WAT      O11263   5.460   1.879   5.254
 3674WAT     H111264   5.530   1.809   5.252
 3674WAT     H211265   5.397   1.861   5.329
 3675WAT      O11266   7.602   1.447   4.679
 3675WAT     H111267   7.609   1.491   4.769
 3675WAT     H211268   7.514   1.471   4.638
 3676WAT      O11269   5.823   7.186   9.253
 3676WAT     H111270   5.790   7.146   9.338
 3676WAT     H211271   5.757   7.169   9.180
 3677WAT      O11272   5.627   4.730   1.142
 3677WAT     H111273   5.570   4.734   1.059
 3677WAT     H211274   5.615   4.814   1.194
 3678WAT      O11275   1.522   3.238   9.764
 3678WAT     H111276   1.578   3.287   9.697
 3678WAT     H211277   1.574   3.223   9.847
 3679WAT      O11278   6.909   9.320   4.092
 3679WAT     H111279   6.842   9.279   4.153
 3679WAT     H211280   7.001   9.300   4.125
 3680WAT      O11281   6.282   9.397   4.178
 3680WAT     H111282   6.239   9.475   4.134
 3680WAT     H211283   6.373   9.382   4.138
 3681WAT      O11284   1.295   8.260   7.473
 3681WAT     H111285   1.308   8.335   7.409
 3681WAT     H211286   1.207   8.216   7.455
 3682WAT      O11287   4.324   4.369   4.667
 3682WAT     H111288   4.373   4.369   4.755
 3682WAT     H211289   4.373   4.312   4.601
 3683WAT      O11290   3.641   0.453   6.740
 3683WAT     H111291   3.705   0.440   6.815
 3683WAT     H211292   3.576   0.376   6.738
 3684WAT      O11293   3.078   5.845   5.039
 3684WAT     H111294   3.133   5.898   5.105
 3684WAT     H211295   3.138   5.805   4.970
 3685WAT      O11296   4.740   7.108   2.817
 3685WAT     H111297   4.735   7.205   2.842
 3685WAT     H211298   4.757   7.100   2.719
 3686WAT      O11299   1.037   6.316   4.405
 3686WAT     H111300   0.945   6.281   4.391
 3686WAT     H211301   1.053   6.329   4.503
 3687WAT      O11302   1.550   1.920   8.566
 3687WAT     H111303   1.605   1.941   8.646
 3687WAT     H211304   1.610   1.887   8.493
 3688WAT      O11305   8.041   6.528   3.309
 3688WAT     H111306   8.114   6.503   3.246
 3688WAT     H211307   8.051   6.476   3.394
 3689WAT      O11308   9.652   8.189   5.878
 3689WAT     H111309   9.705   8.178   5.794
 3689WAT     H211310   9.625   8.285   5.888
 3690WAT      O11311   4.471   3.630   0.367
 3690WAT     H111312   4.449   3.650   0.462
 3690WAT     H211313   4.507   3.537   0.360
 3691WAT      O11314   5.907   4.363   5.187
 3691WAT     H111315   5.881   4.447   5.141
 3691WAT     H211316   6.006   4.353   5.186
 3692WAT      O11317   9.206   7.488   7.749
 3692WAT     H111318   9.222   7.389   7.750
 3692WAT     H211319   9.110   7.506   7.728
 3693WAT      O11320   3.521   6.680   9.685
 3693WAT     H111321   3.488   6.591   9.715
 3693WAT     H211322   3.620   6.675   9.668
 3694WAT      O11323   4.398   7.579   8.367
 3694WAT     H111324   4.456   7.530   8.433
 3694WAT     H211325   4.304   7.581   8.400
 3695WAT      O11326   4.827   0.495   8.380
 3695WAT     H111327   4.808   0.413   8.326
 3695WAT     H211328   4.913   0.484   8.429
 3696WAT      O11329   0.674   2.164   6.206
 3696WAT     H111330   0.757   2.216   6.185
 3696WAT     H211331   0.660   2.094   6.136
 3697WAT      O11332   2.124   5.015   3.655
 3697WAT     H111333   2.162   5.034   3.746
 3697WAT     H211334   2.117   4.917   3.641
 3698WAT      O11335   4.102   3.200   8.995
 3698WAT     H111336   4.062   3.129   8.937
 3698WAT     H211337   4.160   3.157   9.064
 3699WAT      O11338   2.686   1.478   4.001
 3699WAT     H111339   2.656   1.495   3.907
 3699WAT     H211340   2.629   1.408   4.042
 3700WAT      O11341   1.671   1.837   7.362
 3700WAT     H111342   1.722   1.887   7.292
 3700WAT     H211343   1.574   1.835   7.338
 3701WAT      O11344   5.156   2.546   1.923
 3701WAT     H111345   5.093   2.540   2.000
 3701WAT     H211346   5.166   2.642   1.895
 3702WAT      O11347   9.416   5.243   3.463
 3702WAT     H111348   9.433   5.330   3.416
 3702WAT     H211349   9.449   5.167   3.406
 3703WAT      O11350   8.644   3.097   9.525
 3703WAT     H111351   8.590   3.087   9.608
 3703WAT     H211352   8.669   3.194   9.513
 3704WAT      O11353   3.151   6.882   8.429
 3704WAT     H111354   3.182   6.959   8.485
 3704WAT     H211355   3.118   6.916   8.341
 3705WAT      O11356   9.405   2.725   9.000
 3705WAT     H111357   9.346   2.770   9.067
 3705WAT     H211358   9.492   2.773   8.994
 3706WAT      O11359   5.602   0.458   2.964
 3706WAT     H111360   5.675   0.525   2.953
 3706WAT     H211361   5.637   0.366   2.944
 3707WAT      O11362   7.125   0.236   1.427
 3707WAT     H111363   7.083   0.253   1.517
 3707WAT     H211364   7.152   0.140   1.421
 3708WAT      O11365   0.115   7.387   0.144
 3708WAT     H111366   0.151   7.433   0.063
 3708WAT     H211367   0.098   7.454   0.216
 3709WAT      O11368   6.926   3.701   9.864
 3709WAT     H111369   7.021   3.712   9.895
 3709WAT     H211370   6.894   3.787   9.824
 3710WAT      O11371   5.376   6.847   5.680
 3710WAT     H111372   5.377   6.770   5.744
 3710WAT     H211373   5.417   6.818   5.593
 3711WAT      O11374   8.956   0.656   0.320
 3711WAT     H111375   9.003   0.613   0.243
 3711WAT     H211376   8.857   0.640   0.312
 3712WAT      O11377   8.529   2.704   1.430
 3712WAT     H111378   8.492   2.747   1.513
 3712WAT     H211379   8.556   2.776   1.366
 3713WAT      O11380   4.834   0.124   9.526
 3713WAT     H111381   4.823   0.045   9.587
 3713WAT     H211382   4.886   0.096   9.445
 3714WAT      O11383   5.750   2.761   7.608
 3714WAT     H111384   5.698   2.837   7.568
 3714WAT     H211385   5.780   2.787   7.700
 3715WAT      O11386   9.581   7.943   4.465
 3715WAT     H111387   9.640   8.011   4.509
 3715WAT     H211388   9.516   7.989   4.405
 3716WAT      O11389   2.138   7.668   8.329
 3716WAT     H111390   2.188   7.687   8.413
 3716WAT     H211391   2.141   7.570   8.310
 3717WAT      O11392   0.057   1.416   2.822
 3717WAT     H111393   0.066   1.387   2.727
 3717WAT     H211394  -0.032   1.460   2.836
 3718WAT      O11395   1.486   1.314   1.620
 3718WAT     H111396   1.548   1.257   1.565
 3718WAT     H211397   1.497   1.410   1.594
 3719WAT      O11398   1.518   1.663   5.125
 3719WAT     H111399   1.523   1.763   5.132
 3719WAT     H211400   1.496   1.624   5.214
 3720WAT      O11401   0.176   4.051   7.784
 3720WAT     H111402   0.273   4.026   7.788
 3720WAT     H211403   0.165   4.131   7.725
 3721WAT      O11404   3.828   0.324   8.135
 3721WAT     H111405   3.821   0.305   8.233
 3721WAT     H211406   3.857   0.419   8.121
 3722WAT      O11407   4.234   7.250   8.723
 3722WAT     H111408   4.311   7.310   8.747
 3722WAT     H211409   4.205   7.269   8.629
 3723WAT      O11410   9.388   6.083   8.207
 3723WAT     H111411   9.298   6.055   8.239
 3723WAT     H211412   9.456   6.068   8.279
 3724WAT      O11413   6.901   5.656   2.631
 3724WAT     H111414   6.862   5.742   2.662
 3724WAT     H211415   6.840   5.614   2.563
 3725WAT      O11416   9.526   9.099   3.482
 3725WAT     H111417   9.446   9.077   3.426
 3725WAT     H211418   9.558   9.191   3.460
 3726WAT      O11419   2.865   9.064   3.576
 3726WAT     H111420   2.901   8.994   3.514
 3726WAT     H211421   2.858   9.151   3.527
 3727WAT      O11422   2.425   2.237   3.831
 3727WAT     H111423   2.379   2.317   3.869
 3727WAT     H211424   2.372   2.155   3.853
 3728WAT      O11425   1.148   8.610   6.603
 3728WAT     H111426   1.125   8.695   6.557
 3728WAT     H211427   1.246   8.608   6.625
 3729WAT      O11428   1.297   0.091   6.374
 3729WAT     H111429   1.355   0.132   6.445
 3729WAT     H211430   1.347   0.090   6.287
 3730WAT      O11431   0.735   5.760   7.555
 3730WAT     H111432   0.827   5.720   7.551
 3730WAT     H211433   0.715   5.805   7.468
 3731WAT      O11434   0.952   8.706   5.778
 3731WAT     H111435   0.892   8.774   5.821
 3731WAT     H211436   0.966   8.732   5.682
 3732WAT      O11437   5.142   7.563   8.647
 3732WAT     H111438   5.054   7.611   8.647
 3732WAT     H211439   5.186   7.575   8.736
 3733WAT      O11440   5.933   3.116   7.228
 3733WAT     H111441   5.902   3.113   7.323
 3733WAT     H211442   6.006   3.050   7.214
 3734WAT      O11443   5.421   6.139   0.868
 3734WAT     H111444   5.520   6.142   0.852
 3734WAT     H211445   5.374   6.171   0.786
 3735WAT      O11446   1.208   1.730   1.651
 3735WAT     H111447   1.161   1.642   1.644
 3735WAT     H211448   1.252   1.751   1.563
 3736WAT      O11449   1.118   2.488   3.109
 3736WAT     H111450   1.193   2.424   3.125
 3736WAT     H211451   1.072   2.465   3.023
 3737WAT      O11452   5.882   4.940   6.092
 3737WAT     H111453   5.854   4.983   6.006
 3737WAT     H211454   5.900   4.842   6.076
 3738WAT      O11455   3.079   5.665   0.137
 3738WAT     H111456   3.026   5.673   0.222
 3738WAT     H211457   3.154   5.731   0.138
 3739WAT      O11458   7.914   6.910   5.349
 3739WAT     H111459   8.008   6.940   5.334
 3739WAT     H211460   7.858   6.933   5.270
 3740WAT      O11461   4.436   5.743   0.017
 3740WAT     H111462   4.350   5.701  -0.010
 3740WAT     H211463   4.437   5.839  -0.010
 3741WAT      O11464   0.312   0.413   0.767
 3741WAT     H111465   0.239   0.344   0.764
 3741WAT     H211466   0.288   0.490   0.708
 3742WAT      O11467   9.828   8.683   6.931
 3742WAT     H111468   9.813   8.599   6.878
 3742WAT     H211469   9.745   8.740   6.926
 3743WAT      O11470   0.298   7.736   9.000
 3743WAT     H111471   0.373   7.679   9.035
 3743WAT     H211472   0.329   7.831   8.994
 3744WAT      O11473   8.349   0.859   8.581
 3744WAT     H111474   8.347   0.826   8.487
 3744WAT     H211475   8.273   0.818   8.632
 3745WAT      O11476   6.712   9.823   6.209
 3745WAT     H111477   6.747   9.909   6.245
 3745WAT     H211478   6.713   9.825   6.109
 3746WAT      O11479   8.541   1.974   3.582
 3746WAT     H111480   8.469   1.905   3.576
 3746WAT     H211481   8.500   2.063   3.598
 3747WAT      O11482   6.552   1.056   8.425
 3747WAT     H111483   6.610   1.100   8.494
 3747WAT     H211484   6.456   1.075   8.445
 3748WAT      O11485   5.314   3.932   6.500
 3748WAT     H111486   5.253   3.864   6.458
 3748WAT     H211487   5.399   3.888   6.527
 3749WAT      O11488   2.413   2.213   0.878
 3749WAT     H111489   2.511   2.219   0.856
 3749WAT     H211490   2.380   2.121   0.857
 3750WAT      O11491   3.152   3.834   8.264
 3750WAT     H111492   3.191   3.803   8.351
 3750WAT     H211493   3.223   3.832   8.193
 3751WAT      O11494   0.984   9.274   7.804
 3751WAT     H111495   0.993   9.204   7.733
 3751WAT     H211496   1.007   9.234   7.893
 3752WAT      O11497   5.641   8.849   5.768
 3752WAT     H111498   5.553   8.803   5.758
 3752WAT     H211499   5.705   8.790   5.816
 3753WAT      O11500   1.584   8.554   0.714
 3753WAT     H111501   1.622   8.584   0.802
 3753WAT     H211502   1.574   8.454   0.716
 3754WAT      O11503   7.827   8.997   6.458
 3754WAT     H111504   7.864   9.052   6.533
 3754WAT     H211505   7.900   8.939   6.421
 3755WAT      O11506   8.108   3.542   0.411
 3755WAT     H111507   8.101   3.638   0.436
 3755WAT     H211508   8.041   3.520   0.340
 3756WAT      O11509   5.149   1.563   8.845
 3756WAT     H111510   5.117   1.480   8.891
 3756WAT     H211511   5.248   1.566   8.846
 3757WAT      O11512   3.221   8.422   8.934
 3757WAT     H111513   3.134   8.414   8.885
 3757WAT     H211514   3.288   8.467   8.874
 3758WAT      O11515   2.931   9.244   2.986
 3758WAT     H111516   2.851   9.302   2.975
 3758WAT     H211517   3.013   9.295   2.961
 3759WAT      O11518   0.915   1.225   5.323
 3759WAT     H111519   0.858   1.154   5.283
 3759WAT     H211520   1.010   1.195   5.324
 3760WAT      O11521   2.435   2.375   3.404
 3760WAT     H111522   2.407   2.283   3.376
 3760WAT     H211523   2.381   2.403   3.483
 3761WAT      O11524   0.281   5.391   4.459
 3761WAT     H111525   0.249   5.471   4.509
 3761WAT     H211526   0.371   5.409   4.420
 3762WAT      O11527   7.452   9.585   1.954
 3762WAT     H111528   7.447   9.568   1.856
 3762WAT     H211529   7.434   9.682   1.972
 3763WAT      O11530   1.396   8.754   8.221
 3763WAT     H111531   1.447   8.837   8.197
 3763WAT     H211532   1.377   8.754   8.319
 3764WAT      O11533   6.574   1.682   6.502
 3764WAT     H111534   6.619   1.736   6.572
 3764WAT     H211535   6.502   1.627   6.544
 3765WAT      O11536   2.724   7.305   0.696
 3765WAT     H111537   2.799   7.241   0.675
 3765WAT     H211538   2.699   7.354   0.612
 3766WAT      O11539   3.289   6.751   1.845
 3766WAT     H111540   3.287   6.829   1.783
 3766WAT     H211541   3.371   6.757   1.902
 3767WAT      O11542   7.595   5.609   7.500
 3767WAT     H111543   7.540   5.535   7.538
 3767WAT     H211544   7.605   5.595   7.401
 3768WAT      O11545   0.008   5.627   5.630
 3768WAT     H111546   0.060   5.590   5.553
 3768WAT     H211547   0.056   5.607   5.715
 3769WAT      O11548   5.966   7.527   6.134
 3769WAT     H111549   5.934   7.450   6.078
 3769WAT     H211550   6.029   7.583   6.081
 3770WAT      O11551   1.307   1.961   9.093
 3770WAT     H111552   1.385   2.012   9.127
 3770WAT     H211553   1.322   1.937   8.997
 3771WAT      O11554   1.191   5.846   3.851
 3771WAT     H111555   1.224   5.760   3.890
 3771WAT     H211556   1.187   5.916   3.922
 3772WAT      O11557   4.887   1.645   3.202
 3772WAT     H111558   4.899   1.546   3.205
 3772WAT     H211559   4.797   1.669   3.239
 3773WAT      O11560   7.838   3.817   4.410
 3773WAT     H111561   7.931   3.829   4.374
 3773WAT     H211562   7.842   3.794   4.507
 3774WAT      O11563   2.494   0.404   4.547
 3774WAT     H111564   2.426   0.340   4.583
 3774WAT     H211565   2.487   0.407   4.447
 3775WAT      O11566   2.503   7.021   2.907
 3775WAT     H111567   2.589   7.058   2.942
 3775WAT     H211568   2.522   6.938   2.854
 3776WAT      O11569   3.017   7.216   2.853
 3776WAT     H111570   3.043   7.275   2.776
 3776WAT     H211571   3.052   7.255   2.938
 3777WAT      O11572   8.049   0.649   5.958
 3777WAT     H111573   7.953   0.673   5.944
 3777WAT     H211574   8.083   0.692   6.041
 3778WAT      O11575   7.785   8.228   8.809
 3778WAT     H111576   7.698   8.252   8.853
 3778WAT     H211577   7.767   8.192   8.718
 3779WAT      O11578   8.537   2.469   6.053
 3779WAT     H111579   8.602   2.543   6.036
 3779WAT     H211580   8.476   2.459   5.975
 3780WAT      O11581   1.405   9.741   1.231
 3780WAT     H111582   1.430   9.650   1.198
 3780WAT     H211583   1.459   9.810   1.181
 3781WAT      O11584   5.943   1.620   8.643
 3781WAT     H111585   5.957   1.589   8.737
 3781WAT     H211586   5.889   1.704   8.643
 3782WAT      O11587   3.072   1.287   4.749
 3782WAT     H111588   3.172   1.287   4.749
 3782WAT     H211589   3.038   1.210   4.695
 3783WAT      O11590   4.373   0.987   2.158
 3783WAT     H111591   4.326   0.961   2.242
 3783WAT     H211592   4.465   1.021   2.180
 3784WAT      O11593   8.660   6.790   3.535
 3784WAT     H111594   8.710   6.847   3.470
 3784WAT     H211595   8.713   6.707   3.553
 3785WAT      O11596   6.751   5.358   9.003
 3785WAT     H111597   6.775   5.275   9.054
 3785WAT     H211598   6.782   5.349   8.909
 3786WAT      O11599   8.020   1.329   1.931
 3786WAT     H111600   7.941   1.375   1.891
 3786WAT     H211601   8.097   1.334   1.868
 3787WAT      O11602   1.152   4.527   6.405
 3787WAT     H111603   1.120   4.538   6.311
 3787WAT     H211604   1.076   4.540   6.469
 3788WAT      O11605   4.752   4.643   2.376
 3788WAT     H111606   4.782   4.707   2.305
 3788WAT     H211607   4.832   4.612   2.427
 3789WAT      O11608   4.271   0.476   9.469
 3789WAT     H111609   4.347   0.410   9.469
 3789WAT     H211610   4.267   0.522   9.557
 3790WAT      O11611   5.319   7.131   5.352
 3790WAT     H111612   5.366   7.188   5.420
 3790WAT     H211613   5.368   7.044   5.343
 3791WAT      O11614   9.317   8.836   5.377
 3791WAT     H111615   9.328   8.844   5.278
 3791WAT     H211616   9.353   8.918   5.421
 3792WAT      O11617   1.877   9.001   1.159
 3792WAT     H111618   1.871   9.023   1.062
 3792WAT     H211619   1.920   9.077   1.208
 3793WAT      O11620   5.451   5.780   8.162
 3793WAT     H111621   5.523   5.724   8.202
 3793WAT     H211622   5.363   5.736   8.177
 3794WAT      O11623   3.209   7.864   7.480
 3794WAT     H111624   3.301   7.842   7.449
 3794WAT     H211625   3.151   7.888   7.402
 3795WAT      O11626   3.563   1.927   6.973
 3795WAT     H111627   3.614   2.000   6.927
 3795WAT     H211628   3.469   1.957   6.988
 3796WAT      O11629   6.437   1.948   7.368
 3796WAT     H111630   6.507   2.010   7.402
 3796WAT     H211631   6.384   1.993   7.296
 3797WAT      O11632   6.866   0.392   6.928
 3797WAT     H111633   6.920   0.312   6.953
 3797WAT     H211634   6.846   0.445   7.010
 3798WAT      O11635   0.955   7.971   4.146
 3798WAT     H111636   0.871   8.003   4.102
 3798WAT     H211637   1.027   7.961   4.078
 3799WAT      O11638   2.145   4.147   5.975
 3799WAT     H111639   2.182   4.120   6.064
 3799WAT     H211640   2.208   4.213   5.932
 3800WAT      O11641   0.426   6.427   4.579
 3800WAT     H111642   0.526   6.418   4.580
 3800WAT     H211643   0.384   6.337   4.582
 3801WAT      O11644   7.408   0.426   3.449
 3801WAT     H111645   7.411   0.326   3.442
 3801WAT     H211646   7.469   0.466   3.380
 3802WAT      O11647   8.507   2.452   0.851
 3802WAT     H111648   8.458   2.369   0.822
 3802WAT     H211649   8.461   2.493   0.929
 3803WAT      O11650   0.371   8.491   8.986
 3803WAT     H111651   0.340   8.582   8.956
 3803WAT     H211652   0.449   8.463   8.930
 3804WAT      O11653   6.960   3.807   4.672
 3804WAT     H111654   6.983   3.879   4.606
 3804WAT     H211655   7.042   3.755   4.695
 3805WAT      O11656   4.577   5.785   6.817
 3805WAT     H111657   4.488   5.826   6.836
 3805WAT     H211658   4.565   5.698   6.770
 3806WAT      O11659   4.234   3.685   8.664
 3806WAT     H111660   4.213   3.759   8.729
 3806WAT     H211661   4.151   3.631   8.648
 3807WAT      O11662   6.459   3.677   6.235
 3807WAT     H111663   6.518   3.615   6.287
 3807WAT     H211664   6.509   3.761   6.216
 3808WAT      O11665   3.874   6.522   9.701
 3808WAT     H111666   3.866   6.621   9.716
 3808WAT     H211667   3.971   6.498   9.689
 3809WAT      O11668   2.843   4.878   4.935
 3809WAT     H111669   2.832   4.970   4.897
 3809WAT     H211670   2.833   4.810   4.862
 3810WAT      O11671   6.712   1.517   5.521
 3810WAT     H111672   6.642   1.454   5.555
 3810WAT     H211673   6.730   1.499   5.424
 3811WAT      O11674   3.140   7.410   2.686
 3811WAT     H111675   3.240   7.405   2.687
 3811WAT     H211676   3.111   7.505   2.681
 3812WAT      O11677   5.529   0.096   2.310
 3812WAT     H111678   5.610   0.083   2.253
 3812WAT     H211679   5.552   0.153   2.388
 3813WAT      O11680   6.265   6.425   5.844
 3813WAT     H111681   6.332   6.372   5.896
 3813WAT     H211682   6.231   6.369   5.769
 3814WAT      O11683   1.938   1.232   2.243
 3814WAT     H111684   1.972   1.258   2.153
 3814WAT     H211685   2.015   1.227   2.307
 3815WAT      O11686   4.365   3.466   1.963
 3815WAT     H111687   4.381   3.375   2.001
 3815WAT     H211688   4.450   3.519   1.964
 3816WAT      O11689   7.837   2.512   1.455
 3816WAT     H111690   7.829   2.460   1.541
 3816WAT     H211691   7.925   2.492   1.412
 3817WAT      O11692   6.840   6.760   7.462
 3817WAT     H111693   6.931   6.764   7.422
 3817WAT     H211694   6.811   6.665   7.472
 3818WAT      O11695   1.134   3.632   2.338
 3818WAT     H111696   1.048   3.591   2.309
 3818WAT     H211697   1.116   3.705   2.404
 3819WAT      O11698   5.602   4.952   1.276
 3819WAT     H111699   5.599   5.050   1.298
 3819WAT     H211700   5.538   4.903   1.334
 3820WAT      O11701   8.564   0.604   7.282
 3820WAT     H111702   8.526   0.685   7.327
 3820WAT     H211703   8.494   0.564   7.223
 3821WAT      O11704   6.688   1.634   4.797
 3821WAT     H111705   6.664   1.731   4.805
 3821WAT     H211706   6.646   1.583   4.872
 3822WAT      O11707   6.926   1.450   0.552
 3822WAT     H111708   6.978   1.367   0.531
 3822WAT     H211709   6.865   1.472   0.476
 3823WAT      O11710   4.886   6.417   7.228
 3823WAT     H111711   4.864   6.377   7.317
 3823WAT     H211712   4.853   6.357   7.155
 3824WAT      O11713   6.807   8.922   5.456
 3824WAT     H111714   6.841   8.944   5.548
 3824WAT     H211715   6.728   8.861   5.464
 3825WAT      O11716   8.339   5.684   8.711
 3825WAT     H111717   8.405   5.733   8.767
 3825WAT     H211718   8.275   5.749   8.670
 3826WAT      O11719   5.633   2.865   9.583
 3826WAT     H111720   5.616   2.871   9.485
 3826WAT     H211721   5.721   2.907   9.605
 3827WAT      O11722   8.962   5.845   4.363
 3827WAT     H111723   9.027   5.831   4.437
 3827WAT     H211724   8.880   5.889   4.399
 3828WAT      O11725   2.826   0.938   9.478
 3828WAT     H111726   2.834   0.846   9.438
 3828WAT     H211727   2.763   0.993   9.422
 3829WAT      O11728   9.684   3.813   7.716
 3829WAT     H111729   9.706   3.716   7.725
 3829WAT     H211730   9.703   3.843   7.622
 3830WAT      O11731   7.290   7.052   2.019
 3830WAT     H111732   7.364   7.116   2.040
 3830WAT     H211733   7.238   7.085   1.940
 3831WAT      O11734   0.385   5.411   2.932
 3831WAT     H111735   0.368   5.483   2.865
 3831WAT     H211736   0.384   5.322   2.886
 3832WAT      O11737   1.226   2.184   5.965
 3832WAT     H111738   1.275   2.246   6.027
 3832WAT     H211739   1.261   2.091   5.976
 3833WAT      O11740   9.601   0.283   4.292
 3833WAT     H111741   9.567   0.295   4.199
 3833WAT     H211742   9.655   0.363   4.318
 3834WAT      O11743   2.296   9.131   5.288
 3834WAT     H111744   2.393   9.114   5.267
 3834WAT     H211745   2.259   9.054   5.340
 3835WAT      O11746   4.476   0.305   9.513
 3835WAT     H111747   4.462   0.234   9.583
 3835WAT     H211748   4.526   0.265   9.436
 3836WAT      O11749   8.675   4.831   8.625
 3836WAT     H111750   8.774   4.847   8.631
 3836WAT     H211751   8.659   4.734   8.606
 3837WAT      O11752   4.588   4.776   7.571
 3837WAT     H111753   4.582   4.744   7.666
 3837WAT     H211754   4.517   4.731   7.516
 3838WAT      O11755   4.549   4.110   6.671
 3838WAT     H111756   4.501   4.037   6.621
 3838WAT     H211757   4.608   4.160   6.607
 3839WAT      O11758   9.028   3.996   4.634
 3839WAT     H111759   8.933   4.027   4.639
 3839WAT     H211760   9.080   4.034   4.711
 3840WAT      O11761   6.226   4.895   9.210
 3840WAT     H111762   6.266   4.835   9.140
 3840WAT     H211763   6.141   4.855   9.244
 3841WAT      O11764   3.586   7.684   1.715
 3841WAT     H111765   3.589   7.591   1.753
 3841WAT     H211766   3.522   7.740   1.768
 3842WAT      O11767   7.745   5.862   9.250
 3842WAT     H111768   7.760   5.770   9.213
 3842WAT     H211769   7.665   5.902   9.206
 3843WAT      O11770   8.045   6.939   0.137
 3843WAT     H111771   8.002   6.942   0.047
 3843WAT     H211772   8.074   7.031   0.163
 3844WAT      O11773   5.467   6.033   5.044
 3844WAT     H111774   5.441   6.011   4.950
 3844WAT     H211775   5.491   6.130   5.050
 3845WAT      O11776   2.948   9.808   4.654
 3845WAT     H111777   2.961   9.895   4.607
 3845WAT     H211778   2.983   9.815   4.747
 3846WAT      O11779   5.045   2.048   6.852
 3846WAT     H111780   5.138   2.012   6.847
 3846WAT     H211781   4.981   1.979   6.818
 3847WAT      O11782   2.472   4.520   4.844
 3847WAT     H111783   2.476   4.613   4.880
 3847WAT     H211784   2.562   4.478   4.849
 3848WAT      O11785   6.168   4.296   9.041
 3848WAT     H111786   6.117   4.345   8.969
 3848WAT     H211787   6.111   4.290   9.123
 3849WAT      O11788   1.168   1.228   1.056
 3849WAT     H111789   1.164   1.267   0.963
 3849WAT     H211790   1.075   1.222   1.092
 3850WAT      O11791   3.875   6.989   8.130
 3850WAT     H111792   3.891   6.893   8.155
 3850WAT     H211793   3.959   7.028   8.091
 3851WAT      O11794   0.946   1.395   5.000
 3851WAT     H111795   0.969   1.491   5.014
 3851WAT     H211796   1.022   1.338   5.031
 3852WAT      O11797   5.469   5.579   8.810
 3852WAT     H111798   5.453   5.575   8.909
 3852WAT     H211799   5.561   5.547   8.790
 3853WAT      O11800   6.939   1.854   0.872
 3853WAT     H111801   6.919   1.847   0.970
 3853WAT     H211802   6.887   1.785   0.822
 3854WAT      O11803   8.116   1.398   8.696
 3854WAT     H111804   8.058   1.325   8.659
 3854WAT     H211805   8.065   1.484   8.696
 3855WAT      O11806   0.693   5.850   1.205
 3855WAT     H111807   0.652   5.894   1.285
 3855WAT     H211808   0.632   5.778   1.172
 3856WAT      O11809   9.117   5.116   2.502
 3856WAT     H111810   9.048   5.067   2.449
 3856WAT     H211811   9.185   5.154   2.440
 3857WAT      O11812   6.589   3.215   2.492
 3857WAT     H111813   6.512   3.198   2.431
 3857WAT     H211814   6.558   3.271   2.570
 3858WAT      O11815   5.698   3.279   0.158
 3858WAT     H111816   5.610   3.233   0.157
 3858WAT     H211817   5.723   3.302   0.252
 3859WAT      O11818   5.029   8.148   2.588
 3859WAT     H111819   5.125   8.126   2.604
 3859WAT     H211820   4.971   8.097   2.652
 3860WAT      O11821   8.005   0.392   4.769
 3860WAT     H111822   7.987   0.297   4.741
 3860WAT     H211823   8.057   0.392   4.854
 3861WAT      O11824   5.410   8.259   3.151
 3861WAT     H111825   5.332   8.204   3.182
 3861WAT     H211826   5.464   8.206   3.085
 3862WAT      O11827   1.404   5.724   5.713
 3862WAT     H111828   1.414   5.820   5.686
 3862WAT     H211829   1.433   5.712   5.808
 3863WAT      O11830   5.702   0.573   0.297
 3863WAT     H111831   5.674   0.655   0.347
 3863WAT     H211832   5.704   0.495   0.359
 3864WAT      O11833   2.303   5.410   0.120
 3864WAT     H111834   2.261   5.473   0.054
 3864WAT     H211835   2.273   5.317   0.099
 3865WAT      O11836   2.817   4.692   0.594
 3865WAT     H111837   2.726   4.652   0.607
 3865WAT     H211838   2.813   4.762   0.523
 3866WAT      O11839   4.761   3.027   2.001
 3866WAT     H111840   4.770   3.068   1.910
 3866WAT     H211841   4.816   3.078   2.066
 3867WAT      O11842   1.595   6.710   3.968
 3867WAT     H111843   1.519   6.677   4.023
 3867WAT     H211844   1.631   6.795   4.008
 3868WAT      O11845   9.418   2.457   8.886
 3868WAT     H111846   9.454   2.544   8.919
 3868WAT     H211847   9.333   2.435   8.934
 3869WAT      O11848   6.105   3.755   8.445
 3869WAT     H111849   6.124   3.803   8.359
 3869WAT     H211850   6.115   3.657   8.431
 3870WAT      O11851   6.333   5.070   8.150
 3870WAT     H111852   6.375   5.161   8.146
 3870WAT     H211853   6.348   5.030   8.240
 3871WAT      O11854   6.917   7.564   2.898
 3871WAT     H111855   6.945   7.477   2.856
 3871WAT     H211856   6.934   7.560   2.996
 3872WAT      O11857   8.158   8.750   4.647
 3872WAT     H111858   8.222   8.818   4.609
 3872WAT     H211859   8.129   8.688   4.575
 3873WAT      O11860   7.572   0.989   6.501
 3873WAT     H111861   7.527   0.995   6.412
 3873WAT     H211862   7.630   1.069   6.514
 3874WAT      O11863   6.351   5.405   1.654
 3874WAT     H111864   6.425   5.460   1.692
 3874WAT     H211865   6.379   5.309   1.652
 3875WAT      O11866   7.194   7.863   8.445
 3875WAT     H111867   7.112   7.876   8.390
 3875WAT     H211868   7.263   7.931   8.420
 3876WAT      O11869   5.855   6.016   8.918
 3876WAT     H111870   5.762   5.987   8.942
 3876WAT     H211871   5.921   5.950   8.956
 3877WAT      O11872   5.234   3.797   3.941
 3877WAT     H111873   5.283   3.711   3.948
 3877WAT     H211874   5.290   3.871   3.979
 3878WAT      O11875   1.371   6.169   2.940
 3878WAT     H111876   1.346   6.229   2.863
 3878WAT     H211877   1.376   6.223   3.024
 3879WAT      O11878   5.297   0.929   2.110
 3879WAT     H111879   5.326   0.834   2.123
 3879WAT     H211880   5.248   0.960   2.191
 3880WAT      O11881   5.078   7.763   9.793
 3880WAT     H111882   5.109   7.804   9.879
 3880WAT     H211883   5.124   7.675   9.780
 3881WAT      O11884   8.701   2.001   1.849
 3881WAT     H111885   8.713   2.059   1.769
 3881WAT     H211886   8.784   1.946   1.863
 3882WAT      O11887   5.367   8.970   2.528
 3882WAT     H111888   5.427   9.013   2.595
 3882WAT     H211889   5.281   9.021   2.523
 3883WAT      O11890   3.420   0.272   6.730
 3883WAT     H111891   3.484   0.213   6.680
 3883WAT     H211892   3.330   0.267   6.687
 3884WAT      O11893   4.255   7.694   3.480
 3884WAT     H111894   4.180   7.671   3.540
 3884WAT     H211895   4.307   7.771   3.519
 3885WAT      O11896   1.694   3.357   4.217
 3885WAT     H111897   1.679   3.392   4.310
 3885WAT     H211898   1.792   3.346   4.202
 3886WAT      O11899   6.978   5.967   7.722
 3886WAT     H111900   7.040   5.919   7.660
 3886WAT     H211901   6.955   5.907   7.799
 3887WAT      O11902   0.905   7.630   9.360
 3887WAT     H111903   0.985   7.663   9.310
 3887WAT     H211904   0.930   7.547   9.411
 3888WAT      O11905   9.806   9.046   7.487
 3888WAT     H111906   9.798   9.145   7.475
 3888WAT     H211907   9.716   9.008   7.510
 3889WAT      O11908   7.455   9.772   7.769
 3889WAT     H111909   7.366   9.815   7.752
 3889WAT     H211910   7.507   9.828   7.834
 3890WAT      O11911   9.641   3.691   4.719
 3890WAT     H111912   9.680   3.772   4.674
 3890WAT     H211913   9.610   3.717   4.811
 3891WAT      O11914   6.547   2.418   0.231
 3891WAT     H111915   6.623   2.367   0.270
 3891WAT     H211916   6.539   2.506   0.278
 3892WAT      O11917   1.807   7.735   4.525
 3892WAT     H111918   1.874   7.784   4.470
 3892WAT     H211919   1.822   7.636   4.516
 3893WAT      O11920   9.350   8.056   7.829
 3893WAT     H111921   9.325   8.065   7.732
 3893WAT     H211922   9.372   7.960   7.848
 3894WAT      O11923   2.850   3.932   8.368
 3894WAT     H111924   2.778   3.986   8.325
 3894WAT     H211925   2.912   3.897   8.298
 3895WAT      O11926   5.710   0.788   1.230
 3895WAT     H111927   5.794   0.734   1.222
 3895WAT     H211928   5.724   0.877   1.186
 3896WAT      O11929   9.506   0.391   8.057
 3896WAT     H111930   9.559   0.327   8.002
 3896WAT     H211931   9.557   0.414   8.140
 3897WAT      O11932   2.136   6.031   0.451
 3897WAT     H111933   2.129   6.094   0.528
 3897WAT     H211934   2.044   6.008   0.419
 3898WAT      O11935   3.999   0.540   3.467
 3898WAT     H111936   3.909   0.561   3.429
 3898WAT     H211937   4.050   0.624   3.482
 3899WAT      O11938   9.681   7.187   7.059
 3899WAT     H111939   9.633   7.261   7.105
 3899WAT     H211940   9.756   7.224   7.004
 3900WAT      O11941   1.928   1.759   7.563
 3900WAT     H111942   1.910   1.699   7.485
 3900WAT     H211943   1.864   1.836   7.561
 3901WAT      O11944   9.706   3.007   4.707
 3901WAT     H111945   9.672   3.089   4.660
 3901WAT     H211946   9.652   2.991   4.790
 3902WAT      O11947   1.658   5.771   2.741
 3902WAT     H111948   1.660   5.671   2.749
 3902WAT     H211949   1.631   5.810   2.829
 3903WAT      O11950   1.783   9.096   1.448
 3903WAT     H111951   1.688   9.083   1.417
 3903WAT     H211952   1.824   9.171   1.397
 3904WAT      O11953   7.276   8.574   2.554
 3904WAT     H111954   7.182   8.554   2.526
 3904WAT     H211955   7.275   8.622   2.642
 3905WAT      O11956   7.631   3.841   7.106
 3905WAT     H111957   7.669   3.817   7.017
 3905WAT     H211958   7.570   3.769   7.137
 3906WAT      O11959   7.678   0.803   3.147
 3906WAT     H111960   7.731   0.734   3.197
 3906WAT     H211961   7.651   0.876   3.209
 3907WAT      O11962   1.282   7.793   1.842
 3907WAT     H111963   1.334   7.852   1.780
 3907WAT     H211964   1.275   7.837   1.931
 3908WAT      O11965   4.714   8.195   8.641
 3908WAT     H111966   4.674   8.273   8.688
 3908WAT     H211967   4.771   8.143   8.705
 3909WAT      O11968   1.902   3.321   4.904
 3909WAT     H111969   1.850   3.407   4.894
 3909WAT     H211970   1.997   3.337   4.878
 3910WAT      O11971   9.534   7.913   1.301
 3910WAT     H111972   9.476   7.833   1.288
 3910WAT     H211973   9.591   7.900   1.382
 3911WAT      O11974   2.542   6.469   3.903
 3911WAT     H111975   2.471   6.458   3.972
 3911WAT     H211976   2.532   6.397   3.833
 3912WAT      O11977   8.884   7.681   8.518
 3912WAT     H111978   8.901   7.666   8.615
 3912WAT     H211979   8.791   7.717   8.505
 3913WAT      O11980   6.580   4.549   7.579
 3913WAT     H111981   6.533   4.621   7.527
 3913WAT     H211982   6.632   4.590   7.653
 3914WAT      O11983   3.017   7.321   4.265
 3914WAT     H111984   2.921   7.318   4.291
 3914WAT     H211985   3.025   7.349   4.169
 3915WAT      O11986   6.239   1.675   3.477
 3915WAT     H111987   6.166   1.607   3.486
 3915WAT     H211988   6.326   1.628   3.461
 3916WAT      O11989   4.029   4.455   5.214
 3916WAT     H111990   4.037   4.547   5.178
 3916WAT     H211991   3.936   4.421   5.198
 3917WAT      O11992   8.043   1.576   0.040
 3917WAT     H111993   8.057   1.670   0.071
 3917WAT     H211994   8.095   1.513   0.098
 3918WAT      O11995   2.520   9.742   6.732
 3918WAT     H111996   2.618   9.728   6.748
 3918WAT     H211997   2.506   9.803   6.654
 3919WAT      O11998   1.191   7.475   0.684
 3919WAT     H111999   1.102   7.514   0.661
 3919WAT     H212000   1.196   7.381   0.651
 3920WAT      O12001   7.681   0.341   0.239
 3920WAT     H112002   7.726   0.430   0.241
 3920WAT     H212003   7.723   0.283   0.169
 3921WAT      O12004   8.557   1.947   2.393
 3921WAT     H112005   8.519   1.883   2.460
 3921WAT     H212006   8.655   1.957   2.410
 3922WAT      O12007   6.881   0.468   4.755
 3922WAT     H112008   6.912   0.560   4.781
 3922WAT     H212009   6.828   0.429   4.830
 3923WAT      O12010   3.186   2.824   1.742
 3923WAT     H112011   3.214   2.730   1.722
 3923WAT     H212012   3.102   2.845   1.693
 3924WAT      O12013   5.499   9.825   8.661
 3924WAT     H112014   5.487   9.822   8.760
 3924WAT     H212015   5.520   9.734   8.627
 3925WAT      O12016   2.247   9.676   0.842
 3925WAT     H112017   2.282   9.654   0.750
 3925WAT     H212018   2.297   9.754   0.879
 3926WAT      O12019   1.860   4.288   6.644
 3926WAT     H112020   1.820   4.209   6.690
 3926WAT     H212021   1.943   4.316   6.693
 3927WAT      O12022   9.229   6.218   5.955
 3927WAT     H112023   9.260   6.133   5.997
 3927WAT     H212024   9.131   6.210   5.934
 3928WAT      O12025   2.070   0.285   6.711
 3928WAT     H112026   2.012   0.324   6.783
 3928WAT     H212027   2.139   0.225   6.752
 3929WAT      O12028   7.815   4.512   0.944
 3929WAT     H112029   7.729   4.510   0.996
 3929WAT     H212030   7.817   4.593   0.885
 3930WAT      O12031   5.911   7.700   3.836
 3930WAT     H112032   5.963   7.721   3.918
 3930WAT     H212033   5.827   7.652   3.861
 3931WAT      O12034   6.501   8.793   3.631
 3931WAT     H112035   6.520   8.752   3.542
 3931WAT     H212036   6.588   8.811   3.679
 3932WAT      O12037   6.645   5.029   5.485
 3932WAT     H112038   6.556   4.983   5.489
 3932WAT     H212039   6.701   4.988   5.413
 3933WAT      O12040   3.151   6.500   3.309
 3933WAT     H112041   3.245   6.493   3.344
 3933WAT     H212042   3.121   6.411   3.275
 3934WAT      O12043   4.993   7.081   5.150
 3934WAT     H112044   4.902   7.121   5.160
 3934WAT     H212045   5.003   7.044   5.058
 3935WAT      O12046   8.149   1.062   0.230
 3935WAT     H112047   8.187   0.973   0.254
 3935WAT     H212048   8.120   1.061   0.134
 3936WAT      O12049   6.378   7.368   1.029
 3936WAT     H112050   6.330   7.321   0.956
 3936WAT     H212051   6.316   7.384   1.105
 3937WAT      O12052   8.357   0.757   1.245
 3937WAT     H112053   8.286   0.690   1.226
 3937WAT     H212054   8.391   0.745   1.338
 3938WAT      O12055   1.369   7.453   9.448
 3938WAT     H112056   1.315   7.386   9.499
 3938WAT     H212057   1.445   7.485   9.505
 3939WAT      O12058   8.031   8.266   3.788
 3939WAT     H112059   8.064   8.332   3.856
 3939WAT     H212060   8.022   8.311   3.699
 3940WAT      O12061   9.543   4.948   8.044
 3940WAT     H112062   9.474   4.925   8.113
 3940WAT     H212063   9.594   4.865   8.020
 3941WAT      O12064   2.978   9.400   8.123
 3941WAT     H112065   3.055   9.446   8.078
 3941WAT     H212066   2.951   9.320   8.070
 3942WAT      O12067   3.430   1.028   4.796
 3942WAT     H112068   3.504   0.963   4.780
 3942WAT     H212069   3.348   0.997   4.749
 3943WAT      O12070   1.107   5.818   1.039
 3943WAT     H112071   1.043   5.765   0.983
 3943WAT     H212072   1.172   5.756   1.083
 3944WAT      O12073   8.618   2.204   2.017
 3944WAT     H112074   8.555   2.153   2.076
 3944WAT     H212075   8.660   2.141   1.952
 3945WAT      O12076   6.692   2.553   2.172
 3945WAT     H112077   6.760   2.505   2.117
 3945WAT     H212078   6.702   2.528   2.268
 3946WAT      O12079   1.796   3.036   1.330
 3946WAT     H112080   1.771   2.987   1.246
 3946WAT     H212081   1.873   3.097   1.310
 3947WAT      O12082   4.770   8.610   7.408
 3947WAT     H112083   4.733   8.541   7.470
 3947WAT     H212084   4.844   8.660   7.453
 3948WAT      O12085   0.881   3.228   6.008
 3948WAT     H112086   0.910   3.152   5.948
 3948WAT     H212087   0.946   3.304   5.998
 3949WAT      O12088   6.065   9.599   5.362
 3949WAT     H112089   6.084   9.658   5.283
 3949WAT     H212090   6.082   9.504   5.337
 3950WAT      O12091   5.714   3.730   5.395
 3950WAT     H112092   5.673   3.669   5.462
 3950WAT     H212093   5.655   3.809   5.380
 3951WAT      O12094   4.137   7.416   0.584
 3951WAT     H112095   4.054   7.373   0.619
 3951WAT     H212096   4.197   7.440   0.660
 3952WAT      O12097   4.518   2.393   0.337
 3952WAT     H112098   4.424   2.395   0.371
 3952WAT     H212099   4.522   2.436   0.246
 3953WAT      O12100   6.164   0.320   7.263
 3953WAT     H112101   6.260   0.305   7.242
 3953WAT     H212102   6.143   0.283   7.353
 3954WAT      O12103   1.001   2.769   7.519
 3954WAT     H112104   0.917   2.808   7.480
 3954WAT     H212105   1.030   2.691   7.463
 3955WAT      O12106   7.840   1.072   3.763
 3955WAT     H112107   7.750   1.115   3.753
 3955WAT     H212108   7.893   1.122   3.832
 3956WAT      O12109   1.391   8.076   7.042
 3956WAT     H112110   1.432   8.001   7.095
 3956WAT     H212111   1.455   8.104   6.970
 3957WAT      O12112   6.610   1.560   9.820
 3957WAT     H112113   6.518   1.578   9.855
 3957WAT     H212114   6.630   1.462   9.829
 3958WAT      O12115   7.914   4.341   1.292
 3958WAT     H112116   7.956   4.380   1.210
 3958WAT     H212117   7.948   4.248   1.307
 3959WAT      O12118   8.301   7.533   9.396
 3959WAT     H112119   8.293   7.633   9.403
 3959WAT     H212120   8.213   7.491   9.419
 3960WAT      O12121   1.372   0.067   0.133
 3960WAT     H112122   1.458   0.025   0.103
 3960WAT     H212123   1.302   0.052   0.063
 3961WAT      O12124   5.799   0.599   0.879
 3961WAT     H112125   5.801   0.657   0.798
 3961WAT     H212126   5.868   0.527   0.871
 3962WAT      O12127   3.941   3.483   6.933
 3962WAT     H112128   3.848   3.447   6.936
 3962WAT     H212129   3.976   3.493   7.026
 3963WAT      O12130   9.118   6.649   3.660
 3963WAT     H112131   9.022   6.649   3.686
 3963WAT     H212132   9.160   6.735   3.690
 3964WAT      O12133   9.107   6.040   6.498
 3964WAT     H112134   9.180   6.035   6.566
 3964WAT     H212135   9.022   6.006   6.538
 3965WAT      O12136   8.607   6.408   1.448
 3965WAT     H112137   8.647   6.328   1.492
 3965WAT     H212138   8.633   6.410   1.351
 3966WAT      O12139   8.460   8.253   9.468
 3966WAT     H112140   8.415   8.338   9.441
 3966WAT     H212141   8.415   8.175   9.423
 3967WAT      O12142   7.960   3.351   5.587
 3967WAT     H112143   8.017   3.429   5.611
 3967WAT     H212144   8.015   3.284   5.537
 3968WAT      O12145   5.820   6.602   3.549
 3968WAT     H112146   5.908   6.646   3.533
 3968WAT     H212147   5.819   6.511   3.506
 3969WAT      O12148   3.273   9.037   1.050
 3969WAT     H112149   3.221   9.022   0.966
 3969WAT     H212150   3.217   9.014   1.129
 3970WAT      O12151   0.899   2.150   2.857
 3970WAT     H112152   0.940   2.070   2.902
 3970WAT     H212153   0.969   2.219   2.841
 3971WAT      O12154   6.950   7.522   3.475
 3971WAT     H112155   7.026   7.457   3.473
 3971WAT     H212156   6.981   7.609   3.437
 3972WAT      O12157   4.796   2.208   1.629
 3972WAT     H112158   4.847   2.125   1.607
 3972WAT     H212159   4.789   2.265   1.547
 3973WAT      O12160   4.289   4.402   6.721
 3973WAT     H112161   4.216   4.374   6.660
 3973WAT     H212162   4.376   4.365   6.690
 3974WAT      O12163   6.771   6.801   6.394
 3974WAT     H112164   6.808   6.716   6.354
 3974WAT     H212165   6.700   6.778   6.460
 3975WAT      O12166   0.923   8.966   9.557
 3975WAT     H112167   1.004   8.916   9.588
 3975WAT     H212168   0.844   8.935   9.609
 3976WAT      O12169   0.304   7.798   6.147
 3976WAT     H112170   0.390   7.847   6.157
 3976WAT     H212171   0.254   7.834   6.068
 3977WAT      O12172   5.617   9.130   5.688
 3977WAT     H112173   5.676   9.182   5.750
 3977WAT     H212174   5.623   9.033   5.711
 3978WAT      O12175   9.094   1.221   8.192
 3978WAT     H112176   9.138   1.291   8.134
 3978WAT     H212177   8.998   1.245   8.207
 3979WAT      O12178   7.120   7.447   1.124
 3979WAT     H112179   7.097   7.540   1.150
 3979WAT     H212180   7.204   7.419   1.172
 3980WAT      O12181   5.558   6.760   4.155
 3980WAT     H112182   5.593   6.705   4.079
 3980WAT     H212183   5.550   6.702   4.236
 3981WAT      O12184   5.914   5.569   6.388
 3981WAT     H112185   5.848   5.628   6.342
 3981WAT     H212186   5.870   5.482   6.412
 3982WAT      O12187   4.650   4.984   7.412
 3982WAT     H112188   4.613   4.905   7.461
 3982WAT     H212189   4.576   5.048   7.392
 3983WAT      O12190   7.678   2.235   8.703
 3983WAT     H112191   7.731   2.194   8.629
 3983WAT     H212192   7.732   2.234   8.787
 3984WAT      O12193   5.118   5.369   4.122
 3984WAT     H112194   5.168   5.438   4.175
 3984WAT     H212195   5.135   5.278   4.160
 3985WAT      O12196   4.687   8.228   0.480
 3985WAT     H112197   4.592   8.223   0.510
 3985WAT     H212198   4.710   8.145   0.429
 3986WAT      O12199   0.489   0.324   4.030
 3986WAT     H112200   0.587   0.340   4.023
 3986WAT     H212201   0.442   0.411   4.045
 3987WAT      O12202   2.695   8.897   1.430
 3987WAT     H112203   2.762   8.851   1.372
 3987WAT     H212204   2.740   8.972   1.479
 3988WAT      O12205   0.327   5.730   2.932
 3988WAT     H112206   0.386   5.695   2.859
 3988WAT     H212207   0.272   5.805   2.896
 3989WAT      O12208   0.902   7.765   0.365
 3989WAT     H112209   0.915   7.792   0.460
 3989WAT     H212210   0.818   7.711   0.357
 3990WAT      O12211   1.789   4.435   5.400
 3990WAT     H112212   1.747   4.351   5.433
 3990WAT     H212213   1.839   4.479   5.475
 3991WAT      O12214   2.843   9.622   7.777
 3991WAT     H112215   2.799   9.627   7.687
 3991WAT     H212216   2.819   9.536   7.822
 3992WAT      O12217   6.149   8.058   0.915
 3992WAT     H112218   6.216   7.991   0.946
 3992WAT     H212219   6.058   8.032   0.948
 3993WAT      O12220   1.701   9.049   2.795
 3993WAT     H112221   1.699   8.950   2.779
 3993WAT     H212222   1.609   9.086   2.783
 3994WAT      O12223   5.923   5.161   2.323
 3994WAT     H112224   5.957   5.207   2.242
 3994WAT     H212225   5.925   5.223   2.401
 3995WAT      O12226   7.217   1.810   9.397
 3995WAT     H112227   7.187   1.878   9.464
 3995WAT     H212228   7.237   1.724   9.444
 3996WAT      O12229   4.160   4.286   9.209
 3996WAT     H112230   4.158   4.250   9.116
 3996WAT     H212231   4.130   4.216   9.273
 3997WAT      O12232   4.907   5.922   4.752
 3997WAT     H112233   4.816   5.907   4.714
 3997WAT     H212234   4.967   5.847   4.725
 3998WAT      O12235   5.347   2.199   7.271
 3998WAT     H112236   5.378   2.169   7.361
 3998WAT     H212237   5.247   2.201   7.269
 3999WAT      O12238   3.808   0.106   0.733
 3999WAT     H112239   3.809   0.198   0.771
 3999WAT     H212240   3.762   0.108   0.644
 4000WAT      O12241   9.844   9.356   9.653
 4000WAT     H112242   9.800   9.277   9.695
 4000WAT     H212243   9.808   9.440   9.693
 4001WAT      O12244   0.592   4.294   7.414
 4001WAT     H112245   0.566   4.390   7.418
 4001WAT     H212246   0.526   4.244   7.356
 4002WAT      O12247   7.291   5.228   1.235
 4002WAT     H112248   7.293   5.129   1.221
 4002WAT     H212249   7.337   5.250   1.321
 4003WAT      O12250   2.737   5.222   2.962
 4003WAT     H112251   2.710   5.317   2.977
 4003WAT     H212252   2.681   5.182   2.890
 4004WAT      O12253   7.741   6.527   4.545
 4004WAT     H112254   7.774   6.585   4.470
 4004WAT     H212255   7.735   6.580   4.629
 4005WAT      O12256   0.406   4.971   7.217
 4005WAT     H112257   0.375   4.919   7.138
 4005WAT     H212258   0.374   5.065   7.210
 4006WAT      O12259   3.813   0.473   3.971
 4006WAT     H112260   3.761   0.451   4.053
 4006WAT     H212261   3.750   0.495   3.896
 4007WAT      O12262   5.110   8.624   4.926
 4007WAT     H112263   5.135   8.651   5.019
 4007WAT     H212264   5.180   8.655   4.862
 4008WAT      O12265   1.138   0.467   7.160
 4008WAT     H112266   1.225   0.473   7.208
 4008WAT     H212267   1.068   0.517   7.211
 4009WAT      O12268   8.917   3.171   3.280
 4009WAT     H112269   8.988   3.117   3.234
 4009WAT     H212270   8.960   3.244   3.333
 4010WAT      O12271   9.266   4.825   4.526
 4010WAT     H112272   9.253   4.852   4.430
 4010WAT     H212273   9.194   4.760   4.552
 4011WAT      O12274   8.671   3.355   8.999
 4011WAT     H112275   8.591   3.296   8.991
 4011WAT     H212276   8.714   3.365   8.909
 4012WAT      O12277   3.644   6.545   2.078
 4012WAT     H112278   3.681   6.559   2.169
 4012WAT     H212279   3.679   6.615   2.016
 4013WAT      O12280   0.467   5.210   3.839
 4013WAT     H112281   0.384   5.218   3.785
 4013WAT     H212282   0.529   5.286   3.816
 4014WAT      O12283   9.877   5.805   1.150
 4014WAT     H112284   9.896   5.902   1.169
 4014WAT     H212285   9.903   5.750   1.229
 4015WAT      O12286   0.621   5.333   5.451
 4015WAT     H112287   0.671   5.352   5.367
 4015WAT     H212288   0.634   5.238   5.477
 4016WAT      O12289   9.625   8.398   3.141
 4016WAT     H112290   9.695   8.399   3.213
 4016WAT     H212291   9.545   8.348   3.173
 4017WAT      O12292   9.849   9.745   5.448
 4017WAT     H112293   9.879   9.674   5.511
 4017WAT     H212294   9.749   9.749   5.447
 4018WAT      O12295   5.458   1.916   1.583
 4018WAT     H112296   5.427   1.854   1.511
 4018WAT     H212297   5.530   1.872   1.637
 4019WAT      O12298   2.163   3.396   1.967
 4019WAT     H112299   2.089   3.375   2.031
 4019WAT     H212300   2.173   3.495   1.959
 4020WAT      O12301   9.700   2.485   1.833
 4020WAT     H112302   9.616   2.455   1.879
 4020WAT     H212303   9.680   2.563   1.775
 4021WAT      O12304   2.188   9.430   2.968
 4021WAT     H112305   2.205   9.337   2.999
 4021WAT     H212306   2.142   9.481   3.040
 4022WAT      O12307   7.131   8.579   6.458
 4022WAT     H112308   7.098   8.489   6.427
 4022WAT     H212309   7.163   8.631   6.380
 4023WAT      O12310   0.063   3.422   7.459
 4023WAT     H112311   0.101   3.450   7.371
 4023WAT     H212312   0.123   3.453   7.533
 4024WAT      O12313   6.437   7.450   3.482
 4024WAT     H112314   6.357   7.499   3.447
 4024WAT     H212315   6.409   7.362   3.519
 4025WAT      O12316   2.673   4.479   2.423
 4025WAT     H112317   2.600   4.547   2.416
 4025WAT     H212318   2.653   4.418   2.500
 4026WAT      O12319   5.382   2.480   2.049
 4026WAT     H112320   5.297   2.486   1.997
 4026WAT     H212321   5.371   2.413   2.123
 4027WAT      O12322   1.830   0.417   2.528
 4027WAT     H112323   1.810   0.513   2.544
 4027WAT     H212324   1.788   0.388   2.442
 4028WAT      O12325   8.865   2.881   1.989
 4028WAT     H112326   8.849   2.820   1.912
 4028WAT     H212327   8.963   2.888   2.007
 4029WAT      O12328   1.754   7.709   0.310
 4029WAT     H112329   1.733   7.647   0.385
 4029WAT     H212330   1.674   7.766   0.291
 4030WAT      O12331   8.520   7.133   8.482
 4030WAT     H112332   8.537   7.035   8.479
 4030WAT     H212333   8.544   7.174   8.394
 4031WAT      O12334   4.016   9.389   0.581
 4031WAT     H112335   4.001   9.349   0.672
 4031WAT     H212336   3.947   9.354   0.518
 4032WAT      O12337   0.721   4.510   6.288
 4032WAT     H112338   0.634   4.469   6.319
 4032WAT     H212339   0.789   4.437   6.276
 4033WAT      O12340   9.122   4.088   3.049
 4033WAT     H112341   9.139   4.152   3.124
 4033WAT     H212342   9.207   4.072   2.998
 4034WAT      O12343   8.394   8.798   4.382
 4034WAT     H112344   8.335   8.873   4.413
 4034WAT     H212345   8.484   8.835   4.358
 4035WAT      O12346   9.324   7.427   6.205
 4035WAT     H112347   9.234   7.431   6.163
 4035WAT     H212348   9.380   7.358   6.159
 4036WAT      O12349   0.519   3.198   7.869
 4036WAT     H112350   0.557   3.231   7.783
 4036WAT     H212351   0.563   3.246   7.945
 4037WAT      O12352   4.146   4.941   4.917
 4037WAT     H112353   4.240   4.968   4.938
 4037WAT     H212354   4.145   4.849   4.880
 4038WAT      O12355   2.860   6.237   2.723
 4038WAT     H112356   2.955   6.224   2.694
 4038WAT     H212357   2.839   6.173   2.797
 4039WAT      O12358   4.675   0.175   0.712
 4039WAT     H112359   4.693   0.216   0.801
 4039WAT     H212360   4.723   0.227   0.641
 4040WAT      O12361   8.275   3.873   4.839
 4040WAT     H112362   8.291   3.902   4.933
 4040WAT     H212363   8.300   3.947   4.777
 4041WAT      O12364   9.277   8.024   5.532
 4041WAT     H112365   9.289   7.950   5.466
 4041WAT     H212366   9.230   8.101   5.488
 4042WAT      O12367   1.424   8.711   2.857
 4042WAT     H112368   1.424   8.634   2.920
 4042WAT     H212369   1.516   8.749   2.850
 4043WAT      O12370   9.399   4.690   0.673
 4043WAT     H112371   9.453   4.705   0.756
 4043WAT     H212372   9.451   4.631   0.611
 4044WAT      O12373   9.618   4.377   6.847
 4044WAT     H112374   9.536   4.434   6.834
 4044WAT     H212375   9.598   4.283   6.818
 4045WAT      O12376   4.122   0.918   1.770
 4045WAT     H112377   4.214   0.903   1.808
 4045WAT     H212378   4.129   0.934   1.671
 4046WAT      O12379   3.462   2.856   2.137
 4046WAT     H112380   3.419   2.766   2.144
 4046WAT     H212381   3.414   2.911   2.070
 4047WAT      O12382   3.409   5.768   1.579
 4047WAT     H112383   3.347   5.799   1.651
 4047WAT     H212384   3.356   5.723   1.507
 4048WAT      O12385   2.642   7.864   6.977
 4048WAT     H112386   2.601   7.773   6.979
 4048WAT     H212387   2.589   7.925   7.036
 4049WAT      O12388   8.620   2.795   6.739
 4049WAT     H112389   8.645   2.701   6.718
 4049WAT     H212390   8.701   2.845   6.770
 4050WAT      O12391   7.996   5.397   8.004
 4050WAT     H112392   7.957   5.315   7.962
 4050WAT     H212393   8.081   5.373   8.051
 4051WAT      O12394   0.208   9.010   1.470
 4051WAT     H112395   0.238   9.041   1.560
 4051WAT     H212396   0.128   9.063   1.441
 4052WAT      O12397   8.022   1.505   6.403
 4052WAT     H112398   8.038   1.428   6.464
 4052WAT     H212399   8.049   1.480   6.310
 4053WAT      O12400   3.526   2.435   2.163
 4053WAT     H112401   3.563   2.343   2.177
 4053WAT     H212402   3.587   2.503   2.205
 4054WAT      O12403   5.584   4.085   4.420
 4054WAT     H112404   5.678   4.088   4.454
 4054WAT     H212405   5.537   4.007   4.460
 4055WAT      O12406   7.879   6.677   4.345
 4055WAT     H112407   7.898   6.767   4.385
 4055WAT     H212408   7.816   6.688   4.268
 4056WAT      O12409   8.225   0.320   3.486
 4056WAT     H112410   8.139   0.323   3.434
 4056WAT     H212411   8.204   0.327   3.584
 4057WAT      O12412   9.139   9.467   2.525
 4057WAT     H112413   9.040   9.461   2.507
 4057WAT     H212414   9.188   9.407   2.462
 4058WAT      O12415   1.378   5.775   8.099
 4058WAT     H112416   1.354   5.791   8.003
 4058WAT     H212417   1.462   5.720   8.103
 4059WAT      O12418   0.486   8.249   3.740
 4059WAT     H112419   0.512   8.208   3.653
 4059WAT     H212420   0.566   8.291   3.783
 4060WAT      O12421   1.578   6.508   9.397
 4060WAT     H112422   1.653   6.475   9.453
 4060WAT     H212423   1.611   6.583   9.338
 4061WAT      O12424   8.239   8.519   4.764
 4061WAT     H112425   8.214   8.610   4.731
 4061WAT     H212426   8.158   8.461   4.767
 4062WAT      O12427   9.368   5.197   5.732
 4062WAT     H112428   9.399   5.115   5.682
 4062WAT     H212429   9.327   5.261   5.668
 4063WAT      O12430   9.203   3.247   4.115
 4063WAT     H112431   9.289   3.298   4.106
 4063WAT     H212432   9.132   3.292   4.062
 4064WAT      O12433   0.603   4.539   5.823
 4064WAT     H112434   0.533   4.478   5.861
 4064WAT     H212435   0.654   4.492   5.752
 4065WAT      O12436   6.024   8.431   7.627
 4065WAT     H112437   5.949   8.383   7.581
 4065WAT     H212438   6.045   8.515   7.577
 4066WAT      O12439   5.067   0.618   1.797
 4066WAT     H112440   5.043   0.599   1.702
 4066WAT     H212441   5.164   0.597   1.812
 4067WAT      O12442   4.495   7.901   5.935
 4067WAT     H112443   4.398   7.878   5.939
 4067WAT     H212444   4.542   7.839   5.872
 4068WAT      O12445   1.209   2.616   9.357
 4068WAT     H112446   1.300   2.584   9.383
 4068WAT     H212447   1.161   2.648   9.439
 4069WAT      O12448   7.764   4.072   2.593
 4069WAT     H112449   7.744   4.154   2.645
 4069WAT     H212450   7.685   4.046   2.539
 4070WAT      O12451   4.072   8.703   6.261
 4070WAT     H112452   4.115   8.793   6.250
 4070WAT     H212453   4.009   8.705   6.339
 4071WAT      O12454   3.745   3.761   8.021
 4071WAT     H112455   3.715   3.825   7.951
 4071WAT     H212456   3.833   3.791   8.058
 4072WAT      O12457   0.440   9.415   4.896
 4072WAT     H112458   0.531   9.402   4.856
 4072WAT     H212459   0.448   9.473   4.977
 4073WAT      O12460   9.664   0.708   6.636
 4073WAT     H112461   9.597   0.673   6.571
 4073WAT     H212462   9.722   0.777   6.592
 4074WAT      O12463   2.683   4.912   5.894
 4074WAT     H112464   2.623   4.864   5.831
 4074WAT     H212465   2.692   4.859   5.979
 4075WAT      O12466   0.381   4.055   1.371
 4075WAT     H112467   0.312   4.006   1.425
 4075WAT     H212468   0.468   4.005   1.377
 4076WAT      O12469   9.816   7.681   7.582
 4076WAT     H112470   9.778   7.681   7.489
 4076WAT     H212471   9.775   7.607   7.635
 4077WAT      O12472   5.731   1.050   7.459
 4077WAT     H112473   5.643   1.002   7.467
 4077WAT     H212474   5.782   1.012   7.382
 4078WAT      O12475   8.643   4.708   9.410
 4078WAT     H112476   8.735   4.671   9.402
 4078WAT     H212477   8.617   4.716   9.506
 4079WAT      O12478   9.115   1.958   2.715
 4079WAT     H112479   9.047   2.025   2.746
 4079WAT     H212480   9.193   1.959   2.776
 4080WAT      O12481   1.987   2.136   5.266
 4080WAT     H112482   1.961   2.061   5.205
 4080WAT     H212483   1.958   2.223   5.226
 4081WAT      O12484   4.800   7.955   4.817
 4081WAT     H112485   4.886   7.941   4.767
 4081WAT     H212486   4.786   7.880   4.881
 4082WAT      O12487   1.240   0.402   9.661
 4082WAT     H112488   1.338   0.397   9.642
 4082WAT     H212489   1.209   0.315   9.699
 4083WAT      O12490   0.890   8.303   8.617
 4083WAT     H112491   0.959   8.307   8.689
 4083WAT     H212492   0.930   8.267   8.533
 4084WAT      O12493   9.433   2.373   3.914
 4084WAT     H112494   9.384   2.381   3.827
 4084WAT     H212495   9.369   2.382   3.990
 4085WAT      O12496   8.991   9.350   5.799
 4085WAT     H112497   8.920   9.343   5.869
 4085WAT     H212498   8.968   9.291   5.722
 4086WAT      O12499   0.924   3.732   7.158
 4086WAT     H112500   0.995   3.753   7.091
 4086WAT     H212501   0.896   3.637   7.147
 4087WAT      O12502   2.327   2.399   7.231
 4087WAT     H112503   2.273   2.343   7.168
 4087WAT     H212504   2.265   2.448   7.293
 4088WAT      O12505   9.610   7.017   1.898
 4088WAT     H112506   9.691   7.066   1.867
 4088WAT     H212507   9.632   6.961   1.978
 4089WAT      O12508   6.606   7.399   6.206
 4089WAT     H112509   6.678   7.346   6.249
 4089WAT     H212510   6.546   7.438   6.276
 4090WAT      O12511   5.507   3.015   4.835
 4090WAT     H112512   5.428   3.035   4.893
 4090WAT     H212513   5.475   2.988   4.744
 4091WAT      O12514   0.116   2.034   6.914
 4091WAT     H112515   0.076   2.125   6.896
 4091WAT     H212516   0.167   2.038   7.000
 4092WAT      O12517   7.200   0.440   5.086
 4092WAT     H112518   7.142   0.474   5.160
 4092WAT     H212519   7.296   0.446   5.115
 4093WAT      O12520   3.348   1.788   7.729
 4093WAT     H112521   3.300   1.701   7.714
 4093WAT     H212522   3.400   1.783   7.814
 4094WAT      O12523   2.573   4.435   7.607
 4094WAT     H112524   2.632   4.448   7.528
 4094WAT     H212525   2.495   4.379   7.582
 4095WAT      O12526   0.218   0.488   0.416
 4095WAT     H112527   0.124   0.501   0.448
 4095WAT     H212528   0.224   0.510   0.319
 4096WAT      O12529   9.025   5.383   0.809
 4096WAT     H112530   9.110   5.330   0.814
 4096WAT     H212531   9.043   5.471   0.764
 4097WAT      O12532   2.087   4.825   0.935
 4097WAT     H112533   2.033   4.743   0.955
 4097WAT     H212534   2.159   4.835   1.005
 4098WAT      O12535   8.608   7.824   6.932
 4098WAT     H112536   8.661   7.889   6.878
 4098WAT     H212537   8.600   7.738   6.883
 4099WAT      O12538   1.536   4.897   3.080
 4099WAT     H112539   1.454   4.887   3.136
 4099WAT     H212540   1.617   4.876   3.134
 4100WAT      O12541   8.930   0.848   8.699
 4100WAT     H112542   8.942   0.943   8.671
 4100WAT     H212543   8.868   0.843   8.777
 4101WAT      O12544   5.217   0.523   5.251
 4101WAT     H112545   5.187   0.431   5.227
 4101WAT     H212546   5.239   0.526   5.349
 4102WAT      O12547   4.247   1.224   4.560
 4102WAT     H112548   4.339   1.201   4.529
 4102WAT     H212549   4.228   1.321   4.540
 4103WAT      O12550   5.869   4.073   6.934
 4103WAT     H112551   5.954   4.124   6.950
 4103WAT     H212552   5.862   4.050   6.837
 4104WAT      O12553   7.516   8.146   1.413
 4104WAT     H112554   7.525   8.245   1.428
 4104WAT     H212555   7.596   8.099   1.452
 4105WAT      O12556   5.791   0.241   6.990
 4105WAT     H112557   5.702   0.280   7.014
 4105WAT     H212558   5.858   0.265   7.060
 4106WAT      O12559   2.215   9.213   3.594
 4106WAT     H112560   2.209   9.195   3.693
 4106WAT     H212561   2.286   9.155   3.554
 4107WAT      O12562   7.280   8.338   4.570
 4107WAT     H112563   7.232   8.272   4.630
 4107WAT     H212564   7.212   8.391   4.520
 4108WAT      O12565   7.629   6.708   5.117
 4108WAT     H112566   7.721   6.741   5.096
 4108WAT     H212567   7.626   6.674   5.211
 4109WAT      O12568   4.213   0.613   9.721
 4109WAT     H112569   4.186   0.709   9.713
 4109WAT     H212570   4.305   0.608   9.759
 4110WAT      O12571   2.539   9.690   3.115
 4110WAT     H112572   2.443   9.717   3.122
 4110WAT     H212573   2.572   9.704   3.022
 4111WAT      O12574   1.134   5.912   3.095
 4111WAT     H112575   1.231   5.925   3.116
 4111WAT     H212576   1.100   5.831   3.143
 4112WAT      O12577   4.742   4.070   2.599
 4112WAT     H112578   4.762   4.143   2.533
 4112WAT     H212579   4.825   4.019   2.619
 4113WAT      O12580   4.030   0.800   6.284
 4113WAT     H112581   3.957   0.744   6.322
 4113WAT     H212582   4.100   0.742   6.243
 4114WAT      O12583   5.376   8.665   2.434
 4114WAT     H112584   5.373   8.764   2.446
 4114WAT     H212585   5.432   8.624   2.506
 4115WAT      O12586   4.483   1.187   5.283
 4115WAT     H112587   4.451   1.094   5.267
 4115WAT     H212588   4.440   1.249   5.217
 4116WAT      O12589   6.900   6.161   1.268
 4116WAT     H112590   6.837   6.208   1.330
 4116WAT     H212591   6.910   6.214   1.184
 4117WAT      O12592   0.500   5.464   6.451
 4117WAT     H112593   0.411   5.443   6.493
 4117WAT     H212594   0.564   5.496   6.521
 4118WAT      O12595   5.310   7.393   1.509
 4118WAT     H112596   5.327   7.296   1.526
 4118WAT     H212597   5.280   7.437   1.593
 4119WAT      O12598   0.693   8.481   2.095
 4119WAT     H112599   0.656   8.570   2.122
 4119WAT     H212600   0.640   8.409   2.139
 4120WAT      O12601   1.419   0.676   0.196
 4120WAT     H112602   1.440   0.772   0.211
 4120WAT     H212603   1.355   0.667   0.119
 4121WAT      O12604   6.286   4.459   2.309
 4121WAT     H112605   6.304   4.440   2.213
 4121WAT     H212606   6.344   4.534   2.340
 4122WAT      O12607   8.028   9.125   4.461
 4122WAT     H112608   8.020   9.174   4.375
 4122WAT     H212609   7.943   9.074   4.478
 4123WAT      O12610   4.517   1.586   5.202
 4123WAT     H112611   4.442   1.646   5.230
 4123WAT     H212612   4.594   1.642   5.169
 4124WAT      O12613   5.621   5.070   7.278
 4124WAT     H112614   5.630   5.049   7.375
 4124WAT     H212615   5.542   5.129   7.263
 4125WAT      O12616   8.371   5.166   0.080
 4125WAT     H112617   8.368   5.093   0.148
 4125WAT     H212618   8.430   5.140   0.005
 4126WAT      O12619   0.584   8.240   3.121
 4126WAT     H112620   0.534   8.157   3.098
 4126WAT     H212621   0.596   8.246   3.220
 4127WAT      O12622   5.426   5.530   9.104
 4127WAT     H112623   5.506   5.548   9.162
 4127WAT     H212624   5.383   5.445   9.133
 4128WAT      O12625   4.202   6.985   8.709
 4128WAT     H112626   4.185   7.084   8.714
 4128WAT     H212627   4.234   6.952   8.798
 4129WAT      O12628   8.218   5.037   3.093
 4129WAT     H112629   8.215   4.937   3.092
 4129WAT     H212630   8.144   5.074   3.037
 4130WAT      O12631   6.301   0.845   4.404
 4130WAT     H112632   6.371   0.846   4.476
 4130WAT     H212633   6.281   0.939   4.376
 4131WAT      O12634   7.698   7.548   9.573
 4131WAT     H112635   7.671   7.638   9.608
 4131WAT     H212636   7.620   7.486   9.577
 4132WAT      O12637   5.358   7.242   1.097
 4132WAT     H112638   5.266   7.263   1.065
 4132WAT     H212639   5.402   7.325   1.130
 4133WAT      O12640   2.629   8.608   2.816
 4133WAT     H112641   2.663   8.695   2.852
 4133WAT     H212642   2.551   8.624   2.756
 4134WAT      O12643   7.080   5.226   9.334
 4134WAT     H112644   7.106   5.263   9.423
 4134WAT     H212645   6.988   5.187   9.339
 4135WAT      O12646   0.212   3.756   0.830
 4135WAT     H112647   0.138   3.786   0.769
 4135WAT     H212648   0.214   3.656   0.833
 4136WAT      O12649   9.409   8.401   7.271
 4136WAT     H112650   9.493   8.425   7.320
 4136WAT     H212651   9.335   8.462   7.299
 4137WAT      O12652   5.931   5.719   1.610
 4137WAT     H112653   5.984   5.741   1.692
 4137WAT     H212654   5.929   5.798   1.549
 4138WAT      O12655   5.767   5.659   2.685
 4138WAT     H112656   5.845   5.662   2.748
 4138WAT     H212657   5.798   5.678   2.592
 4139WAT      O12658   8.740   9.471   5.422
 4139WAT     H112659   8.661   9.461   5.481
 4139WAT     H212660   8.757   9.385   5.373
 4140WAT      O12661   5.184   5.403   6.981
 4140WAT     H112662   5.116   5.411   6.909
 4140WAT     H212663   5.244   5.325   6.963
 4141WAT      O12664   4.171   2.174   4.926
 4141WAT     H112665   4.199   2.080   4.905
 4141WAT     H212666   4.085   2.194   4.879
 4142WAT      O12667   7.293   5.181   5.273
 4142WAT     H112668   7.379   5.225   5.298
 4142WAT     H212669   7.300   5.082   5.288
 4143WAT      O12670   1.199   5.519   9.008
 4143WAT     H112671   1.221   5.613   8.979
 4143WAT     H212672   1.252   5.454   8.954
 4144WAT      O12673   3.909   3.459   6.132
 4144WAT     H112674   3.833   3.520   6.156
 4144WAT     H212675   3.961   3.500   6.057
 4145WAT      O12676   9.417   1.334   9.813
 4145WAT     H112677   9.483   1.377   9.752
 4145WAT     H212678   9.452   1.335   9.907
 4146WAT      O12679   1.055   1.832   4.414
 4146WAT     H112680   1.056   1.823   4.314
 4146WAT     H212681   1.091   1.748   4.455
 4147WAT      O12682   4.375   7.521   2.571
 4147WAT     H112683   4.411   7.491   2.483
 4147WAT     H212684   4.450   7.542   2.633
 4148WAT      O12685   4.234   5.300   8.941
 4148WAT     H112686   4.168   5.363   8.900
 4148WAT     H212687   4.308   5.283   8.875
 4149WAT      O12688   9.796   1.572   2.534
 4149WAT     H112689   9.771   1.478   2.514
 4149WAT     H212690   9.725   1.634   2.500
 4150WAT      O12691   2.302   1.005   6.021
 4150WAT     H112692   2.359   1.005   5.939
 4150WAT     H212693   2.211   1.039   5.998
 4151WAT      O12694   6.344   1.314   2.630
 4151WAT     H112695   6.354   1.403   2.585
 4151WAT     H212696   6.431   1.286   2.669
 4152WAT      O12697   3.001   3.011   4.481
 4152WAT     H112698   2.931   2.979   4.416
 4152WAT     H212699   3.049   2.932   4.518
 4153WAT      O12700   7.531   0.681   6.680
 4153WAT     H112701   7.534   0.780   6.690
 4153WAT     H212702   7.451   0.655   6.626
 4154WAT      O12703   4.451   0.070   2.313
 4154WAT     H112704   4.500  -0.014   2.338
 4154WAT     H212705   4.386   0.093   2.385
 4155WAT      O12706   4.062   1.960   0.839
 4155WAT     H112707   4.082   2.003   0.927
 4155WAT     H212708   3.963   1.951   0.828
 4156WAT      O12709   4.345   0.677   4.381
 4156WAT     H112710   4.340   0.659   4.283
 4156WAT     H212711   4.349   0.776   4.396
 4157WAT      O12712   8.069   5.039   2.814
 4157WAT     H112713   8.070   5.029   2.714
 4157WAT     H212714   7.981   5.007   2.849
 4158WAT      O12715   4.827   3.046   3.259
 4158WAT     H112716   4.729   3.064   3.266
 4158WAT     H212717   4.870   3.058   3.348
 4159WAT      O12718   6.577   6.013   1.034
 4159WAT     H112719   6.619   5.924   1.052
 4159WAT     H212720   6.509   6.003   0.961
 4160WAT      O12721   9.813   9.168   3.337
 4160WAT     H112722   9.750   9.237   3.303
 4160WAT     H212723   9.767   9.079   3.337
 4161WAT      O12724   7.317   8.870   5.697
 4161WAT     H112725   7.345   8.788   5.648
 4161WAT     H212726   7.369   8.877   5.783
 4162WAT      O12727   0.903   6.222   2.668
 4162WAT     H112728   0.804   6.218   2.656
 4162WAT     H212729   0.937   6.133   2.699
 4163WAT      O12730   9.794   7.194   3.910
 4163WAT     H112731   9.854   7.133   3.961
 4163WAT     H212732   9.781   7.158   3.817
 4164WAT      O12733   6.096   9.316   5.314
 4164WAT     H112734   6.147   9.240   5.273
 4164WAT     H212735   6.006   9.283   5.343
 4165WAT      O12736   6.659   3.803   8.008
 4165WAT     H112737   6.571   3.794   8.055
 4165WAT     H212738   6.710   3.880   8.047
 4166WAT      O12739   1.052   7.443   7.958
 4166WAT     H112740   0.987   7.384   7.910
 4166WAT     H212741   1.141   7.437   7.913
 4167WAT      O12742   8.563   1.368   1.964
 4167WAT     H112743   8.599   1.458   1.938
 4167WAT     H212744   8.566   1.359   2.064
 4168WAT      O12745   1.799   6.768   7.601
 4168WAT     H112746   1.708   6.726   7.594
 4168WAT     H212747   1.824   6.776   7.697
 4169WAT      O12748   0.465   8.365   5.744
 4169WAT     H112749   0.557   8.355   5.707
 4169WAT     H212750   0.470   8.384   5.842
 4170WAT      O12751   3.992   4.168   2.385
 4170WAT     H112752   4.049   4.087   2.398
 4170WAT     H212753   3.898   4.139   2.367
 4171WAT      O12754   8.109   7.615   5.587
 4171WAT     H112755   8.097   7.653   5.679
 4171WAT     H212756   8.187   7.552   5.586
 4172WAT      O12757   0.047   7.481   7.274
 4172WAT     H112758  -0.027   7.416   7.289
 4172WAT     H212759   0.012   7.574   7.285
 4173WAT      O12760   1.869   4.192   4.315
 4173WAT     H112761   1.963   4.160   4.327
 4173WAT     H212762   1.840   4.243   4.396
 4174WAT      O12763   2.255   0.722   0.198
 4174WAT     H112764   2.198   0.650   0.159
 4174WAT     H212765   2.351   0.699   0.185
 4175WAT      O12766   7.092   4.309   2.252
 4175WAT     H112767   7.110   4.402   2.284
 4175WAT     H212768   7.033   4.263   2.318
 4176WAT      O12769   1.861   5.364   0.825
 4176WAT     H112770   1.826   5.456   0.847
 4176WAT     H212771   1.942   5.372   0.768
 4177WAT      O12772   9.692   4.146   9.868
 4177WAT     H112773   9.767   4.090   9.903
 4177WAT     H212774   9.692   4.142   9.768
 4178WAT      O12775   2.267   1.608   0.775
 4178WAT     H112776   2.337   1.650   0.833
 4178WAT     H212777   2.217   1.679   0.726
 4179WAT      O12778   0.950   8.145   8.982
 4179WAT     H112779   1.003   8.202   8.918
 4179WAT     H212780   0.856   8.179   8.986
 4180WAT      O12781   0.189   1.593   0.361
 4180WAT     H112782   0.114   1.631   0.307
 4180WAT     H212783   0.245   1.533   0.304
 4181WAT      O12784   5.521   6.580   9.335
 4181WAT     H112785   5.571   6.608   9.416
 4181WAT     H212786   5.544   6.640   9.259
 4182WAT      O12787   1.691   6.514   0.441
 4182WAT     H112788   1.704   6.597   0.494
 4182WAT     H212789   1.616   6.526   0.376
 4183WAT      O12790   0.276   6.270   4.031
 4183WAT     H112791   0.349   6.310   4.087
 4183WAT     H212792   0.219   6.212   4.089
 4184WAT      O12793   7.076   3.128   2.517
 4184WAT     H112794   7.043   3.053   2.574
 4184WAT     H212795   7.106   3.092   2.429
 4185WAT      O12796   3.662   2.877   8.741
 4185WAT     H112797   3.584   2.902   8.685
 4185WAT     H212798   3.638   2.800   8.800
 4186WAT      O12799   3.876   4.603   8.253
 4186WAT     H112800   3.806   4.672   8.232
 4186WAT     H212801   3.934   4.590   8.173
 4187WAT      O12802   4.547   4.329   3.202
 4187WAT     H112803   4.545   4.230   3.211
 4187WAT     H212804   4.525   4.355   3.108
 4188WAT      O12805   5.525   5.630   4.346
 4188WAT     H112806   5.615   5.625   4.389
 4188WAT     H212807   5.532   5.679   4.259
 4189WAT      O12808   6.724   3.146   1.261
 4189WAT     H112809   6.780   3.071   1.297
 4189WAT     H212810   6.777   3.231   1.263
 4190WAT      O12811   6.021   1.346   9.735
 4190WAT     H112812   5.995   1.411   9.664
 4190WAT     H212813   5.938   1.309   9.779
 4191WAT      O12814   1.537   6.836   3.116
 4191WAT     H112815   1.586   6.873   3.037
 4191WAT     H212816   1.440   6.857   3.107
 4192WAT      O12817   2.329   5.296   6.556
 4192WAT     H112818   2.257   5.234   6.526
 4192WAT     H212819   2.392   5.313   6.481
 4193WAT      O12820   3.173   8.049   6.989
 4193WAT     H112821   3.263   8.008   6.974
 4193WAT     H212822   3.165   8.075   7.085
 4194WAT      O12823   3.437   7.731   0.703
 4194WAT     H112824   3.504   7.702   0.635
 4194WAT     H212825   3.484   7.779   0.777
 4195WAT      O12826   5.281   5.489   8.021
 4195WAT     H112827   5.274   5.423   7.946
 4195WAT     H212828   5.254   5.579   7.989
 4196WAT      O12829   3.217   1.142   7.160
 4196WAT     H112830   3.182   1.057   7.121
 4196WAT     H212831   3.239   1.207   7.087
 4197WAT      O12832   6.794   4.523   4.697
 4197WAT     H112833   6.736   4.483   4.768
 4197WAT     H212834   6.881   4.551   4.737
 4198WAT      O12835   2.363   8.354   7.372
 4198WAT     H112836   2.400   8.394   7.456
 4198WAT     H212837   2.265   8.375   7.366
 4199WAT      O12838   1.567   9.529   5.007
 4199WAT     H112839   1.611   9.478   4.933
 4199WAT     H212840   1.600   9.497   5.095
 4200WAT      O12841   4.884   1.949   4.764
 4200WAT     H112842   4.935   2.027   4.799
 4200WAT     H212843   4.794   1.980   4.733
 4201WAT      O12844   8.526   8.412   4.250
 4201WAT     H112845   8.591   8.406   4.326
 4201WAT     H212846   8.548   8.343   4.182
 4202WAT      O12847   3.906   5.773   9.494
 4202WAT     H112848   3.822   5.827   9.493
 4202WAT     H212849   3.963   5.803   9.570
 4203WAT      O12850   3.769   5.872   8.409
 4203WAT     H112851   3.827   5.835   8.483
 4203WAT     H212852   3.675   5.878   8.442
 4204WAT      O12853   0.165   1.546   9.685
 4204WAT     H112854   0.233   1.473   9.693
 4204WAT     H212855   0.211   1.634   9.673
 4205WAT      O12856   5.871   7.090   4.513
 4205WAT     H112857   5.951   7.031   4.502
 4205WAT     H212858   5.861   7.148   4.432
 4206WAT      O12859   5.539   8.518   7.042
 4206WAT     H112860   5.604   8.594   7.041
 4206WAT     H212861   5.451   8.551   7.077
 4207WAT      O12862   1.719   6.827   7.875
 4207WAT     H112863   1.705   6.766   7.953
 4207WAT     H212864   1.649   6.898   7.875
 4208WAT      O12865   2.878   0.885   6.064
 4208WAT     H112866   2.966   0.912   6.026
 4208WAT     H212867   2.825   0.967   6.088
 4209WAT      O12868   8.767   9.045   1.202
 4209WAT     H112869   8.832   9.089   1.265
 4209WAT     H212870   8.769   9.093   1.114
 4210WAT      O12871   3.835   9.035   3.157
 4210WAT     H112872   3.853   8.971   3.082
 4210WAT     H212873   3.907   9.105   3.159
 4211WAT      O12874   0.201   5.267   3.691
 4211WAT     H112875   0.103   5.288   3.698
 4211WAT     H212876   0.251   5.350   3.664
 4212WAT      O12877   0.977   6.930   4.585
 4212WAT     H112878   1.004   6.977   4.669
 4212WAT     H212879   0.878   6.913   4.587
 4213WAT      O12880   7.433   4.078   6.221
 4213WAT     H112881   7.426   4.095   6.123
 4213WAT     H212882   7.400   3.986   6.241
 4214WAT      O12883   6.450   8.794   6.171
 4214WAT     H112884   6.530   8.840   6.133
 4214WAT     H212885   6.385   8.776   6.097
 4215WAT      O12886   7.444   6.905   7.964
 4215WAT     H112887   7.370   6.958   7.924
 4215WAT     H212888   7.428   6.807   7.949
 4216WAT      O12889   5.075   7.744   7.372
 4216WAT     H112890   5.156   7.769   7.318
 4216WAT     H212891   5.001   7.717   7.310
 4217WAT      O12892   6.418   8.413   2.298
 4217WAT     H112893   6.450   8.319   2.306
 4217WAT     H212894   6.396   8.433   2.202
 4218WAT      O12895   6.150   6.698   3.876
 4218WAT     H112896   6.072   6.674   3.934
 4218WAT     H212897   6.126   6.775   3.817
 4219WAT      O12898   5.236   8.169   9.662
 4219WAT     H112899   5.233   8.237   9.735
 4219WAT     H212900   5.169   8.194   9.591
 4220WAT      O12901   5.462   6.682   5.092
 4220WAT     H112902   5.545   6.710   5.043
 4220WAT     H212903   5.388   6.669   5.026
 4221WAT      O12904   3.986   9.710   0.105
 4221WAT     H112905   4.068   9.654   0.090
 4221WAT     H212906   3.983   9.782   0.036
 4222WAT      O12907   6.140   1.432   2.336
 4222WAT     H112908   6.061   1.372   2.351
 4222WAT     H212909   6.109   1.518   2.297
 4223WAT      O12910   4.675   9.122   4.831
 4223WAT     H112911   4.671   9.136   4.733
 4223WAT     H212912   4.689   9.210   4.877
 4224WAT      O12913   8.202   7.375   7.568
 4224WAT     H112914   8.254   7.357   7.484
 4224WAT     H212915   8.106   7.388   7.546
 4225WAT      O12916   5.381   4.468   3.138
 4225WAT     H112917   5.343   4.524   3.212
 4225WAT     H212918   5.427   4.527   3.072
 4226WAT      O12919   4.113   9.563   9.195
 4226WAT     H112920   4.100   9.575   9.096
 4226WAT     H212921   4.146   9.649   9.234
 4227WAT      O12922   1.171   8.923   5.168
 4227WAT     H112923   1.247   8.867   5.201
 4227WAT     H212924   1.098   8.864   5.133
 4228WAT      O12925   1.554   8.589   8.014
 4228WAT     H112926   1.650   8.607   7.993
 4228WAT     H212927   1.533   8.626   8.105
 4229WAT      O12928   1.558   2.821   3.848
 4229WAT     H112929   1.530   2.916   3.859
 4229WAT     H212930   1.477   2.763   3.845
 4230WAT      O12931   2.107   6.718   4.441
 4230WAT     H112932   2.024   6.679   4.481
 4230WAT     H212933   2.089   6.812   4.412
 4231WAT      O12934   4.999   1.939   3.384
 4231WAT     H112935   4.943   1.991   3.319
 4231WAT     H212936   4.971   1.962   3.478
 4232WAT      O12937   1.639   1.414   7.309
 4232WAT     H112938   1.682   1.450   7.392
 4232WAT     H212939   1.635   1.487   7.240
 4233WAT      O12940   2.221   5.798   8.928
 4233WAT     H112941   2.248   5.835   9.017
 4233WAT     H212942   2.285   5.724   8.903
 4234WAT      O12943   6.051   9.052   0.471
 4234WAT     H112944   6.031   8.954   0.463
 4234WAT     H212945   5.969   9.105   0.446
 4235WAT      O12946   2.694   5.719   3.871
 4235WAT     H112947   2.675   5.791   3.937
 4235WAT     H212948   2.622   5.649   3.875
 4236WAT      O12949   6.552   0.784   9.245
 4236WAT     H112950   6.620   0.772   9.173
 4236WAT     H212951   6.491   0.859   9.220
 4237WAT      O12952   7.251   1.059   0.580
 4237WAT     H112953   7.195   0.982   0.613
 4237WAT     H212954   7.192   1.125   0.535
 4238WAT      O12955   6.565   5.237   4.304
 4238WAT     H112956   6.586   5.148   4.344
 4238WAT     H212957   6.484   5.275   4.349
 4239WAT      O12958   1.061   7.929   5.560
 4239WAT     H112959   0.995   7.947   5.633
 4239WAT     H212960   1.115   7.848   5.582
 4240WAT      O12961   1.226   0.621   7.560
 4240WAT     H112962   1.231   0.647   7.656
 4240WAT     H212963   1.204   0.524   7.553
 4241WAT      O12964   1.161   1.161   4.216
 4241WAT     H112965   1.091   1.222   4.179
 4241WAT     H212966   1.203   1.203   4.296
 4242WAT      O12967   6.375   7.570   6.084
 4242WAT     H112968   6.306   7.643   6.081
 4242WAT     H212969   6.460   7.606   6.123
 4243WAT      O12970   4.454   6.639   5.229
 4243WAT     H112971   4.442   6.661   5.132
 4243WAT     H212972   4.548   6.662   5.257
 4244WAT      O12973   8.096   2.752   9.436
 4244WAT     H112974   8.159   2.806   9.380
 4244WAT     H212975   8.029   2.707   9.376
 4245WAT      O12976   3.682   5.205   2.364
 4245WAT     H112977   3.614   5.224   2.435
 4245WAT     H212978   3.700   5.107   2.359
 4246WAT      O12979   3.927   3.398   3.281
 4246WAT     H112980   3.932   3.325   3.349
 4246WAT     H212981   4.006   3.459   3.292
 4247WAT      O12982   7.585   5.767   1.300
 4247WAT     H112983   7.662   5.734   1.246
 4247WAT     H212984   7.499   5.738   1.257
 4248WAT      O12985   2.502   6.764   2.083
 4248WAT     H112986   2.589   6.743   2.126
 4248WAT     H212987   2.479   6.691   2.018
 4249WAT      O12988   9.824   4.448   4.389
 4249WAT     H112989   9.861   4.528   4.342
 4249WAT     H212990   9.895   4.407   4.446
 4250WAT      O12991   8.741   0.024   5.083
 4250WAT     H112992   8.755   0.122   5.101
 4250WAT     H212993   8.780  -0.029   5.158
 4251WAT      O12994   4.390   2.875   3.371
 4251WAT     H112995   4.358   2.899   3.463
 4251WAT     H212996   4.313   2.847   3.315
 4252WAT      O12997   4.044   7.753   5.041
 4252WAT     H112998   3.954   7.777   5.078
 4252WAT     H212999   4.079   7.828   4.985
 4253WAT      O13000   1.878   0.340   6.906
 4253WAT     H113001   1.929   0.399   6.969
 4253WAT     H213002   1.858   0.253   6.952
 4254WAT      O13003   5.159   8.046   9.273
 4254WAT     H113004   5.123   8.095   9.352
 4254WAT     H213005   5.254   8.073   9.257
 4255WAT      O13006   5.030   9.351   4.428
 4255WAT     H113007   5.076   9.439   4.419
 4255WAT     H213008   5.069   9.301   4.505
 4256WAT      O13009   9.336   1.170   1.510
 4256WAT     H113010   9.271   1.205   1.578
 4256WAT     H213011   9.419   1.226   1.511
 4257WAT      O13012   3.728   1.680   9.119
 4257WAT     H113013   3.705   1.773   9.145
 4257WAT     H213014   3.645   1.624   9.116
 4258WAT      O13015   2.216   1.680   3.444
 4258WAT     H113016   2.149   1.666   3.517
 4258WAT     H213017   2.246   1.591   3.409
 4259WAT      O13018   4.907   3.484   1.198
 4259WAT     H113019   4.986   3.477   1.138
 4259WAT     H213020   4.910   3.571   1.247
 4260WAT      O13021   5.640   6.023   0.120
 4260WAT     H113022   5.632   6.000   0.023
 4260WAT     H213023   5.550   6.020   0.163
 4261WAT      O13024   8.229   9.184   8.550
 4261WAT     H113025   8.171   9.169   8.630
 4261WAT     H213026   8.305   9.245   8.574
 4262WAT      O13027   4.270   1.538   6.925
 4262WAT     H113028   4.249   1.596   6.846
 4262WAT     H213029   4.217   1.453   6.919
 4263WAT      O13030   5.457   0.055   9.491
 4263WAT     H113031   5.484   0.151   9.495
 4263WAT     H213032   5.522   0.005   9.434
 4264WAT      O13033   5.421   8.327   2.271
 4264WAT     H113034   5.415   8.239   2.319
 4264WAT     H213035   5.340   8.382   2.291
 4265WAT      O13036   1.762   5.651   3.290
 4265WAT     H113037   1.711   5.596   3.223
 4265WAT     H213038   1.822   5.714   3.241
 4266WAT      O13039   8.879   7.352   9.445
 4266WAT     H113040   8.832   7.266   9.461
 4266WAT     H213041   8.813   7.420   9.413
 4267WAT      O13042   2.137   3.893   2.543
 4267WAT     H113043   2.129   3.912   2.445
 4267WAT     H213044   2.067   3.945   2.592
 4268WAT      O13045   1.802   1.635   0.905
 4268WAT     H113046   1.879   1.572   0.916
 4268WAT     H213047   1.837   1.726   0.883
 4269WAT      O13048   8.148   0.605   3.347
 4269WAT     H113049   8.122   0.531   3.410
 4269WAT     H213050   8.241   0.635   3.367
 4270WAT      O13051   1.267   2.549   1.833
 4270WAT     H113052   1.278   2.510   1.924
 4270WAT     H213053   1.318   2.494   1.767
 4271WAT      O13054   5.117   8.122   1.571
 4271WAT     H113055   5.137   8.199   1.511
 4271WAT     H213056   5.106   8.155   1.665
 4272WAT      O13057   2.933   5.331   2.297
 4272WAT     H113058   2.897   5.310   2.206
 4272WAT     H213059   2.871   5.293   2.366
 4273WAT      O13060   8.687   8.863   8.226
 4273WAT     H113061   8.663   8.957   8.200
 4273WAT     H213062   8.626   8.799   8.181
 4274WAT      O13063   5.367   7.362   0.607
 4274WAT     H113064   5.304   7.292   0.641
 4274WAT     H213065   5.458   7.347   0.646
 4275WAT      O13066   6.943   8.407   6.707
 4275WAT     H113067   7.007   8.333   6.685
 4275WAT     H213068   6.994   8.490   6.730
 4276WAT      O13069   3.419   6.379   5.714
 4276WAT     H113070   3.509   6.351   5.747
 4276WAT     H213071   3.392   6.319   5.639
 4277WAT      O13072   7.117   7.981   3.267
 4277WAT     H113073   7.179   8.035   3.211
 4277WAT     H213074   7.066   8.042   3.328
 4278WAT      O13075   7.282   7.419   1.787
 4278WAT     H113076   7.338   7.491   1.830
 4278WAT     H213077   7.201   7.461   1.746
 4279WAT      O13078   5.449   9.361   0.090
 4279WAT     H113079   5.443   9.268   0.054
 4279WAT     H213080   5.362   9.387   0.131
 4280WAT      O13081   2.186   4.193   0.435
 4280WAT     H113082   2.162   4.101   0.464
 4280WAT     H213083   2.174   4.200   0.336
 4281WAT      O13084   5.652   1.147   2.333
 4281WAT     H113085   5.573   1.124   2.390
 4281WAT     H213086   5.630   1.127   2.237
 4282WAT      O13087   8.185   8.509   0.973
 4282WAT     H113088   8.280   8.479   0.982
 4282WAT     H213089   8.134   8.441   0.921
 4283WAT      O13090   7.576   6.661   9.733
 4283WAT     H113091   7.527   6.639   9.649
 4283WAT     H213092   7.605   6.576   9.778
 4284WAT      O13093   9.378   3.499   8.647
 4284WAT     H113094   9.352   3.569   8.581
 4284WAT     H213095   9.465   3.458   8.619
 4285WAT      O13096   5.129   8.070   1.168
 4285WAT     H113097   5.150   8.145   1.231
 4285WAT     H213098   5.030   8.063   1.157
 4286WAT      O13099   5.777   9.616   2.385
 4286WAT     H113100   5.704   9.548   2.378
 4286WAT     H213101   5.839   9.606   2.307
 4287WAT      O13102   7.955   7.634   6.259
 4287WAT     H113103   7.860   7.666   6.256
 4287WAT     H213104   8.016   7.708   6.228
 4288WAT      O13105   3.166   6.063   8.887
 4288WAT     H113106   3.235   6.108   8.831
 4288WAT     H213107   3.100   6.131   8.920
 4289WAT      O13108   6.271   5.393   0.699
 4289WAT     H113109   6.253   5.294   0.693
 4289WAT     H213110   6.298   5.427   0.610
 4290WAT      O13111   3.986   5.923   2.287
 4290WAT     H113112   3.942   5.925   2.197
 4290WAT     H213113   4.072   5.974   2.284
 4291WAT      O13114   4.879   4.455   3.328
 4291WAT     H113115   4.868   4.355   3.325
 4291WAT     H213116   4.789   4.498   3.338
 4292WAT      O13117   8.917   9.414   3.199
 4292WAT     H113118   8.900   9.421   3.101
 4292WAT     H213119   8.917   9.318   3.226
 4293WAT      O13120   2.580   5.015   4.666
 4293WAT     H113121   2.654   4.949   4.672
 4293WAT     H213122   2.527   5.014   4.752
 4294WAT      O13123   1.471   6.943   0.400
 4294WAT     H113124   1.392   6.896   0.440
 4294WAT     H213125   1.473   7.038   0.432
 4295WAT      O13126   2.775   6.396   4.054
 4295WAT     H113127   2.790   6.462   4.128
 4295WAT     H213128   2.683   6.406   4.018
 4296WAT      O13129   4.510   8.880   4.443
 4296WAT     H113130   4.521   8.834   4.355
 4296WAT     H213131   4.518   8.813   4.517
 4297WAT      O13132   0.957   5.019   0.168
 4297WAT     H113133   0.988   4.954   0.237
 4297WAT     H213134   0.905   5.092   0.212
 4298WAT      O13135   1.857   5.642   5.180
 4298WAT     H113136   1.929   5.616   5.116
 4298WAT     H213137   1.885   5.723   5.231
 4299WAT      O13138   8.673   7.916   2.665
 4299WAT     H113139   8.685   7.848   2.738
 4299WAT     H213140   8.666   7.869   2.577
 4300WAT      O13141   4.839   1.533   3.741
 4300WAT     H113142   4.878   1.513   3.651
 4300WAT     H213143   4.913   1.544   3.807
 4301WAT      O13144   1.298   4.704   6.106
 4301WAT     H113145   1.351   4.633   6.153
 4301WAT     H213146   1.337   4.719   6.015
 4302WAT      O13147   3.938   5.409   3.653
 4302WAT     H113148   3.922   5.504   3.628
 4302WAT     H213149   4.027   5.380   3.617
 4303WAT      O13150   0.803   7.172   9.354
 4303WAT     H113151   0.832   7.121   9.434
 4303WAT     H213152   0.880   7.223   9.316
 4304WAT      O13153   3.583   5.759   6.689
 4304WAT     H113154   3.606   5.770   6.592
 4304WAT     H213155   3.665   5.737   6.741
 4305WAT      O13156   2.960   8.736   2.666
 4305WAT     H113157   2.964   8.673   2.743
 4305WAT     H213158   3.037   8.800   2.671
 4306WAT      O13159   3.388   2.155   0.226
 4306WAT     H113160   3.441   2.221   0.172
 4306WAT     H213161   3.437   2.136   0.312
 4307WAT      O13162   0.559   8.045   0.379
 4307WAT     H113163   0.652   8.037   0.342
 4307WAT     H213164   0.496   7.992   0.322
 4308WAT      O13165   8.117   2.506   9.840
 4308WAT     H113166   8.176   2.581   9.810
 4308WAT     H213167   8.031   2.509   9.790
 4309WAT      O13168   0.312   8.145   4.404
 4309WAT     H113169   0.257   8.095   4.471
 4309WAT     H213170   0.409   8.127   4.420
 4310WAT      O13171   1.883   9.499   1.104
 4310WAT     H113172   1.893   9.418   1.162
 4310WAT     H213173   1.788   9.506   1.074
 4311WAT      O13174   9.513   9.069   8.330
 4311WAT     H113175   9.415   9.086   8.342
 4311WAT     H213176   9.565   9.150   8.358
 4312WAT      O13177   6.958   1.049   8.027
 4312WAT     H113178   6.995   1.098   8.106
 4312WAT     H213179   6.900   0.974   8.058
 4313WAT      O13180   4.170   0.206   3.046
 4313WAT     H113181   4.241   0.144   3.015
 4313WAT     H213182   4.156   0.194   3.145
 4314WAT      O13183   3.307   2.260   5.319
 4314WAT     H113184   3.394   2.255   5.271
 4314WAT     H213185   3.316   2.323   5.396
 4315WAT      O13186   0.115   3.645   0.257
 4315WAT     H113187   0.066   3.682   0.178
 4315WAT     H213188   0.051   3.626   0.331
 4316WAT      O13189   5.312   4.871   3.179
 4316WAT     H113190   5.380   4.822   3.124
 4316WAT     H213191   5.300   4.963   3.143
 4317WAT      O13192   5.543   1.269   6.871
 4317WAT     H113193   5.549   1.237   6.776
 4317WAT     H213194   5.460   1.233   6.913
 4318WAT      O13195   1.465   4.275   7.673
 4318WAT     H113196   1.406   4.335   7.727
 4318WAT     H213197   1.546   4.251   7.727
 4319WAT      O13198   4.548   9.427   8.492
 4319WAT     H113199   4.597   9.347   8.458
 4319WAT     H213200   4.607   9.478   8.555
 4320WAT      O13201   4.949   9.739   5.000
 4320WAT     H113202   4.923   9.733   5.096
 4320WAT     H213203   5.040   9.779   4.992
 4321WAT      O13204   2.343   1.286   7.516
 4321WAT     H113205   2.246   1.309   7.510
 4321WAT     H213206   2.398   1.365   7.489
 4322WAT      O13207   7.412   9.258   9.041
 4322WAT     H113208   7.426   9.357   9.047
 4322WAT     H213209   7.338   9.231   9.101
 4323WAT      O13210   2.779   6.202   0.960
 4323WAT     H113211   2.779   6.269   0.886
 4323WAT     H213212   2.807   6.113   0.925
 4324WAT      O13213   9.189   8.591   4.316
 4324WAT     H113214   9.266   8.565   4.258
 4324WAT     H213215   9.223   8.642   4.396
 4325WAT      O13216   3.968   8.695   5.899
 4325WAT     H113217   3.950   8.778   5.950
 4325WAT     H213218   3.958   8.616   5.959
 4326WAT      O13219   1.883   2.153   2.420
 4326WAT     H113220   1.862   2.076   2.481
 4326WAT     H213221   1.852   2.238   2.462
 4327WAT      O13222   2.311   0.672   0.886
 4327WAT     H113223   2.369   0.591   0.876
 4327WAT     H213224   2.331   0.737   0.813
 4328WAT      O13225   0.472   9.694   0.843
 4328WAT     H113226   0.478   9.615   0.905
 4328WAT     H213227   0.494   9.777   0.893
 4329WAT      O13228   2.623   6.185   3.015
 4329WAT     H113229   2.644   6.277   3.047
 4329WAT     H213230   2.707   6.131   3.013
 4330WAT      O13231   7.713   0.474   9.464
 4330WAT     H113232   7.650   0.494   9.389
 4330WAT     H213233   7.699   0.539   9.538
 4331WAT      O13234   5.863   8.867   9.568
 4331WAT     H113235   5.943   8.882   9.626
 4331WAT     H213236   5.879   8.788   9.508
 4332WAT      O13237   4.687   3.818   6.803
 4332WAT     H113238   4.759   3.873   6.760
 4332WAT     H213239   4.679   3.842   6.899
 4333WAT      O13240   6.531   3.243   2.993
 4333WAT     H113241   6.508   3.182   2.918
 4333WAT     H213242   6.527   3.338   2.961
 4334WAT      O13243   9.273   6.465   4.393
 4334WAT     H113244   9.202   6.529   4.423
 4334WAT     H213245   9.236   6.372   4.391
 4335WAT      O13246   1.883   1.068   3.347
 4335WAT     H113247   1.939   1.092   3.268
 4335WAT     H213248   1.835   0.982   3.329
 4336WAT      O13249   0.505   5.771   6.693
 4336WAT     H113250   0.474   5.863   6.669
 4336WAT     H213251   0.492   5.756   6.790
 4337WAT      O13252   0.480   6.287   7.841
 4337WAT     H113253   0.451   6.280   7.936
 4337WAT     H213254   0.407   6.330   7.787
 4338WAT      O13255   8.477   1.132   3.736
 4338WAT     H113256   8.466   1.231   3.723
 4338WAT     H213257   8.567   1.104   3.702
 4339WAT      O13258   0.694   7.994   5.586
 4339WAT     H113259   0.767   7.965   5.648
 4339WAT     H213260   0.634   8.058   5.633
 4340WAT      O13261   7.206   8.873   7.986
 4340WAT     H113262   7.278   8.913   8.042
 4340WAT     H213263   7.149   8.945   7.947
 4341WAT      O13264   7.108   9.033   0.723
 4341WAT     H113265   7.142   8.964   0.787
 4341WAT     H213266   7.083   9.116   0.774
 4342WAT      O13267   0.345   1.608   3.164
 4342WAT     H113268   0.390   1.576   3.247
 4342WAT     H213269   0.376   1.701   3.143
 4343WAT      O13270   4.220   9.717   8.393
 4343WAT     H113271   4.153   9.771   8.342
 4343WAT     H213272   4.198   9.721   8.491
 4344WAT      O13273   0.743   7.043   3.023
 4344WAT     H113274   0.753   6.968   3.088
 4344WAT     H213275   0.830   7.061   2.978
 4345WAT      O13276   7.575   0.344   6.174
 4345WAT     H113277   7.586   0.399   6.091
 4345WAT     H213278   7.542   0.253   6.149
 4346WAT      O13279   5.445   4.491   0.594
 4346WAT     H113280   5.477   4.578   0.633
 4346WAT     H213281   5.366   4.509   0.535
 4347WAT      O13282   1.103   0.472   0.902
 4347WAT     H113283   1.081   0.454   0.998
 4347WAT     H213284   1.089   0.569   0.883
 4348WAT      O13285   3.346   8.374   1.949
 4348WAT     H113286   3.295   8.295   1.914
 4348WAT     H213287   3.364   8.438   1.874
 4349WAT      O13288   0.907   6.185   0.894
 4349WAT     H113289   0.888   6.154   0.987
 4349WAT     H213290   0.878   6.115   0.829
 4350WAT      O13291   3.117   0.445   2.046
 4350WAT     H113292   3.124   0.462   2.144
 4350WAT     H213293   3.209   0.434   2.008
 4351WAT      O13294   6.439   8.768   3.917
 4351WAT     H113295   6.468   8.771   3.821
 4351WAT     H213296   6.473   8.849   3.964
 4352WAT      O13297   2.279   6.713   2.673
 4352WAT     H113298   2.223   6.736   2.752
 4352WAT     H213299   2.254   6.622   2.639
 4353WAT      O13300   2.903   5.298   5.104
 4353WAT     H113301   2.906   5.398   5.117
 4353WAT     H213302   2.824   5.261   5.152
 4354WAT      O13303   3.339   5.446   0.792
 4354WAT     H113304   3.294   5.535   0.795
 4354WAT     H213305   3.290   5.380   0.849
 4355WAT      O13306   7.516   6.869   0.225
 4355WAT     H113307   7.589   6.822   0.176
 4355WAT     H213308   7.536   6.868   0.323
 4356WAT      O13309   2.145   7.282   8.561
 4356WAT     H113310   2.048   7.294   8.585
 4356WAT     H213311   2.199   7.277   8.645
 4357WAT      O13312   2.568   9.247   4.539
 4357WAT     H113313   2.666   9.239   4.523
 4357WAT     H213314   2.553   9.295   4.626
 4358WAT      O13315   9.516   9.224   7.188
 4358WAT     H113316   9.466   9.286   7.249
 4358WAT     H213317   9.590   9.275   7.143
 4359WAT      O13318   3.510   0.312   1.115
 4359WAT     H113319   3.451   0.316   1.196
 4359WAT     H213320   3.598   0.272   1.140
 4360WAT      O13321   0.938   9.511   3.167
 4360WAT     H113322   1.019   9.556   3.131
 4360WAT     H213323   0.858   9.571   3.157
 4361WAT      O13324   5.667   8.488   5.413
 4361WAT     H113325   5.765   8.476   5.396
 4361WAT     H213326   5.641   8.583   5.397
 4362WAT      O13327   2.844   2.734   0.955
 4362WAT     H113328   2.866   2.831   0.943
 4362WAT     H213329   2.851   2.687   0.867
 4363WAT      O13330   6.160   2.085   1.458
 4363WAT     H113331   6.171   2.184   1.443
 4363WAT     H213332   6.221   2.056   1.532
 4364WAT      O13333   6.951   7.707   6.634
 4364WAT     H113334   6.952   7.611   6.605
 4364WAT     H213335   6.918   7.713   6.728
 4365WAT      O13336   6.026   7.443   0.883
 4365WAT     H113337   6.018   7.351   0.920
 4365WAT     H213338   6.046   7.438   0.785
 4366WAT      O13339   8.574   0.189   8.639
 4366WAT     H113340   8.654   0.130   8.648
 4366WAT     H213341   8.554   0.206   8.543
 4367WAT      O13342   3.139   0.762   6.677
 4367WAT     H113343   3.184   0.676   6.702
 4367WAT     H213344   3.193   0.808   6.607
 4368WAT      O13345   9.129   4.451   7.289
 4368WAT     H113346   9.159   4.388   7.359
 4368WAT     H213347   9.036   4.483   7.311
 4369WAT      O13348   6.841   3.530   3.003
 4369WAT     H113349   6.749   3.503   2.976
 4369WAT     H213350   6.892   3.560   2.921
 4370WAT      O13351   9.181   3.981   2.370
 4370WAT     H113352   9.273   4.021   2.364
 4370WAT     H213353   9.122   4.043   2.421
 4371WAT      O13354   2.704   5.909   6.989
 4371WAT     H113355   2.739   5.994   7.028
 4371WAT     H213356   2.778   5.860   6.943
 4372WAT      O13357   8.758   1.371   9.314
 4372WAT     H113358   8.829   1.348   9.248
 4372WAT     H213359   8.784   1.454   9.363
 4373WAT      O13360   7.648   1.169   1.898
 4373WAT     H113361   7.624   1.173   1.995
 4373WAT     H213362   7.659   1.262   1.863
 4374WAT      O13363   5.242   3.841   1.342
 4374WAT     H113364   5.232   3.776   1.417
 4374WAT     H213365   5.295   3.799   1.268
 4375WAT      O13366   8.288   0.129   3.962
 4375WAT     H113367   8.261   0.217   4.001
 4375WAT     H213368   8.380   0.106   3.994
 4376WAT      O13369   6.250   0.792   5.921
 4376WAT     H113370   6.281   0.706   5.960
 4376WAT     H213371   6.318   0.863   5.940
 4377WAT      O13372   9.370   1.941   0.302
 4377WAT     H113373   9.282   1.915   0.262
 4377WAT     H213374   9.389   1.884   0.382
 4378WAT      O13375   1.784   6.170   9.217
 4378WAT     H113376   1.871   6.186   9.263
 4378WAT     H213377   1.801   6.147   9.121
 4379WAT      O13378   6.322   8.384   7.793
 4379WAT     H113379   6.288   8.472   7.762
 4379WAT     H213380   6.419   8.375   7.770
 4380WAT      O13381   0.170   1.919   4.205
 4380WAT     H113382   0.249   1.975   4.227
 4380WAT     H213383   0.092   1.978   4.182
 4381WAT      O13384   1.163   2.207   9.057
 4381WAT     H113385   1.198   2.114   9.071
 4381WAT     H213386   1.105   2.209   8.976
 4382WAT      O13387   3.888   2.596   6.846
 4382WAT     H113388   3.833   2.680   6.848
 4382WAT     H213389   3.984   2.618   6.862
 4383WAT      O13390   6.809   4.536   0.631
 4383WAT     H113391   6.827   4.597   0.708
 4383WAT     H213392   6.884   4.541   0.565
 4384WAT      O13393   8.141   4.011   1.117
 4384WAT     H113394   8.234   3.976   1.111
 4384WAT     H213395   8.077   3.941   1.085
 4385WAT      O13396   1.940   9.637   7.033
 4385WAT     H113397   1.847   9.669   7.015
 4385WAT     H213398   1.991   9.709   7.079
 4386WAT      O13399   6.668   9.161   3.106
 4386WAT     H113400   6.615   9.242   3.081
 4386WAT     H213401   6.609   9.097   3.155
 4387WAT      O13402   4.929   4.746   9.339
 4387WAT     H113403   4.918   4.798   9.424
 4387WAT     H213404   4.873   4.664   9.343
 4388WAT      O13405   3.220   0.597   2.969
 4388WAT     H113406   3.150   0.666   2.953
 4388WAT     H213407   3.309   0.641   2.979
 4389WAT      O13408   5.587   1.128   9.232
 4389WAT     H113409   5.631   1.122   9.322
 4389WAT     H213410   5.554   1.037   9.205
 4390WAT      O13411   2.350   3.498   4.730
 4390WAT     H113412   2.328   3.561   4.655
 4390WAT     H213413   2.411   3.543   4.795
 4391WAT      O13414   8.319   9.673   8.473
 4391WAT     H113415   8.243   9.618   8.507
 4391WAT     H213416   8.323   9.759   8.525
 4392WAT      O13417   1.329   1.959   8.802
 4392WAT     H113418   1.370   1.871   8.828
 4392WAT     H213419   1.286   1.950   8.713
 4393WAT      O13420   8.925   8.493   4.308
 4393WAT     H113421   8.915   8.444   4.221
 4393WAT     H213422   8.999   8.560   4.300
 4394WAT      O13423   4.070   7.579   6.444
 4394WAT     H113424   4.141   7.594   6.513
 4394WAT     H213425   4.095   7.626   6.359
 4395WAT      O13426   9.351   6.159   3.317
 4395WAT     H113427   9.315   6.067   3.304
 4395WAT     H213428   9.451   6.158   3.306
 4396WAT      O13429   6.349   3.072   8.303
 4396WAT     H113430   6.441   3.093   8.271
 4396WAT     H213431   6.303   3.157   8.329
 4397WAT      O13432   7.817   5.531   9.506
 4397WAT     H113433   7.738   5.590   9.487
 4397WAT     H213434   7.789   5.435   9.498
 4398WAT      O13435   8.832   4.993   5.360
 4398WAT     H113436   8.740   4.980   5.398
 4398WAT     H213437   8.895   5.016   5.433
 4399WAT      O13438   3.905   8.262   2.780
 4399WAT     H113439   3.822   8.278   2.728
 4399WAT     H213440   3.882   8.248   2.876
 4400WAT      O13441   8.942   3.926   4.226
 4400WAT     H113442   9.004   3.927   4.148
 4400WAT     H213443   8.858   3.878   4.201
 4401WAT      O13444   6.352   6.792   9.696
 4401WAT     H113445   6.377   6.696   9.709
 4401WAT     H213446   6.275   6.815   9.754
 4402WAT      O13447   0.658   1.899   5.579
 4402WAT     H113448   0.659   1.854   5.669
 4402WAT     H213449   0.750   1.900   5.541
 4403WAT      O13450   0.965   6.644   3.011
 4403WAT     H113451   0.973   6.664   2.913
 4403WAT     H213452   0.932   6.551   3.024
 4404WAT      O13453   8.393   5.508   2.029
 4404WAT     H113454   8.452   5.563   2.089
 4404WAT     H213455   8.450   5.460   1.962
 4405WAT      O13456   3.463   9.650   7.504
 4405WAT     H113457   3.451   9.561   7.461
 4405WAT     H213458   3.544   9.695   7.464
 4406WAT      O13459   6.433   4.100   2.617
 4406WAT     H113460   6.476   4.186   2.591
 4406WAT     H213461   6.434   4.091   2.716
 4407WAT      O13462   1.605   7.801   0.848
 4407WAT     H113463   1.567   7.736   0.783
 4407WAT     H213464   1.678   7.757   0.901
 4408WAT      O13465   9.345   8.038   9.893
 4408WAT     H113466   9.333   7.983   9.810
 4408WAT     H213467   9.376   8.129   9.868
 4409WAT      O13468   8.312   9.621   7.994
 4409WAT     H113469   8.334   9.697   7.933
 4409WAT     H213470   8.376   9.546   7.979
 4410WAT      O13471   0.757   5.070   9.762
 4410WAT     H113472   0.708   5.021   9.835
 4410WAT     H213473   0.757   5.168   9.783
 4411WAT      O13474   5.350   9.100   5.696
 4411WAT     H113475   5.327   9.069   5.788
 4411WAT     H213476   5.449   9.109   5.688
 4412WAT      O13477   4.350   5.521   3.268
 4412WAT     H113478   4.392   5.534   3.178
 4412WAT     H213479   4.423   5.505   3.336
 4413WAT      O13480   6.931   3.683   1.983
 4413WAT     H113481   6.845   3.690   1.932
 4413WAT     H213482   7.004   3.727   1.932
 4414WAT      O13483   9.863   7.646   3.211
 4414WAT     H113484   9.860   7.686   3.302
 4414WAT     H213485   9.958   7.639   3.181
 4415WAT      O13486   2.535   5.447   1.661
 4415WAT     H113487   2.514   5.410   1.570
 4415WAT     H213488   2.557   5.372   1.723
 4416WAT      O13489   8.871   1.976   8.479
 4416WAT     H113490   8.874   1.989   8.380
 4416WAT     H213491   8.868   1.878   8.499
 4417WAT      O13492   5.578   1.457   8.453
 4417WAT     H113493   5.662   1.420   8.493
 4417WAT     H213494   5.580   1.444   8.354
 4418WAT      O13495   2.671   7.540   1.408
 4418WAT     H113496   2.633   7.449   1.395
 4418WAT     H213497   2.727   7.564   1.329
 4419WAT      O13498   8.487   3.725   7.547
 4419WAT     H113499   8.547   3.650   7.522
 4419WAT     H213500   8.520   3.768   7.632
 4420WAT      O13501   5.724   9.813   4.559
 4420WAT     H113502   5.817   9.808   4.522
 4420WAT     H213503   5.717   9.753   4.639
 4421WAT      O13504   4.153   8.702   8.245
 4421WAT     H113505   4.055   8.684   8.256
 4421WAT     H213506   4.178   8.785   8.294
 4422WAT      O13507   7.708   8.762   2.864
 4422WAT     H113508   7.610   8.742   2.868
 4422WAT     H213509   7.758   8.679   2.840
 4423WAT      O13510   2.481   4.154   6.856
 4423WAT     H113511   2.528   4.084   6.801
 4423WAT     H213512   2.386   4.128   6.868
 4424WAT      O13513   3.991   0.282   0.957
 4424WAT     H113514   3.937   0.342   1.016
 4424WAT     H213515   3.949   0.191   0.954
 4425WAT      O13516   7.389   0.108   5.990
 4425WAT     H113517   7.477   0.071   5.960
 4425WAT     H213518   7.332   0.125   5.910
 4426WAT      O13519   4.652   6.134   3.363
 4426WAT     H113520   4.689   6.169   3.449
 4426WAT     H213521   4.578   6.193   3.331
 4427WAT      O13522   2.314   1.681   5.895
 4427WAT     H113523   2.225   1.724   5.879
 4427WAT     H213524   2.369   1.687   5.811
 4428WAT      O13525   3.321   2.200   9.476
 4428WAT     H113526   3.418   2.223   9.480
 4428WAT     H213527   3.310   2.106   9.443
 4429WAT      O13528   3.379   8.794   8.068
 4429WAT     H113529   3.334   8.761   7.985
 4429WAT     H213530   3.476   8.810   8.050
 4430WAT      O13531   2.691   5.175   5.251
 4430WAT     H113532   2.630   5.252   5.265
 4430WAT     H213533   2.752   5.166   5.330
 4431WAT      O13534   0.031   9.652   0.830
 4431WAT     H113535   0.050   9.676   0.925
 4431WAT     H213536   0.010   9.554   0.824
 4432WAT      O13537   4.837   8.371   5.016
 4432WAT     H113538   4.858   8.462   5.051
 4432WAT     H213539   4.861   8.303   5.084
 4433WAT      O13540   5.600   7.399   5.148
 4433WAT     H113541   5.643   7.486   5.123
 4433WAT     H213542   5.669   7.327   5.150
 4434WAT      O13543   7.478   9.349   5.741
 4434WAT     H113544   7.451   9.289   5.666
 4434WAT     H213545   7.485   9.443   5.708
 4435WAT      O13546   6.171   6.849   9.878
 4435WAT     H113547   6.237   6.804   9.939
 4435WAT     H213548   6.094   6.883   9.932
 4436WAT      O13549   3.528   5.192   3.789
 4436WAT     H113550   3.546   5.094   3.785
 4436WAT     H213551   3.434   5.210   3.760
 4437WAT      O13552   0.849   9.321   3.347
 4437WAT     H113553   0.915   9.245   3.343
 4437WAT     H213554   0.873   9.389   3.278
 4438WAT      O13555   9.631   5.534   1.615
 4438WAT     H113556   9.718   5.536   1.665
 4438WAT     H213557   9.604   5.439   1.600
 4439WAT      O13558   6.931   8.122   1.816
 4439WAT     H113559   6.902   8.070   1.897
 4439WAT     H213560   6.897   8.076   1.734
 4440WAT      O13561   0.559   1.861   7.443
 4440WAT     H113562   0.504   1.927   7.391
 4440WAT     H213563   0.642   1.905   7.476
 4441WAT      O13564   4.233   8.395   3.405
 4441WAT     H113565   4.275   8.352   3.486
 4441WAT     H213566   4.160   8.336   3.371
 4442WAT      O13567   2.946   2.246   6.212
 4442WAT     H113568   2.912   2.168   6.264
 4442WAT     H213569   2.905   2.330   6.248
 4443WAT      O13570   0.263   9.447   0.114
 4443WAT     H113571   0.171   9.420   0.142
 4443WAT     H213572   0.322   9.366   0.109
 4444WAT      O13573   5.093   9.457   6.224
 4444WAT     H113574   5.078   9.513   6.306
 4444WAT     H213575   5.006   9.414   6.198
 4445WAT      O13576   5.545   3.287   8.419
 4445WAT     H113577   5.491   3.368   8.442
 4445WAT     H213578   5.515   3.252   8.330
 4446WAT      O13579   6.355   3.706   7.989
 4446WAT     H113580   6.396   3.647   7.919
 4446WAT     H213581   6.258   3.720   7.968
 4447WAT      O13582   2.803   8.713   4.906
 4447WAT     H113583   2.895   8.681   4.927
 4447WAT     H213584   2.736   8.652   4.951
 4448WAT      O13585   1.507   9.178   4.666
 4448WAT     H113586   1.478   9.118   4.740
 4448WAT     H213587   1.457   9.154   4.582
 4449WAT      O13588   5.684   0.409   1.601
 4449WAT     H113589   5.759   0.445   1.546
 4449WAT     H213590   5.718   0.389   1.693
 4450WAT      O13591   7.841   2.160   2.005
 4450WAT     H113592   7.830   2.066   1.973
 4450WAT     H213593   7.910   2.207   1.950
 4451WAT      O13594   1.286   3.118   8.557
 4451WAT     H113595   1.218   3.074   8.615
 4451WAT     H213596   1.348   3.050   8.519
 4452WAT      O13597   3.770   4.040   8.410
 4452WAT     H113598   3.761   4.102   8.488
 4452WAT     H213599   3.759   4.091   8.325
 4453WAT      O13600   4.687   1.340   8.967
 4453WAT     H113601   4.782   1.364   8.984
 4453WAT     H213602   4.637   1.337   9.053
 4454WAT      O13603   3.706   0.178   4.241
 4454WAT     H113604   3.741   0.248   4.302
 4454WAT     H213605   3.782   0.139   4.188
 4455WAT      O13606   5.049   1.315   4.404
 4455WAT     H113607   4.960   1.281   4.433
 4455WAT     H213608   5.079   1.386   4.467
 4456WAT      O13609   6.951   6.589   9.884
 4456WAT     H113610   6.876   6.596   9.818
 4456WAT     H213611   7.018   6.661   9.866
 4457WAT      O13612   2.309   3.999   4.801
 4457WAT     H113613   2.296   3.925   4.735
 4457WAT     H213614   2.390   3.980   4.858
 4458WAT      O13615   0.012   0.872   0.362
 4458WAT     H113616   0.025   0.960   0.408
 4458WAT     H213617  -0.085   0.847   0.365
 4459WAT      O13618   0.966   4.289   4.010
 4459WAT     H113619   1.015   4.280   4.097
 4459WAT     H213620   1.029   4.318   3.938
 4460WAT      O13621   3.125   1.119   6.752
 4460WAT     H113622   3.217   1.081   6.762
 4460WAT     H213623   3.088   1.095   6.662
 4461WAT      O13624   8.345   8.825   4.036
 4461WAT     H113625   8.292   8.903   4.069
 4461WAT     H213626   8.295   8.741   4.055
 4462WAT      O13627   0.348   1.801   8.727
 4462WAT     H113628   0.429   1.858   8.716
 4462WAT     H213629   0.373   1.704   8.722
 4463WAT      O13630   7.973   0.198   5.691
 4463WAT     H113631   7.959   0.228   5.785
 4463WAT     H213632   8.033   0.261   5.643
 4464WAT      O13633   8.221   3.246   5.611
 4464WAT     H113634   8.308   3.221   5.652
 4464WAT     H213635   8.207   3.345   5.620
 4465WAT      O13636   8.690   6.161   1.542
 4465WAT     H113637   8.750   6.099   1.492
 4465WAT     H213638   8.681   6.129   1.637
 4466WAT      O13639   2.357   0.775   3.067
 4466WAT     H113640   2.262   0.802   3.055
 4466WAT     H213641   2.380   0.705   2.999
 4467WAT      O13642   9.733   2.383   6.518
 4467WAT     H113643   9.701   2.355   6.427
 4467WAT     H213644   9.708   2.313   6.585
 4468WAT      O13645   5.781   1.591   4.679
 4468WAT     H113646   5.703   1.591   4.616
 4468WAT     H213647   5.818   1.499   4.686
 4469WAT      O13648   6.003   6.220   8.202
 4469WAT     H113649   6.024   6.125   8.183
 4469WAT     H213650   6.072   6.279   8.160
 4470WAT      O13651   1.924   7.916   5.700
 4470WAT     H113652   1.886   7.856   5.630
 4470WAT     H213653   1.857   7.985   5.725
 4471WAT      O13654   5.046   1.485   3.903
 4471WAT     H113655   5.030   1.480   4.002
 4471WAT     H213656   5.142   1.509   3.887
 4472WAT      O13657   0.977   3.249   6.362
 4472WAT     H113658   1.039   3.316   6.403
 4472WAT     H213659   1.026   3.197   6.292
 4473WAT      O13660   5.644   9.740   9.775
 4473WAT     H113661   5.717   9.752   9.707
 4473WAT     H213662   5.593   9.656   9.755
 4474WAT      O13663   2.363   8.739   3.009
 4474WAT     H113664   2.301   8.779   2.940
 4474WAT     H213665   2.457   8.741   2.974
 4475WAT      O13666   6.473   6.185   8.906
 4475WAT     H113667   6.382   6.150   8.885
 4475WAT     H213668   6.470   6.285   8.912
 4476WAT      O13669   4.339   0.164   6.982
 4476WAT     H113670   4.315   0.115   7.066
 4476WAT     H213671   4.256   0.205   6.943
 4477WAT      O13672   0.947   5.528   6.095
 4477WAT     H113673   0.886   5.566   6.025
 4477WAT     H213674   1.042   5.544   6.067
 4478WAT      O13675   7.618   0.796   1.629
 4478WAT     H113676   7.637   0.849   1.546
 4478WAT     H213677   7.679   0.717   1.633
 4479WAT      O13678   5.570   4.166   9.229
 4479WAT     H113679   5.567   4.092   9.161
 4479WAT     H213680   5.567   4.127   9.321
 4480WAT      O13681   6.868   2.012   4.171
 4480WAT     H113682   6.888   2.082   4.240
 4480WAT     H213683   6.772   1.985   4.177
 4481WAT      O13684   3.069   7.243   1.406
 4481WAT     H113685   3.120   7.323   1.435
 4481WAT     H213686   3.018   7.264   1.322
 4482WAT      O13687   3.730   1.463   3.296
 4482WAT     H113688   3.707   1.490   3.203
 4482WAT     H213689   3.683   1.522   3.361
 4483WAT      O13690   0.419   3.731   4.761
 4483WAT     H113691   0.327   3.770   4.768
 4483WAT     H213692   0.427   3.652   4.822
 4484WAT      O13693   4.224   4.413   1.339
 4484WAT     H113694   4.279   4.354   1.279
 4484WAT     H213695   4.130   4.418   1.304
 4485WAT      O13696   8.436   2.186   5.461
 4485WAT     H113697   8.520   2.209   5.510
 4485WAT     H213698   8.458   2.136   5.378
 4486WAT      O13699   3.651   8.110   5.701
 4486WAT     H113700   3.722   8.107   5.771
 4486WAT     H213701   3.676   8.176   5.630
 4487WAT      O13702   5.130   9.371   8.400
 4487WAT     H113703   5.180   9.296   8.357
 4487WAT     H213704   5.071   9.414   8.331
 4488WAT      O13705   2.919   7.242   0.906
 4488WAT     H113706   2.987   7.293   0.853
 4488WAT     H213707   2.829   7.256   0.866
 4489WAT      O13708   1.771   7.383   3.336
 4489WAT     H113709   1.849   7.387   3.273
 4489WAT     H213710   1.693   7.340   3.290
 4490WAT      O13711   2.979   0.867   6.340
 4490WAT     H113712   2.943   0.883   6.248
 4490WAT     H213713   2.960   0.772   6.367
 4491WAT      O13714   9.114   6.814   9.389
 4491WAT     H113715   9.133   6.902   9.433
 4491WAT     H213716   9.141   6.818   9.293
 4492WAT      O13717   4.859   1.035   4.602
 4492WAT     H113718   4.831   0.943   4.574
 4492WAT     H213719   4.780   1.096   4.598
 4493WAT      O13720   9.101   8.721   9.032
 4493WAT     H113721   9.096   8.691   9.127
 4493WAT     H213722   9.070   8.816   9.025
 4494WAT      O13723   2.423   7.787   5.134
 4494WAT     H113724   2.375   7.705   5.164
 4494WAT     H213725   2.424   7.854   5.209
 4495WAT      O13726   7.935   0.474   2.786
 4495WAT     H113727   7.900   0.542   2.721
 4495WAT     H213728   7.861   0.412   2.812
 4496WAT      O13729   9.697   7.525   5.802
 4496WAT     H113730   9.761   7.473   5.859
 4496WAT     H213731   9.745   7.604   5.764
 4497WAT      O13732   3.243   1.125   4.276
 4497WAT     H113733   3.290   1.099   4.191
 4497WAT     H213734   3.211   1.219   4.268
 4498WAT      O13735   6.425   1.898   3.671
 4498WAT     H113736   6.472   1.985   3.683
 4498WAT     H213737   6.334   1.903   3.712
 4499WAT      O13738   4.856   3.506   6.296
 4499WAT     H113739   4.932   3.507   6.230
 4499WAT     H213740   4.795   3.429   6.275
 4500WAT      O13741   8.584   5.055   3.413
 4500WAT     H113742   8.530   5.003   3.346
 4500WAT     H213743   8.678   5.065   3.379
 4501WAT      O13744   5.574   9.792   2.923
 4501WAT     H113745   5.475   9.792   2.909
 4501WAT     H213746   5.616   9.723   2.863
 4502WAT      O13747   2.268   7.435   5.572
 4502WAT     H113748   2.327   7.417   5.651
 4502WAT     H213749   2.187   7.486   5.601
 4503WAT      O13750   0.899   9.273   2.313
 4503WAT     H113751   0.981   9.215   2.308
 4503WAT     H213752   0.919   9.354   2.367
 4504WAT      O13753   6.356   3.450   0.950
 4504WAT     H113754   6.410   3.395   1.014
 4504WAT     H213755   6.401   3.452   0.861
 4505WAT      O13756   2.797   8.948   0.159
 4505WAT     H113757   2.877   8.979   0.210
 4505WAT     H213758   2.714   8.962   0.213
 4506WAT      O13759   4.631   2.264   5.031
 4506WAT     H113760   4.576   2.196   4.983
 4506WAT     H213761   4.572   2.337   5.064
 4507WAT      O13762   2.741   1.364   0.823
 4507WAT     H113763   2.824   1.335   0.872
 4507WAT     H213764   2.724   1.300   0.748
 4508WAT      O13765   8.168   1.842   5.990
 4508WAT     H113766   8.260   1.878   5.975
 4508WAT     H213767   8.111   1.912   6.033
 4509WAT      O13768   7.794   6.087   0.312
 4509WAT     H113769   7.769   6.057   0.220
 4509WAT     H213770   7.804   6.187   0.313
 4510WAT      O13771   2.184   6.397   1.461
 4510WAT     H113772   2.090   6.432   1.459
 4510WAT     H213773   2.230   6.421   1.375
 4511WAT      O13774   7.128   2.466   2.768
 4511WAT     H113775   7.058   2.462   2.697
 4511WAT     H213776   7.084   2.462   2.858
 4512WAT      O13777   5.069   2.073   5.063
 4512WAT     H113778   5.087   1.982   5.099
 4512WAT     H213779   5.098   2.078   4.967
 4513WAT      O13780   5.290   2.758   7.515
 4513WAT     H113781   5.210   2.817   7.525
 4513WAT     H213782   5.342   2.784   7.433
 4514WAT      O13783   1.266   7.991   6.517
 4514WAT     H113784   1.303   7.935   6.591
 4514WAT     H213785   1.221   7.932   6.450
 4515WAT      O13786   6.233   9.272   4.643
 4515WAT     H113787   6.137   9.245   4.639
 4515WAT     H213788   6.246   9.356   4.591
 4516WAT      O13789   4.689   4.830   7.988
 4516WAT     H113790   4.760   4.874   7.933
 4516WAT     H213791   4.648   4.755   7.936
 4517WAT      O13792   2.545   0.792   3.702
 4517WAT     H113793   2.602   0.756   3.775
 4517WAT     H213794   2.582   0.762   3.613
 4518WAT      O13795   2.500   0.994   1.626
 4518WAT     H113796   2.492   1.002   1.527
 4518WAT     H213797   2.448   1.068   1.670
 4519WAT      O13798   3.983   3.470   2.494
 4519WAT     H113799   3.984   3.375   2.464
 4519WAT     H213800   4.068   3.515   2.467
 4520WAT      O13801   9.709   9.038   2.254
 4520WAT     H113802   9.735   8.993   2.169
 4520WAT     H213803   9.782   9.027   2.322
 4521WAT      O13804   5.200   1.589   0.639
 4521WAT     H113805   5.243   1.577   0.550
 4521WAT     H213806   5.185   1.686   0.656
 4522WAT      O13807   1.245   3.558   1.722
 4522WAT     H113808   1.323   3.586   1.779
 4522WAT     H213809   1.234   3.458   1.728
 4523WAT      O13810   3.154   6.214   2.688
 4523WAT     H113811   3.161   6.142   2.756
 4523WAT     H213812   3.243   6.228   2.644
 4524WAT      O13813   2.170   9.091   8.953
 4524WAT     H113814   2.224   9.038   9.018
 4524WAT     H213815   2.231   9.152   8.901
 4525WAT      O13816   1.704   6.101   7.685
 4525WAT     H113817   1.675   6.194   7.709
 4525WAT     H213818   1.740   6.099   7.592
 4526WAT      O13819   7.693   4.352   2.678
 4526WAT     H113820   7.728   4.384   2.766
 4526WAT     H213821   7.605   4.395   2.659
 4527WAT      O13822   6.840   1.599   3.003
 4527WAT     H113823   6.871   1.665   3.071
 4527WAT     H213824   6.756   1.556   3.035
 4528WAT      O13825   4.296   5.754   2.945
 4528WAT     H113826   4.218   5.791   2.893
 4528WAT     H213827   4.313   5.812   3.025
 4529WAT      O13828   8.924   0.458   8.911
 4529WAT     H113829   8.897   0.487   9.003
 4529WAT     H213830   8.995   0.388   8.918
 4530WAT      O13831   1.312   4.667   3.463
 4530WAT     H113832   1.246   4.676   3.388
 4530WAT     H213833   1.335   4.570   3.475
 4531WAT      O13834   2.180   4.810   7.692
 4531WAT     H113835   2.222   4.745   7.628
 4531WAT     H213836   2.247   4.878   7.719
 4532WAT      O13837   8.723   9.547   8.020
 4532WAT     H113838   8.744   9.598   8.103
 4532WAT     H213839   8.734   9.607   7.941
 4533WAT      O13840   5.457   6.145   2.490
 4533WAT     H113841   5.430   6.109   2.402
 4533WAT     H213842   5.531   6.089   2.528
 4534WAT      O13843   5.899   4.058   3.045
 4534WAT     H113844   5.966   4.053   2.970
 4534WAT     H213845   5.931   4.123   3.114
 4535WAT      O13846   6.206   4.260   1.866
 4535WAT     H113847   6.178   4.346   1.824
 4535WAT     H213848   6.305   4.261   1.880
 4536WAT      O13849   6.026   6.975   0.187
 4536WAT     H113850   5.927   6.975   0.191
 4536WAT     H213851   6.061   7.061   0.223
 4537WAT      O13852   3.123   1.531   0.963
 4537WAT     H113853   3.219   1.530   0.990
 4537WAT     H213854   3.068   1.571   1.036
 4538WAT      O13855   0.679   8.433   6.938
 4538WAT     H113856   0.631   8.373   6.873
 4538WAT     H213857   0.731   8.501   6.887
 4539WAT      O13858   7.721   8.312   8.043
 4539WAT     H113859   7.768   8.363   7.971
 4539WAT     H213860   7.655   8.249   8.001
 4540WAT      O13861   2.235   6.268   6.385
 4540WAT     H113862   2.161   6.226   6.437
 4540WAT     H213863   2.323   6.245   6.428
 4541WAT      O13864   7.769   7.275   0.924
 4541WAT     H113865   7.723   7.331   0.855
 4541WAT     H213866   7.867   7.273   0.905
 4542WAT      O13867   8.299   6.806   0.721
 4542WAT     H113868   8.273   6.710   0.709
 4542WAT     H213869   8.344   6.818   0.809
 4543WAT      O13870   3.628   9.295   6.753
 4543WAT     H113871   3.684   9.311   6.671
 4543WAT     H213872   3.688   9.286   6.832
 4544WAT      O13873   2.195   1.904   3.294
 4544WAT     H113874   2.198   1.819   3.345
 4544WAT     H213875   2.101   1.935   3.285
 4545WAT      O13876   5.758   8.286   1.073
 4545WAT     H113877   5.802   8.348   1.007
 4545WAT     H213878   5.682   8.334   1.117
 4546WAT      O13879   9.289   6.039   2.924
 4546WAT     H113880   9.271   5.949   2.886
 4546WAT     H213881   9.221   6.104   2.889
 4547WAT      O13882   2.251   1.150   8.485
 4547WAT     H113883   2.216   1.240   8.511
 4547WAT     H213884   2.205   1.080   8.539
 4548WAT      O13885   0.844   5.871   5.098
 4548WAT     H113886   0.913   5.799   5.097
 4548WAT     H213887   0.755   5.833   5.123
 4549WAT      O13888   3.427   5.098   8.567
 4549WAT     H113889   3.495   5.033   8.536
 4549WAT     H213890   3.370   5.126   8.489
 4550WAT      O13891   6.648   7.226   0.940
 4550WAT     H113892   6.636   7.269   0.851
 4550WAT     H213893   6.567   7.241   0.996
 4551WAT      O13894   2.413   9.510   7.102
 4551WAT     H113895   2.403   9.605   7.132
 4551WAT     H213896   2.468   9.459   7.168
 4552WAT      O13897   2.353   9.015   3.460
 4552WAT     H113898   2.438   9.037   3.413
 4552WAT     H213899   2.287   8.979   3.395
 4553WAT      O13900   1.450   1.347   4.693
 4553WAT     H113901   1.529   1.369   4.749
 4553WAT     H213902   1.477   1.344   4.596
 4554WAT      O13903   5.544   0.856   6.826
 4554WAT     H113904   5.522   0.761   6.845
 4554WAT     H213905   5.604   0.860   6.746
 4555WAT      O13906   4.463   3.043   6.969
 4555WAT     H113907   4.392   3.111   6.989
 4555WAT     H213908   4.427   2.951   6.985
 4556WAT      O13909   8.103   8.281   3.334
 4556WAT     H113910   8.007   8.283   3.305
 4556WAT     H213911   8.125   8.190   3.369
 4557WAT      O13912   1.204   2.034   4.162
 4557WAT     H113913   1.155   2.115   4.195
 4557WAT     H213914   1.138   1.960   4.146
 4558WAT      O13915   7.702   6.897   2.579
 4558WAT     H113916   7.748   6.821   2.624
 4558WAT     H213917   7.654   6.864   2.498
 4559WAT      O13918   8.941   6.722   2.962
 4559WAT     H113919   8.897   6.727   3.052
 4559WAT     H213920   8.923   6.632   2.922
 4560WAT      O13921   1.290   5.384   7.411
 4560WAT     H113922   1.202   5.338   7.404
 4560WAT     H213923   1.302   5.420   7.503
 4561WAT      O13924   7.476   8.750   7.575
 4561WAT     H113925   7.382   8.763   7.606
 4561WAT     H213926   7.524   8.688   7.638
 4562WAT      O13927   4.902   4.614   1.361
 4562WAT     H113928   4.937   4.619   1.455
 4562WAT     H213929   4.898   4.706   1.322
 4563WAT      O13930   7.728   9.418   7.824
 4563WAT     H113931   7.824   9.443   7.834
 4563WAT     H213932   7.696   9.374   7.908
 4564WAT      O13933   7.529   1.994   0.028
 4564WAT     H113934   7.464   1.985   0.103
 4564WAT     H213935   7.570   1.905   0.009
 4565WAT      O13936   2.416   5.119   0.066
 4565WAT     H113937   2.371   5.153  -0.017
 4565WAT     H213938   2.347   5.090   0.132
 4566WAT      O13939   4.531   9.322   7.549
 4566WAT     H113940   4.543   9.338   7.451
 4566WAT     H213941   4.442   9.278   7.565
 4567WAT      O13942   5.272   6.152   5.837
 4567WAT     H113943   5.327   6.170   5.919
 4567WAT     H213944   5.319   6.187   5.757
 4568WAT      O13945   6.135   5.936   6.426
 4568WAT     H113946   6.139   5.909   6.330
 4568WAT     H213947   6.185   6.021   6.439
 4569WAT      O13948   5.879   9.475   5.605
 4569WAT     H113949   5.861   9.422   5.522
 4569WAT     H213950   5.975   9.501   5.607
 4570WAT      O13951   0.542   4.632   2.551
 4570WAT     H113952   0.623   4.643   2.609
 4570WAT     H213953   0.475   4.574   2.598
 4571WAT      O13954   2.998   5.231   0.055
 4571WAT     H113955   2.997   5.258  -0.041
 4571WAT     H213956   2.913   5.185   0.077
 4572WAT      O13957   5.080   1.249   7.870
 4572WAT     H113958   4.983   1.230   7.887
 4572WAT     H213959   5.132   1.229   7.953
 4573WAT      O13960   0.664   6.133   1.527
 4573WAT     H113961   0.635   6.105   1.619
 4573WAT     H213962   0.609   6.086   1.458
 4574WAT      O13963   4.755   8.353   3.337
 4574WAT     H113964   4.852   8.346   3.312
 4574WAT     H213965   4.698   8.317   3.263
 4575WAT      O13966   5.196   7.893   8.767
 4575WAT     H113967   5.235   7.818   8.713
 4575WAT     H213968   5.106   7.918   8.730
 4576WAT      O13969   6.160   3.102   2.980
 4576WAT     H113970   6.103   3.042   2.924
 4576WAT     H213971   6.185   3.183   2.928
 4577WAT      O13972   1.061   8.555   4.995
 4577WAT     H113973   1.008   8.478   5.029
 4577WAT     H213974   1.122   8.525   4.922
 4578WAT      O13975   7.506   4.436   9.169
 4578WAT     H113976   7.597   4.434   9.210
 4578WAT     H213977   7.445   4.373   9.218
 4579WAT      O13978   7.689   6.216   1.108
 4579WAT     H113979   7.651   6.232   1.199
 4579WAT     H213980   7.744   6.132   1.109
 4580WAT      O13981   2.824   6.679   5.687
 4580WAT     H113982   2.855   6.713   5.776
 4580WAT     H213983   2.902   6.672   5.625
 4581WAT      O13984   4.939   5.557   9.218
 4581WAT     H113985   4.848   5.594   9.236
 4581WAT     H213986   4.940   5.459   9.237
 4582WAT      O13987   1.464   1.160   8.567
 4582WAT     H113988   1.374   1.204   8.561
 4582WAT     H213989   1.516   1.182   8.484
 4583WAT      O13990   6.034   0.454   0.105
 4583WAT     H113991   6.091   0.416   0.032
 4583WAT     H213992   6.003   0.381   0.165
 4584WAT      O13993   8.454   8.495   5.653
 4584WAT     H113994   8.411   8.582   5.625
 4584WAT     H213995   8.477   8.442   5.571
 4585WAT      O13996   4.012   1.614   9.331
 4585WAT     H113997   4.098   1.597   9.282
 4585WAT     H213998   3.939   1.631   9.265
 4586WAT      O13999   4.094   6.878   4.345
 4586WAT     H114000   4.154   6.799   4.359
 4586WAT     H214001   4.019   6.874   4.411
 4587WAT      O14002   0.829   6.648   2.072
 4587WAT     H114003   0.774   6.665   2.154
 4587WAT     H214004   0.914   6.701   2.077
 4588WAT      O14005   7.595   2.331   3.101
 4588WAT     H114006   7.679   2.386   3.097
 4588WAT     H214007   7.524   2.383   3.148
 4589WAT      O14008   0.594   7.602   5.209
 4589WAT     H114009   0.524   7.668   5.235
 4589WAT     H214010   0.674   7.613   5.268
 4590WAT      O14011   4.465   4.657   6.389
 4590WAT     H114012   4.472   4.557   6.386
 4590WAT     H214013   4.414   4.684   6.471
 4591WAT      O14014   9.702   5.179   6.851
 4591WAT     H114015   9.769   5.251   6.835
 4591WAT     H214016   9.621   5.218   6.893
 4592WAT      O14017   3.126   1.582   0.691
 4592WAT     H114018   3.191   1.655   0.671
 4592WAT     H214019   3.126   1.562   0.789
 4593WAT      O14020   1.058   9.791   0.247
 4593WAT     H114021   1.117   9.741   0.311
 4593WAT     H214022   1.107   9.803   0.160
 4594WAT      O14023   6.341   4.175   8.869
 4594WAT     H114024   6.280   4.225   8.931
 4594WAT     H214025   6.427   4.154   8.916
 4595WAT      O14026   2.083   9.671   3.557
 4595WAT     H114027   2.061   9.707   3.648
 4595WAT     H214028   2.002   9.676   3.498
 4596WAT      O14029   1.197   7.937   0.499
 4596WAT     H114030   1.172   8.009   0.434
 4596WAT     H214031   1.259   7.975   0.568
 4597WAT      O14032   2.116   1.413   5.608
 4597WAT     H114033   2.138   1.427   5.512
 4597WAT     H214034   2.156   1.327   5.640
 4598WAT      O14035   5.548   1.225   4.976
 4598WAT     H114036   5.586   1.145   5.021
 4598WAT     H214037   5.542   1.300   5.041
 4599WAT      O14038   6.495   3.842   7.097
 4599WAT     H114039   6.410   3.815   7.051
 4599WAT     H214040   6.572   3.792   7.057
 4600WAT      O14041   0.862   1.137   6.015
 4600WAT     H114042   0.838   1.193   6.095
 4600WAT     H214043   0.827   1.181   5.932
 4601WAT      O14044   1.985   2.676   0.119
 4601WAT     H114045   2.036   2.727   0.051
 4601WAT     H214046   1.887   2.689   0.104
 4602WAT      O14047   8.857   1.951   2.393
 4602WAT     H114048   8.897   1.863   2.420
 4602WAT     H214049   8.858   1.958   2.293
 4603WAT      O14050   8.854   1.002   4.545
 4603WAT     H114051   8.834   1.064   4.621
 4603WAT     H214052   8.797   0.921   4.553
 4604WAT      O14053   1.597   6.547   4.303
 4604WAT     H114054   1.544   6.614   4.251
 4604WAT     H214055   1.565   6.455   4.280
 4605WAT      O14056   6.387   3.661   1.138
 4605WAT     H114057   6.377   3.577   1.085
 4605WAT     H214058   6.371   3.740   1.079
 4606WAT      O14059   1.729   7.296   0.529
 4606WAT     H114060   1.757   7.264   0.438
 4606WAT     H214061   1.810   7.304   0.588
 4607WAT      O14062   6.367   4.004   0.328
 4607WAT     H114063   6.393   4.045   0.415
 4607WAT     H214064   6.270   3.980   0.329
 4608WAT      O14065   2.519   5.413   1.145
 4608WAT     H114066   2.456   5.383   1.073
 4608WAT     H214067   2.488   5.501   1.181
 4609WAT      O14068   7.397   8.305   6.344
 4609WAT     H114069   7.417   8.401   6.364
 4609WAT     H214070   7.385   8.255   6.430
 4610WAT      O14071   7.733   4.847   5.569
 4610WAT     H114072   7.741   4.946   5.561
 4610WAT     H214073   7.755   4.804   5.481
 4611WAT      O14074   2.444   3.127   3.582
 4611WAT     H114075   2.431   3.113   3.680
 4611WAT     H214076   2.516   3.195   3.567
 4612WAT      O14077   6.075   6.258   7.364
 4612WAT     H114078   5.984   6.275   7.403
 4612WAT     H214079   6.106   6.167   7.388
 4613WAT      O14080   8.415   0.062   4.915
 4613WAT     H114081   8.363   0.066   5.001
 4613WAT     H214082   8.507   0.099   4.930
 4614WAT      O14083   8.016   4.384   3.921
 4614WAT     H114084   8.002   4.313   3.852
 4614WAT     H214085   7.940   4.383   3.986
 4615WAT      O14086   3.024   8.510   9.679
 4615WAT     H114087   3.018   8.568   9.597
 4615WAT     H214088   3.115   8.519   9.719
 4616WAT      O14089   8.774   4.091   8.889
 4616WAT     H114090   8.769   4.070   8.792
 4616WAT     H214091   8.725   4.176   8.907
 4617WAT      O14092   4.579   8.460   8.502
 4617WAT     H114093   4.556   8.552   8.471
 4617WAT     H214094   4.677   8.443   8.485
 4618WAT      O14095   9.840   8.325   7.018
 4618WAT     H114096   9.936   8.314   6.992
 4618WAT     H214097   9.835   8.361   7.111
 4619WAT      O14098   2.734   9.266   0.123
 4619WAT     H114099   2.751   9.167   0.127
 4619WAT     H214100   2.709   9.291   0.029
 4620WAT      O14101   7.447   4.380   3.216
 4620WAT     H114102   7.407   4.289   3.203
 4620WAT     H214103   7.542   4.371   3.247
 4621WAT      O14104   2.347   8.450   5.330
 4621WAT     H114105   2.325   8.387   5.405
 4621WAT     H214106   2.350   8.399   5.244
 4622WAT      O14107   3.554   5.858   6.047
 4622WAT     H114108   3.583   5.772   6.089
 4622WAT     H214109   3.468   5.887   6.088
 4623WAT      O14110   8.260   5.288   1.728
 4623WAT     H114111   8.354   5.318   1.715
 4623WAT     H214112   8.248   5.255   1.822
 4624WAT      O14113   1.986   0.538   5.975
 4624WAT     H114114   1.977   0.609   6.044
 4624WAT     H214115   1.904   0.536   5.918
 4625WAT      O14116   5.430   2.909   7.331
 4625WAT     H114117   5.406   2.977   7.262
 4625WAT     H214118   5.506   2.943   7.386
 4626WAT      O14119   6.849   5.595   0.117
 4626WAT     H114120   6.850   5.618   0.020
 4626WAT     H214121   6.769   5.637   0.161
 4627WAT      O14122   0.508   0.488   5.266
 4627WAT     H114123   0.461   0.475   5.354
 4627WAT     H214124   0.520   0.400   5.221
 4628WAT      O14125   2.128   2.286   7.719
 4628WAT     H114126   2.131   2.188   7.737
 4628WAT     H214127   2.068   2.304   7.641
 4629WAT      O14128   2.225   8.728   4.430
 4629WAT     H114129   2.291   8.673   4.378
 4629WAT     H214130   2.234   8.824   4.403
 4630WAT      O14131   2.467   1.922   2.661
 4630WAT     H114132   2.443   2.014   2.691
 4630WAT     H214133   2.562   1.920   2.629
 4631WAT      O14134   4.147   2.418   9.727
 4631WAT     H114135   4.227   2.475   9.743
 4631WAT     H214136   4.170   2.322   9.742
 4632WAT      O14137   2.149   2.025   1.902
 4632WAT     H114138   2.227   2.081   1.928
 4632WAT     H214139   2.064   2.076   1.918
 4633WAT      O14140   8.063   2.935   8.352
 4633WAT     H114141   8.153   2.892   8.348
 4633WAT     H214142   8.060   2.999   8.429
 4634WAT      O14143   8.782   8.884   3.182
 4634WAT     H114144   8.808   8.917   3.092
 4634WAT     H214145   8.684   8.898   3.196
 4635WAT      O14146   8.628   9.034   4.591
 4635WAT     H114147   8.712   9.086   4.606
 4635WAT     H214148   8.558   9.063   4.656
 4636WAT      O14149   1.981   2.771   4.580
 4636WAT     H114150   1.924   2.706   4.631
 4636WAT     H214151   1.938   2.792   4.493
 4637WAT      O14152   6.778   8.291   3.549
 4637WAT     H114153   6.768   8.229   3.627
 4637WAT     H214154   6.712   8.366   3.557
 4638WAT      O14155   8.512   8.825   4.919
 4638WAT     H114156   8.585   8.883   4.956
 4638WAT     H214157   8.455   8.879   4.857
 4639WAT      O14158   7.616   9.326   3.025
 4639WAT     H114159   7.631   9.318   3.124
 4639WAT     H214160   7.658   9.411   2.993
 4640WAT      O14161   5.574   0.085   0.795
 4640WAT     H114162   5.609   0.009   0.850
 4640WAT     H214163   5.512   0.049   0.725
 4641WAT      O14164   3.779   2.972   2.901
 4641WAT     H114165   3.801   2.961   2.998
 4641WAT     H214166   3.805   2.890   2.851
 4642WAT      O14167   0.977   4.139   9.208
 4642WAT     H114168   0.977   4.159   9.110
 4642WAT     H214169   1.071   4.132   9.241
 4643WAT      O14170   0.566   2.890   7.540
 4643WAT     H114171   0.541   2.888   7.637
 4643WAT     H214172   0.597   2.981   7.515
 4644WAT      O14173   4.261   1.851   5.954
 4644WAT     H114174   4.189   1.916   5.977
 4644WAT     H214175   4.221   1.772   5.906
 4645WAT      O14176   5.804   1.386   8.562
 4645WAT     H114177   5.849   1.475   8.572
 4645WAT     H214178   5.874   1.315   8.558
 4646WAT      O14179   5.056   0.077   4.743
 4646WAT     H114180   5.049   0.174   4.765
 4646WAT     H214181   5.115   0.032   4.810
 4647WAT      O14182   9.418   3.386   5.314
 4647WAT     H114183   9.467   3.469   5.341
 4647WAT     H214184   9.436   3.313   5.380
 4648WAT      O14185   4.828   3.288   7.569
 4648WAT     H114186   4.800   3.194   7.548
 4648WAT     H214187   4.790   3.350   7.501
 4649WAT      O14188   6.693   9.209   9.148
 4649WAT     H114189   6.665   9.147   9.075
 4649WAT     H214190   6.649   9.182   9.234
 4650WAT      O14191   1.124   3.665   6.970
 4650WAT     H114192   1.177   3.749   6.961
 4650WAT     H214193   1.176   3.598   7.023
 4651WAT      O14194   8.516   7.579   0.468
 4651WAT     H114195   8.561   7.668   0.475
 4651WAT     H214196   8.462   7.575   0.384
 4652WAT      O14197   1.903   6.088   2.551
 4652WAT     H114198   1.876   6.114   2.643
 4652WAT     H214199   1.983   6.141   2.523
 4653WAT      O14200   6.892   2.946   5.029
 4653WAT     H114201   6.898   3.018   5.098
 4653WAT     H214202   6.965   2.958   4.961
 4654WAT      O14203   4.348   0.576   8.394
 4654WAT     H114204   4.378   0.590   8.300
 4654WAT     H214205   4.298   0.656   8.426
 4655WAT      O14206   7.259   8.118   4.010
 4655WAT     H114207   7.189   8.138   3.941
 4655WAT     H214208   7.306   8.033   3.986
 4656WAT      O14209   6.861   3.886   4.909
 4656WAT     H114210   6.793   3.835   4.963
 4656WAT     H214211   6.876   3.839   4.822
 4657WAT      O14212   9.370   7.390   2.309
 4657WAT     H114213   9.347   7.428   2.399
 4657WAT     H214214   9.293   7.404   2.246
 4658WAT      O14215   5.074   5.333   0.284
 4658WAT     H114216   5.050   5.354   0.189
 4658WAT     H214217   5.173   5.333   0.295
 4659WAT      O14218   1.651   5.336   9.028
 4659WAT     H114219   1.647   5.280   8.945
 4659WAT     H214220   1.597   5.294   9.100
 4660WAT      O14221   6.973   2.215   1.912
 4660WAT     H114222   7.028   2.218   1.829
 4660WAT     H214223   7.026   2.172   1.986
 4661WAT      O14224   1.288   6.750   1.293
 4661WAT     H114225   1.361   6.812   1.323
 4661WAT     H214226   1.200   6.782   1.329
 4662WAT      O14227   6.430   2.816   4.844
 4662WAT     H114228   6.413   2.723   4.811
 4662WAT     H214229   6.446   2.814   4.943
 4663WAT      O14230   9.751   3.092   6.356
 4663WAT     H114231   9.684   3.047   6.296
 4663WAT     H214232   9.809   3.023   6.399
 4664WAT      O14233   9.256   8.609   8.823
 4664WAT     H114234   9.341   8.651   8.792
 4664WAT     H214235   9.214   8.666   8.894
 4665WAT      O14236   6.588   9.181   8.314
 4665WAT     H114237   6.538   9.143   8.236
 4665WAT     H214238   6.677   9.214   8.284
 4666WAT      O14239   2.121   5.293   2.894
 4666WAT     H114240   2.072   5.207   2.877
 4666WAT     H214241   2.152   5.296   2.989
 4667WAT      O14242   6.990   6.869   0.485
 4667WAT     H114243   6.919   6.916   0.537
 4667WAT     H214244   7.080   6.897   0.518
 4668WAT      O14245   7.756   1.717   7.549
 4668WAT     H114246   7.854   1.701   7.540
 4668WAT     H214247   7.737   1.815   7.538
 4669WAT      O14248   3.707   2.964   4.147
 4669WAT     H114249   3.696   2.891   4.214
 4669WAT     H214250   3.687   3.052   4.190
 4670WAT      O14251   4.622   8.535   3.060
 4670WAT     H114252   4.722   8.538   3.061
 4670WAT     H214253   4.591   8.459   3.004
 4671WAT      O14254   2.746   4.209   2.126
 4671WAT     H114255   2.779   4.173   2.039
 4671WAT     H214256   2.823   4.223   2.187
 4672WAT      O14257   6.847   7.377   9.675
 4672WAT     H114258   6.785   7.324   9.617
 4672WAT     H214259   6.869   7.464   9.631
 4673WAT      O14260   5.668   1.166   3.990
 4673WAT     H114261   5.684   1.075   3.951
 4673WAT     H214262   5.618   1.221   3.924
 4674WAT      O14263   6.541   5.640   9.317
 4674WAT     H114264   6.555   5.621   9.220
 4674WAT     H214265   6.600   5.581   9.371
 4675WAT      O14266   8.109   1.731   6.539
 4675WAT     H114267   8.139   1.714   6.633
 4675WAT     H214268   8.078   1.645   6.499
 4676WAT      O14269   5.051   2.262   6.459
 4676WAT     H114270   5.138   2.282   6.504
 4676WAT     H214271   4.977   2.268   6.526
 4677WAT      O14272   3.650   9.313   9.186
 4677WAT     H114273   3.617   9.281   9.097
 4677WAT     H214274   3.749   9.321   9.184
 4678WAT      O14275   0.794   7.541   6.915
 4678WAT     H114276   0.819   7.527   7.011
 4678WAT     H214277   0.717   7.483   6.891
 4679WAT      O14278   5.354   4.553   0.028
 4679WAT     H114279   5.372   4.463  -0.012
 4679WAT     H214280   5.329   4.617  -0.045
 4680WAT      O14281   3.535   1.483   0.043
 4680WAT     H114282   3.480   1.548  -0.011
 4680WAT     H214283   3.493   1.393   0.039
 4681WAT      O14284   8.469   3.171   5.219
 4681WAT     H114285   8.464   3.075   5.188
 4681WAT     H214286   8.447   3.231   5.143
 4682WAT      O14287   2.296   1.555   6.887
 4682WAT     H114288   2.333   1.637   6.932
 4682WAT     H214289   2.296   1.479   6.952
 4683WAT      O14290   7.111   1.989   2.340
 4683WAT     H114291   7.182   1.938   2.291
 4683WAT     H214292   7.143   2.010   2.432
 4684WAT      O14293   2.411   9.542   6.403
 4684WAT     H114294   2.355   9.578   6.477
 4684WAT     H214295   2.431   9.614   6.337
 4685WAT      O14296   8.523   3.399   6.449
 4685WAT     H114297   8.516   3.306   6.414
 4685WAT     H214298   8.586   3.452   6.391
 4686WAT      O14299   0.797   1.564   5.656
 4686WAT     H114300   0.776   1.539   5.562
 4686WAT     H214301   0.891   1.538   5.678
 4687WAT      O14302   9.075   8.255   8.903
 4687WAT     H114303   9.124   8.293   8.824
 4687WAT     H214304   9.132   8.187   8.948
 4688WAT      O14305   8.242   7.400   1.093
 4688WAT     H114306   8.209   7.478   1.148
 4688WAT     H214307   8.339   7.385   1.112
 4689WAT      O14308   0.274   0.162   1.379
 4689WAT     H114309   0.374   0.157   1.377
 4689WAT     H214310   0.239   0.180   1.287
 4690WAT      O14311   4.803   0.304   3.356
 4690WAT     H114312   4.842   0.228   3.305
 4690WAT     H214313   4.864   0.384   3.349
 4691WAT      O14314   1.867   0.115   8.237
 4691WAT     H114315   1.888   0.076   8.326
 4691WAT     H214316   1.951   0.145   8.192
 4692WAT      O14317   3.590   2.336   9.480
 4692WAT     H114318   3.584   2.381   9.391
 4692WAT     H214319   3.586   2.404   9.553
 4693WAT      O14320   0.059   1.152   6.561
 4693WAT     H114321   0.098   1.154   6.653
 4693WAT     H214322   0.131   1.139   6.493
 4694WAT      O14323   7.301   4.738   6.815
 4694WAT     H114324   7.352   4.779   6.740
 4694WAT     H214325   7.359   4.731   6.896
 4695WAT      O14326   0.650   4.960   5.997
 4695WAT     H114327   0.672   5.031   6.063
 4695WAT     H214328   0.663   4.870   6.039
 4696WAT      O14329   6.171   6.649   3.069
 4696WAT     H114330   6.143   6.639   2.974
 4696WAT     H214331   6.202   6.743   3.085
 4697WAT      O14332   7.866   7.337   2.517
 4697WAT     H114333   7.952   7.352   2.566
 4697WAT     H214334   7.808   7.418   2.525
 4698WAT      O14335   0.841   8.335   7.901
 4698WAT     H114336   0.932   8.346   7.941
 4698WAT     H214337   0.791   8.422   7.907
 4699WAT      O14338   5.551   7.357   8.169
 4699WAT     H114339   5.644   7.358   8.133
 4699WAT     H214340   5.553   7.338   8.267
 4700WAT      O14341   7.083   8.458   9.862
 4700WAT     H114342   7.163   8.512   9.835
 4700WAT     H214343   7.006   8.520   9.879
 4701WAT      O14344   9.778   2.262   3.130
 4701WAT     H114345   9.785   2.163   3.138
 4701WAT     H214346   9.812   2.291   3.040
 4702WAT      O14347   0.640   4.916   8.496
 4702WAT     H114348   0.608   4.845   8.433
 4702WAT     H214349   0.710   4.877   8.557
 4703WAT      O14350   7.054   5.975   6.565
 4703WAT     H114351   6.972   6.013   6.522
 4703WAT     H214352   7.134   6.031   6.542
 4704WAT      O14353   0.003   7.624   0.275
 4704WAT     H114354   0.060   7.676   0.210
 4704WAT     H214355   0.012   7.664   0.366
 4705WAT      O14356   7.096   0.404   5.453
 4705WAT     H114357   7.064   0.445   5.368
 4705WAT     H214358   7.061   0.457   5.531
 4706WAT      O14359   5.491   0.385   4.270
 4706WAT     H114360   5.566   0.346   4.323
 4706WAT     H214361   5.404   0.353   4.307
 4707WAT      O14362   7.578   8.713   0.024
 4707WAT     H114363   7.645   8.638   0.021
 4707WAT     H214364   7.604   8.779   0.094
 4708WAT      O14365   5.078   4.140   3.614
 4708WAT     H114366   5.133   4.100   3.687
 4708WAT     H214367   5.092   4.088   3.530
 4709WAT      O14368   4.276   9.440   8.614
 4709WAT     H114369   4.241   9.533   8.623
 4709WAT     H214370   4.361   9.441   8.562
 4710WAT      O14371   3.185   8.554   2.836
 4710WAT     H114372   3.108   8.577   2.895
 4710WAT     H214373   3.153   8.499   2.759
 4711WAT      O14374   2.909   1.681   0.267
 4711WAT     H114375   2.967   1.729   0.333
 4711WAT     H214376   2.820   1.725   0.262
 4712WAT      O14377   8.427   2.049   7.040
 4712WAT     H114378   8.443   1.967   7.097
 4712WAT     H214379   8.331   2.052   7.014
 4713WAT      O14380   3.675   6.115   2.644
 4713WAT     H114381   3.712   6.034   2.598
 4713WAT     H214382   3.665   6.189   2.578
 4714WAT      O14383   3.169   6.064   4.262
 4714WAT     H114384   3.185   6.162   4.249
 4714WAT     H214385   3.096   6.034   4.200
 4715WAT      O14386   3.525   6.090   8.457
 4715WAT     H114387   3.485   5.999   8.472
 4715WAT     H214388   3.455   6.160   8.468
 4716WAT      O14389   8.385   3.631   6.272
 4716WAT     H114390   8.477   3.640   6.308
 4716WAT     H214391   8.386   3.573   6.191
 4717WAT      O14392   1.209   8.343   1.912
 4717WAT     H114393   1.184   8.351   1.816
 4717WAT     H214394   1.308   8.354   1.922
 4718WAT      O14395   9.186   8.585   6.912
 4718WAT     H114396   9.216   8.595   6.818
 4718WAT     H214397   9.091   8.553   6.914
 4719WAT      O14398   3.229   2.434   6.458
 4719WAT     H114399   3.212   2.469   6.366
 4719WAT     H214400   3.190   2.497   6.526
 4720WAT      O14401   9.532   7.735   7.028
 4720WAT     H114402   9.607   7.791   6.993
 4720WAT     H214403   9.467   7.792   7.077
 4721WAT      O14404   5.798   4.920   2.679
 4721WAT     H114405   5.704   4.935   2.647
 4721WAT     H214406   5.796   4.901   2.777
 4722WAT      O14407   5.381   4.829   1.026
 4722WAT     H114408   5.302   4.790   1.074
 4722WAT     H214409   5.386   4.927   1.044
 4723WAT      O14410   5.305   0.874   3.114
 4723WAT     H114411   5.240   0.888   3.040
 4723WAT     H214412   5.343   0.962   3.142
 4724WAT      O14413   3.397   8.769   7.336
 4724WAT     H114414   3.386   8.785   7.434
 4724WAT     H214415   3.325   8.707   7.304
 4725WAT      O14416   2.040   6.966   8.914
 4725WAT     H114417   2.094   6.931   8.838
 4725WAT     H214418   2.062   6.916   8.997
 4726WAT      O14419   9.271   5.474   8.293
 4726WAT     H114420   9.221   5.387   8.286
 4726WAT     H214421   9.328   5.485   8.212
 4727WAT      O14422   8.827   7.510   9.806
 4727WAT     H114423   8.909   7.454   9.816
 4727WAT     H214424   8.808   7.558   9.892
 4728WAT      O14425   4.141   3.751   8.977
 4728WAT     H114426   4.239   3.756   8.997
 4728WAT     H214427   4.113   3.655   8.975
 4729WAT      O14428   6.402   6.199   1.153
 4729WAT     H114429   6.337   6.194   1.076
 4729WAT     H214430   6.458   6.116   1.154
 4730WAT      O14431   7.861   2.163   8.511
 4730WAT     H114432   7.852   2.138   8.415
 4730WAT     H214433   7.949   2.132   8.547
 4731WAT      O14434   5.264   5.390   0.005
 4731WAT     H114435   5.172   5.411  -0.028
 4731WAT     H214436   5.301   5.469   0.054
 4732WAT      O14437   0.153   4.789   1.904
 4732WAT     H114438   0.114   4.701   1.933
 4732WAT     H214439   0.214   4.823   1.975
 4733WAT      O14440   9.065   0.888   7.894
 4733WAT     H114441   9.033   0.917   7.804
 4733WAT     H214442   8.988   0.888   7.958
 4734WAT      O14443   9.864   6.564   9.805
 4734WAT     H114444   9.804   6.644   9.795
 4734WAT     H214445   9.951   6.592   9.845
 4735WAT      O14446   8.722   7.837   6.042
 4735WAT     H114447   8.669   7.780   6.104
 4735WAT     H214448   8.817   7.842   6.074
 4736WAT      O14449   5.625   0.521   5.631
 4736WAT     H114450   5.595   0.476   5.547
 4736WAT     H214451   5.610   0.619   5.624
 4737WAT      O14452   8.388   0.075   0.301
 4737WAT     H114453   8.321   0.002   0.294
 4737WAT     H214454   8.360   0.152   0.244
 4738WAT      O14455   7.590   1.190   5.486
 4738WAT     H114456   7.490   1.188   5.485
 4738WAT     H214457   7.622   1.274   5.443
 4739WAT      O14458   6.119   4.621   8.199
 4739WAT     H114459   6.087   4.541   8.250
 4739WAT     H214460   6.080   4.620   8.107
 4740WAT      O14461   4.639   6.614   6.080
 4740WAT     H114462   4.693   6.544   6.126
 4740WAT     H214463   4.566   6.571   6.027
 4741WAT      O14464   0.393   7.987   8.984
 4741WAT     H114465   0.485   8.001   9.019
 4741WAT     H214466   0.336   8.065   9.009
 4742WAT      O14467   8.640   0.321   1.763
 4742WAT     H114468   8.700   0.315   1.683
 4742WAT     H214469   8.590   0.236   1.774
 4743WAT      O14470   9.434   9.054   3.764
 4743WAT     H114471   9.533   9.051   3.782
 4743WAT     H214472   9.384   9.026   3.846
 4744WAT      O14473   3.169   1.073   2.544
 4744WAT     H114474   3.220   1.024   2.615
 4744WAT     H214475   3.094   1.016   2.512
 4745WAT      O14476   6.970   0.077   7.666
 4745WAT     H114477   6.949  -0.020   7.676
 4745WAT     H214478   6.905   0.131   7.719
 4746WAT      O14479   3.767   0.190   3.884
 4746WAT     H114480   3.809   0.281   3.887
 4746WAT     H214481   3.828   0.124   3.929
 4747WAT      O14482   6.698   9.031   1.488
 4747WAT     H114483   6.748   9.077   1.561
 4747WAT     H214484   6.644   8.956   1.528
 4748WAT      O14485   9.240   2.919   5.994
 4748WAT     H114486   9.294   2.841   6.025
 4748WAT     H214487   9.144   2.892   5.984
 4749WAT      O14488   0.372   2.355   2.395
 4749WAT     H114489   0.430   2.276   2.374
 4749WAT     H214490   0.277   2.335   2.368
 4750WAT      O14491   2.542   1.154   0.132
 4750WAT     H114492   2.536   1.092   0.054
 4750WAT     H214493   2.508   1.244   0.104
 4751WAT      O14494   0.527   0.955   2.263
 4751WAT     H114495   0.448   0.928   2.319
 4751WAT     H214496   0.560   1.045   2.292
 4752WAT      O14497   8.976   4.185   4.263
 4752WAT     H114498   8.970   4.085   4.258
 4752WAT     H214499   9.059   4.215   4.215
 4753WAT      O14500   9.168   2.813   4.045
 4753WAT     H114501   9.132   2.763   3.967
 4753WAT     H214502   9.247   2.765   4.082
 4754WAT      O14503   9.167   1.593   2.256
 4754WAT     H114504   9.076   1.586   2.298
 4754WAT     H214505   9.171   1.533   2.176
 4755WAT      O14506   4.906   1.210   1.392
 4755WAT     H114507   4.920   1.267   1.311
 4755WAT     H214508   4.816   1.227   1.431
 4756WAT      O14509   9.877   9.405   4.428
 4756WAT     H114510   9.835   9.445   4.510
 4756WAT     H214511   9.976   9.422   4.429
 4757WAT      O14512   6.793   6.062   7.533
 4757WAT     H114513   6.833   6.017   7.453
 4757WAT     H214514   6.854   6.051   7.612
 4758WAT      O14515   4.376   4.311   0.314
 4758WAT     H114516   4.409   4.218   0.302
 4758WAT     H214517   4.396   4.365   0.232
 4759WAT      O14518   2.576   6.727   3.852
 4759WAT     H114519   2.617   6.793   3.915
 4759WAT     H214520   2.545   6.647   3.902
 4760WAT      O14521   9.028   6.148   0.905
 4760WAT     H114522   8.962   6.128   0.978
 4760WAT     H214523   8.991   6.220   0.846
 4761WAT      O14524   9.149   4.160   3.590
 4761WAT     H114525   9.111   4.247   3.560
 4761WAT     H214526   9.139   4.091   3.518
 4762WAT      O14527   7.041   8.842   0.274
 4762WAT     H114528   7.072   8.791   0.354
 4762WAT     H214529   7.091   8.811   0.193
 4763WAT      O14530   9.860   0.827   9.333
 4763WAT     H114531   9.941   0.783   9.372
 4763WAT     H214532   9.860   0.924   9.357
 4764WAT      O14533   1.723   1.989   8.787
 4764WAT     H114534   1.701   2.083   8.758
 4764WAT     H214535   1.822   1.975   8.781
 4765WAT      O14536   9.797   2.042   4.086
 4765WAT     H114537   9.778   2.053   3.988
 4765WAT     H214538   9.789   2.131   4.131
 4766WAT      O14539   5.059   2.044   2.271
 4766WAT     H114540   5.058   2.096   2.186
 4766WAT     H214541   5.150   2.004   2.286
 4767WAT      O14542   3.170   8.017   4.017
 4767WAT     H114543   3.145   8.054   3.928
 4767WAT     H214544   3.090   7.975   4.060
 4768WAT      O14545   8.040   3.046   5.734
 4768WAT     H114546   8.064   3.021   5.640
 4768WAT     H214547   8.111   3.107   5.770
 4769WAT      O14548   3.042   0.589   3.676
 4769WAT     H114549   2.961   0.542   3.711
 4769WAT     H214550   3.076   0.541   3.595
 4770WAT      O14551   1.194   1.774   6.781
 4770WAT     H114552   1.228   1.691   6.738
 4770WAT     H214553   1.111   1.754   6.832
 4771WAT      O14554   0.320   1.439   3.721
 4771WAT     H114555   0.337   1.435   3.622
 4771WAT     H214556   0.279   1.352   3.751
 4772WAT      O14557   8.444   2.139   1.211
 4772WAT     H114558   8.473   2.054   1.169
 4772WAT     H214559   8.346   2.152   1.198
 4773WAT      O14560   7.096   3.419   3.086
 4773WAT     H114561   7.170   3.474   3.124
 4773WAT     H214562   7.020   3.478   3.060
 4774WAT      O14563   1.189   6.699   0.147
 4774WAT     H114564   1.125   6.772   0.171
 4774WAT     H214565   1.220   6.653   0.231
 4775WAT      O14566   3.306   0.866   6.489
 4775WAT     H114567   3.397   0.892   6.521
 4775WAT     H214568   3.282   0.922   6.409
 4776WAT      O14569   5.899   8.366   6.448
 4776WAT     H114570   5.989   8.391   6.483
 4776WAT     H214571   5.833   8.438   6.470
 4777WAT      O14572   4.662   5.306   6.250
 4777WAT     H114573   4.604   5.295   6.170
 4777WAT     H214574   4.613   5.357   6.320
 4778WAT      O14575   8.004   8.186   1.181
 4778WAT     H114576   8.034   8.096   1.212
 4778WAT     H214577   7.910   8.181   1.148
 4779WAT      O14578   5.348   9.472   2.889
 4779WAT     H114579   5.384   9.559   2.856
 4779WAT     H214580   5.303   9.423   2.814
 4780WAT      O14581   0.180   0.823   9.735
 4780WAT     H114582   0.206   0.797   9.643
 4780WAT     H214583   0.084   0.798   9.751
 4781WAT      O14584   5.470   8.229   8.153
 4781WAT     H114585   5.538   8.238   8.080
 4781WAT     H214586   5.437   8.134   8.156
 4782WAT      O14587   3.966   4.359   4.807
 4782WAT     H114588   3.878   4.312   4.820
 4782WAT     H214589   4.035   4.318   4.866
 4783WAT      O14590   6.722   6.764   7.078
 4783WAT     H114591   6.820   6.776   7.063
 4783WAT     H214592   6.683   6.711   7.002
 4784WAT      O14593   5.038   8.268   9.422
 4784WAT     H114594   4.946   8.263   9.461
 4784WAT     H214595   5.036   8.320   9.337
 4785WAT      O14596   5.348   1.777   9.191
 4785WAT     H114597   5.413   1.776   9.267
 4785WAT     H214598   5.348   1.867   9.149
 4786WAT      O14599   0.478   5.967   4.582
 4786WAT     H114600   0.422   6.034   4.532
 4786WAT     H214601   0.575   5.989   4.570
 4787WAT      O14602   6.568   8.049   6.017
 4787WAT     H114603   6.532   8.094   6.099
 4787WAT     H214604   6.668   8.057   6.016
 4788WAT      O14605   0.370   2.733   9.178
 4788WAT     H114606   0.465   2.741   9.207
 4788WAT     H214607   0.311   2.732   9.259
 4789WAT      O14608   4.145   5.786   1.415
 4789WAT     H114609   4.060   5.753   1.456
 4789WAT     H214610   4.201   5.708   1.388
 4790WAT      O14611   1.257   4.230   9.003
 4790WAT     H114612   1.311   4.147   8.995
 4790WAT     H214613   1.314   4.305   9.036
 4791WAT      O14614   2.470   6.083   3.268
 4791WAT     H114615   2.516   6.117   3.186
 4791WAT     H214616   2.527   6.014   3.312
 4792WAT      O14617   4.624   1.178   6.470
 4792WAT     H114618   4.709   1.130   6.448
 4792WAT     H214619   4.586   1.141   6.555
 4793WAT      O14620   2.348   9.192   7.307
 4793WAT     H114621   2.396   9.259   7.362
 4793WAT     H214622   2.410   9.154   7.239
 4794WAT      O14623   3.322   7.748   6.967
 4794WAT     H114624   3.293   7.665   7.015
 4794WAT     H214625   3.367   7.724   6.881
 4795WAT      O14626   7.135   2.992   4.513
 4795WAT     H114627   7.137   2.900   4.474
 4795WAT     H214628   7.110   2.987   4.609
 4796WAT      O14629   1.485   5.206   8.248
 4796WAT     H114630   1.453   5.286   8.298
 4796WAT     H214631   1.531   5.143   8.311
 4797WAT      O14632   9.064   9.464   6.138
 4797WAT     H114633   9.100   9.415   6.217
 4797WAT     H214634   9.117   9.442   6.056
 4798WAT      O14635   7.457   4.837   6.625
 4798WAT     H114636   7.399   4.880   6.556
 4798WAT     H214637   7.540   4.801   6.583
 4799WAT      O14638   8.712   4.964   7.546
 4799WAT     H114639   8.756   4.995   7.462
 4799WAT     H214640   8.622   4.927   7.525
 4800WAT      O14641   1.127   4.331   3.791
 4800WAT     H114642   1.173   4.285   3.714
 4800WAT     H214643   1.189   4.398   3.831
 4801WAT      O14644   1.553   2.960   3.071
 4801WAT     H114645   1.576   2.961   3.169
 4801WAT     H214646   1.567   3.051   3.032
 4802WAT      O14647   1.801   4.327   3.039
 4802WAT     H114648   1.827   4.293   2.948
 4802WAT     H214649   1.762   4.419   3.029
 4803WAT      O14650   6.674   5.373   5.736
 4803WAT     H114651   6.578   5.347   5.744
 4803WAT     H214652   6.718   5.316   5.666
 4804WAT      O14653   8.309   0.665   5.853
 4804WAT     H114654   8.209   0.656   5.856
 4804WAT     H214655   8.351   0.589   5.902
 4805WAT      O14656   4.696   8.947   6.801
 4805WAT     H114657   4.633   9.003   6.747
 4805WAT     H214658   4.788   8.951   6.760
 4806WAT      O14659   5.201   7.621   3.285
 4806WAT     H114660   5.298   7.601   3.301
 4806WAT     H214661   5.166   7.679   3.359
 4807WAT      O14662   1.730   6.288   0.282
 4807WAT     H114663   1.719   6.372   0.335
 4807WAT     H214664   1.798   6.303   0.210
 4808WAT      O14665   8.756   9.107   7.707
 4808WAT     H114666   8.836   9.123   7.766
 4808WAT     H214667   8.676   9.153   7.746
 4809WAT      O14668   0.627   7.674   7.273
 4809WAT     H114669   0.710   7.630   7.239
 4809WAT     H214670   0.632   7.684   7.373
 4810WAT      O14671   4.680   1.676   4.194
 4810WAT     H114672   4.684   1.715   4.102
 4810WAT     H214673   4.744   1.726   4.253
 4811WAT      O14674   7.617   1.237   8.993
 4811WAT     H114675   7.591   1.147   9.029
 4811WAT     H214676   7.699   1.269   9.039
 4812WAT      O14677   1.236   4.972   0.522
 4812WAT     H114678   1.319   4.921   0.498
 4812WAT     H214679   1.233   5.056   0.469
 4813WAT      O14680   0.014   5.341   6.787
 4813WAT     H114681   0.057   5.262   6.830
 4813WAT     H214682   0.068   5.423   6.805
 4814WAT      O14683   7.978   2.307   8.162
 4814WAT     H114684   7.963   2.209   8.148
 4814WAT     H214685   7.892   2.351   8.186
 4815WAT      O14686   1.198   2.172   8.596
 4815WAT     H114687   1.278   2.229   8.577
 4815WAT     H214688   1.213   2.080   8.562
 4816WAT      O14689   3.967   6.014   8.696
 4816WAT     H114690   3.883   6.053   8.657
 4816WAT     H214691   3.964   5.914   8.690
 4817WAT      O14692   3.175   3.413   3.173
 4817WAT     H114693   3.164   3.508   3.144
 4817WAT     H214694   3.202   3.357   3.095
 4818WAT      O14695   2.037   2.575   5.995
 4818WAT     H114696   1.944   2.546   6.014
 4818WAT     H214697   2.036   2.647   5.925
 4819WAT      O14698   1.463   2.385   0.877
 4819WAT     H114699   1.561   2.365   0.876
 4819WAT     H214700   1.428   2.386   0.784
 4820WAT      O14701   4.959   4.671   0.947
 4820WAT     H114702   4.859   4.676   0.945
 4820WAT     H214703   4.990   4.590   0.898
 4821WAT      O14704   7.107   2.882   6.639
 4821WAT     H114705   7.059   2.843   6.560
 4821WAT     H214706   7.106   2.982   6.633
 4822WAT      O14707   5.123   7.403   9.282
 4822WAT     H114708   5.094   7.499   9.293
 4822WAT     H214709   5.052   7.353   9.233
 4823WAT      O14710   3.166   5.000   9.157
 4823WAT     H114711   3.082   5.053   9.145
 4823WAT     H214712   3.151   4.907   9.125
 4824WAT      O14713   3.388   1.053   9.463
 4824WAT     H114714   3.349   1.143   9.445
 4824WAT     H214715   3.343   0.984   9.405
 4825WAT      O14716   3.872   2.626   8.996
 4825WAT     H114717   3.870   2.693   9.070
 4825WAT     H214718   3.890   2.535   9.034
 4826WAT      O14719   4.312   2.624   3.552
 4826WAT     H114720   4.373   2.587   3.622
 4826WAT     H214721   4.289   2.719   3.574
 4827WAT      O14722   3.958   0.155   6.285
 4827WAT     H114723   4.004   0.244   6.275
 4827WAT     H214724   3.859   0.169   6.285
 4828WAT      O14725   8.730   3.353   3.177
 4828WAT     H114726   8.783   3.274   3.209
 4828WAT     H214727   8.691   3.333   3.087
 4829WAT      O14728   4.829   0.080   7.420
 4829WAT     H114729   4.850   0.177   7.404
 4829WAT     H214730   4.831   0.032   7.332
 4830WAT      O14731   5.607   8.002   6.032
 4830WAT     H114732   5.701   8.032   6.018
 4830WAT     H214733   5.595   7.911   5.992
 4831WAT      O14734   7.471   4.899   5.137
 4831WAT     H114735   7.550   4.908   5.077
 4831WAT     H214736   7.401   4.842   5.094
 4832WAT      O14737   0.300   1.392   0.224
 4832WAT     H114738   0.223   1.391   0.160
 4832WAT     H214739   0.304   1.305   0.273
 4833WAT      O14740   5.480   7.159   0.110
 4833WAT     H114741   5.486   7.208   0.197
 4833WAT     H214742   5.526   7.213   0.039
 4834WAT      O14743   6.677   6.660   0.763
 4834WAT     H114744   6.735   6.729   0.808
 4834WAT     H214745   6.615   6.620   0.829
 4835WAT      O14746   0.165   0.276   5.943
 4835WAT     H114747   0.170   0.181   5.912
 4835WAT     H214748   0.070   0.303   5.952
 4836WAT      O14749   6.663   1.847   7.194
 4836WAT     H114750   6.628   1.921   7.250
 4836WAT     H214751   6.635   1.759   7.234
 4837WAT      O14752   0.259   4.134   2.387
 4837WAT     H114753   0.210   4.214   2.423
 4837WAT     H214754   0.245   4.128   2.288
 4838WAT      O14755   2.990   8.267   6.244
 4838WAT     H114756   2.912   8.281   6.183
 4838WAT     H214757   2.978   8.323   6.326
 4839WAT      O14758   0.199   9.744   1.167
 4839WAT     H114759   0.234   9.753   1.260
 4839WAT     H214760   0.233   9.660   1.126
 4840WAT      O14761   1.805   8.616   7.954
 4840WAT     H114762   1.872   8.595   8.025
 4840WAT     H214763   1.839   8.691   7.897
 4841WAT      O14764   0.379   0.867   3.757
 4841WAT     H114765   0.374   0.967   3.760
 4841WAT     H214766   0.451   0.835   3.818
 4842WAT      O14767   9.797   3.678   3.127
 4842WAT     H114768   9.773   3.641   3.216
 4842WAT     H214769   9.892   3.710   3.129
 4843WAT      O14770   8.972   4.310   9.414
 4843WAT     H114771   9.042   4.359   9.466
 4843WAT     H214772   9.013   4.228   9.373
 4844WAT      O14773   6.275   2.336   8.723
 4844WAT     H114774   6.257   2.387   8.807
 4844WAT     H214775   6.265   2.238   8.742
 4845WAT      O14776   8.654   7.222   2.202
 4845WAT     H114777   8.723   7.176   2.146
 4845WAT     H214778   8.565   7.180   2.186
 4846WAT      O14779   3.562   7.217   3.690
 4846WAT     H114780   3.504   7.178   3.617
 4846WAT     H214781   3.570   7.316   3.676
 4847WAT      O14782   5.571   5.242   4.657
 4847WAT     H114783   5.658   5.199   4.634
 4847WAT     H214784   5.576   5.281   4.749
 4848WAT      O14785   0.445   5.760   2.514
 4848WAT     H114786   0.394   5.814   2.447
 4848WAT     H214787   0.513   5.704   2.467
 4849WAT      O14788   7.519   9.484   3.837
 4849WAT     H114789   7.422   9.493   3.861
 4849WAT     H214790   7.575   9.504   3.917
 4850WAT      O14791   6.558   2.701   1.737
 4850WAT     H114792   6.588   2.766   1.668
 4850WAT     H214793   6.624   2.626   1.743
 4851WAT      O14794   1.289   7.173   8.337
 4851WAT     H114795   1.266   7.226   8.419
 4851WAT     H214796   1.220   7.189   8.267
 4852WAT      O14797   1.280   7.044   4.978
 4852WAT     H114798   1.373   7.055   5.015
 4852WAT     H214799   1.232   6.973   5.029
 4853WAT      O14800   5.219   3.460   4.515
 4853WAT     H114801   5.243   3.386   4.452
 4853WAT     H214802   5.120   3.465   4.525
 4854WAT      O14803   4.955   7.459   0.509
 4854WAT     H114804   5.007   7.446   0.593
 4854WAT     H214805   4.904   7.545   0.514
 4855WAT      O14806   4.307   2.872   7.464
 4855WAT     H114807   4.318   2.797   7.398
 4855WAT     H214808   4.334   2.958   7.422
 4856WAT      O14809   0.249   5.805   3.286
 4856WAT     H114810   0.289   5.858   3.211
 4856WAT     H214811   0.152   5.792   3.270
 4857WAT      O14812   5.303   6.660   7.443
 4857WAT     H114813   5.379   6.660   7.508
 4857WAT     H214814   5.232   6.598   7.475
 4858WAT      O14815   3.302   2.422   8.057
 4858WAT     H114816   3.340   2.340   8.013
 4858WAT     H214817   3.273   2.400   8.150
 4859WAT      O14818   4.248   0.212   9.297
 4859WAT     H114819   4.194   0.268   9.360
 4859WAT     H214820   4.235   0.244   9.203
 4860WAT      O14821   2.346   7.823   7.407
 4860WAT     H114822   2.368   7.921   7.404
 4860WAT     H214823   2.431   7.770   7.402
 4861WAT      O14824   4.158   1.276   6.859
 4861WAT     H114825   4.062   1.299   6.874
 4861WAT     H214826   4.169   1.234   6.769
 4862WAT      O14827   3.292   6.608   2.524
 4862WAT     H114828   3.281   6.517   2.483
 4862WAT     H214829   3.362   6.659   2.473
 4863WAT      O14830   8.364   7.167   2.212
 4863WAT     H114831   8.381   7.107   2.133
 4863WAT     H214832   8.383   7.117   2.296
 4864WAT      O14833   9.742   5.583   1.910
 4864WAT     H114834   9.821   5.535   1.871
 4864WAT     H214835   9.682   5.518   1.956
 4865WAT      O14836   6.032   9.475   0.057
 4865WAT     H114837   5.994   9.474   0.150
 4865WAT     H214838   5.971   9.426  -0.005
 4866WAT      O14839   4.461   8.558   1.239
 4866WAT     H114840   4.529   8.515   1.298
 4866WAT     H214841   4.369   8.539   1.273
 4867WAT      O14842   6.829   7.547   0.983
 4867WAT     H114843   6.747   7.603   0.975
 4867WAT     H214844   6.899   7.580   0.919
 4868WAT      O14845   7.534   0.845   3.885
 4868WAT     H114846   7.566   0.820   3.977
 4868WAT     H214847   7.598   0.811   3.817
 4869WAT      O14848   1.008   4.488   8.425
 4869WAT     H114849   1.088   4.477   8.483
 4869WAT     H214850   1.023   4.443   8.337
 4870WAT      O14851   8.700   8.220   0.317
 4870WAT     H114852   8.684   8.239   0.414
 4870WAT     H214853   8.766   8.285   0.280
 4871WAT      O14854   4.240   3.226   8.176
 4871WAT     H114855   4.146   3.247   8.150
 4871WAT     H214856   4.303   3.274   8.115
 4872WAT      O14857   2.731   3.698   1.196
 4872WAT     H114858   2.807   3.646   1.236
 4872WAT     H214859   2.736   3.693   1.096
 4873WAT      O14860   5.472   9.838   4.002
 4873WAT     H114861   5.533   9.895   3.946
 4873WAT     H214862   5.388   9.819   3.950
 4874WAT      O14863   9.505   7.015   9.641
 4874WAT     H114864   9.467   7.080   9.707
 4874WAT     H214865   9.604   7.010   9.652
 4875WAT      O14866   2.520   6.809   2.702
 4875WAT     H114867   2.425   6.779   2.692
 4875WAT     H214868   2.573   6.737   2.747
 4876WAT      O14869   4.940   3.125   5.156
 4876WAT     H114870   4.983   3.189   5.221
 4876WAT     H214871   4.870   3.173   5.103
 4877WAT      O14872   8.393   5.061   8.542
 4877WAT     H114873   8.345   5.034   8.458
 4877WAT     H214874   8.462   5.129   8.520
 4878WAT      O14875   2.614   0.753   2.475
 4878WAT     H114876   2.621   0.781   2.379
 4878WAT     H214877   2.530   0.791   2.514
 4879WAT      O14878   4.830   8.534   7.136
 4879WAT     H114879   4.767   8.562   7.209
 4879WAT     H214880   4.896   8.468   7.172
 4880WAT      O14881   2.029   1.426   4.137
 4880WAT     H114882   2.068   1.462   4.053
 4880WAT     H214883   1.936   1.394   4.119
 4881WAT      O14884   3.543   1.459   7.173
 4881WAT     H114885   3.599   1.410   7.106
 4881WAT     H214886   3.447   1.443   7.155
 4882WAT      O14887   4.089   5.334   5.883
 4882WAT     H114888   4.096   5.348   5.784
 4882WAT     H214889   4.136   5.249   5.908
 4883WAT      O14890   2.849   4.961   2.771
 4883WAT     H114891   2.765   5.013   2.754
 4883WAT     H214892   2.850   4.929   2.866
 4884WAT      O14893   9.778   8.893   9.180
 4884WAT     H114894   9.772   8.904   9.081
 4884WAT     H214895   9.827   8.971   9.219
 4885WAT      O14896   6.560   1.013   1.975
 4885WAT     H114897   6.530   1.026   2.070
 4885WAT     H214898   6.514   1.080   1.916
 4886WAT      O14899   4.899   9.332   7.714
 4886WAT     H114900   4.835   9.258   7.693
 4886WAT     H214901   4.869   9.415   7.667
 4887WAT      O14902   8.486   6.752   9.295
 4887WAT     H114903   8.527   6.814   9.228
 4887WAT     H214904   8.490   6.658   9.261
 4888WAT      O14905   3.111   4.476   9.881
 4888WAT     H114906   3.064   4.493   9.795
 4888WAT     H214907   3.044   4.474   9.955
 4889WAT      O14908   0.059   7.218   8.371
 4889WAT     H114909  -0.023   7.188   8.324
 4889WAT     H214910   0.040   7.303   8.421
 4890WAT      O14911   4.144   0.857   9.470
 4890WAT     H114912   4.211   0.913   9.518
 4890WAT     H214913   4.052   0.889   9.491
 4891WAT      O14914   0.035   5.674   4.145
 4891WAT     H114915   0.016   5.606   4.074
 4891WAT     H214916   0.056   5.762   4.102
 4892WAT      O14917   1.933   6.093   1.914
 4892WAT     H114918   1.888   6.084   1.825
 4892WAT     H214919   1.890   6.031   1.979
 4893WAT      O14920   7.750   2.467   1.182
 4893WAT     H114921   7.837   2.437   1.143
 4893WAT     H214922   7.766   2.506   1.273
 4894WAT      O14923   3.139   4.723   9.082
 4894WAT     H114924   3.073   4.714   9.008
 4894WAT     H214925   3.136   4.642   9.140
 4895WAT      O14926   6.547   1.549   1.198
 4895WAT     H114927   6.583   1.616   1.134
 4895WAT     H214928   6.469   1.589   1.247
 4896WAT      O14929   4.274   4.767   8.173
 4896WAT     H114930   4.250   4.754   8.077
 4896WAT     H214931   4.367   4.803   8.180
 4897WAT      O14932   7.855   0.211   6.435
 4897WAT     H114933   7.908   0.165   6.506
 4897WAT     H214934   7.762   0.172   6.433
 4898WAT      O14935   6.505   5.123   1.558
 4898WAT     H114936   6.512   5.101   1.655
 4898WAT     H214937   6.411   5.104   1.526
 4899WAT      O14938   8.702   5.865   5.010
 4899WAT     H114939   8.708   5.964   5.023
 4899WAT     H214940   8.666   5.823   5.094
 4900WAT      O14941   6.477   9.727   0.313
 4900WAT     H114942   6.398   9.776   0.348
 4900WAT     H214943   6.496   9.755   0.219
 4901WAT      O14944   1.191   3.334   8.904
 4901WAT     H114945   1.179   3.278   8.986
 4901WAT     H214946   1.289   3.349   8.888
 4902WAT      O14947   2.509   6.901   0.134
 4902WAT     H114948   2.587   6.920   0.194
 4902WAT     H214949   2.432   6.869   0.189
 4903WAT      O14950   5.512   4.159   8.523
 4903WAT     H114951   5.460   4.212   8.590
 4903WAT     H214952   5.607   4.192   8.521
 4904WAT      O14953   8.714   5.875   0.984
 4904WAT     H114954   8.662   5.851   0.902
 4904WAT     H214955   8.812   5.874   0.963
 4905WAT      O14956   2.399   0.317   7.210
 4905WAT     H114957   2.441   0.348   7.124
 4905WAT     H214958   2.370   0.396   7.263
 4906WAT      O14959   2.897   8.544   5.663
 4906WAT     H114960   2.932   8.582   5.748
 4906WAT     H214961   2.883   8.446   5.673
 4907WAT      O14962   7.552   7.859   4.626
 4907WAT     H114963   7.501   7.880   4.710
 4907WAT     H214964   7.528   7.925   4.555
 4908WAT      O14965   5.723   4.679   7.955
 4908WAT     H114966   5.721   4.762   7.900
 4908WAT     H214967   5.638   4.628   7.942
 4909WAT      O14968   1.365   4.651   7.409
 4909WAT     H114969   1.442   4.648   7.346
 4909WAT     H214970   1.323   4.560   7.414
 4910WAT      O14971   5.947   0.973   1.169
 4910WAT     H114972   5.861   0.984   1.120
 4910WAT     H214973   6.014   1.040   1.136
 4911WAT      O14974   6.483   7.488   6.459
 4911WAT     H114975   6.405   7.440   6.417
 4911WAT     H214976   6.507   7.567   6.402
 4912WAT      O14977   8.159   6.029   7.005
 4912WAT     H114978   8.177   5.987   7.094
 4912WAT     H214979   8.216   6.111   6.994
 4913WAT      O14980   3.961   7.571   1.566
 4913WAT     H114981   3.876   7.574   1.513
 4913WAT     H214982   4.030   7.628   1.522
 4914WAT      O14983   2.594   7.212   6.134
 4914WAT     H114984   2.592   7.239   6.037
 4914WAT     H214985   2.643   7.282   6.187
 4915WAT      O14986   2.555   1.846   8.221
 4915WAT     H114987   2.567   1.770   8.158
 4915WAT     H214988   2.642   1.866   8.266
 4916WAT      O14989   5.311   5.062   6.256
 4916WAT     H114990   5.232   5.087   6.202
 4916WAT     H214991   5.282   5.039   6.349
 4917WAT      O14992   1.565   6.820   4.614
 4917WAT     H114993   1.475   6.830   4.657
 4917WAT     H214994   1.601   6.729   4.632
 4918WAT      O14995   5.328   6.476   5.254
 4918WAT     H114996   5.270   6.529   5.316
 4918WAT     H214997   5.357   6.534   5.179
 4919WAT      O14998   9.025   5.254   8.335
 4919WAT     H114999   9.082   5.226   8.258
 4919WAT     H215000   8.944   5.301   8.302
 4920WAT      O15001   1.925   8.599   9.158
 4920WAT     H115002   1.982   8.626   9.080
 4920WAT     H215003   1.973   8.530   9.212
 4921WAT      O15004   6.027   4.316   9.274
 4921WAT     H115005   5.933   4.345   9.252
 4921WAT     H215006   6.072   4.388   9.326
 4922WAT      O15007   0.547   6.532   8.783
 4922WAT     H115008   0.614   6.565   8.850
 4922WAT     H215009   0.466   6.499   8.830
 4923WAT      O15010   9.648   9.353   2.255
 4923WAT     H115011   9.618   9.263   2.288
 4923WAT     H215012   9.605   9.425   2.310
 4924WAT      O15013   8.677   1.614   3.811
 4924WAT     H115014   8.650   1.552   3.884
 4924WAT     H215015   8.603   1.679   3.792
 4925WAT      O15016   5.357   2.045   9.663
 4925WAT     H115017   5.396   2.088   9.744
 4925WAT     H215018   5.392   1.952   9.655
 4926WAT      O15019   8.423   3.666   2.054
 4926WAT     H115020   8.349   3.623   2.002
 4926WAT     H215021   8.400   3.668   2.151
 4927WAT      O15022   2.621   3.337   3.541
 4927WAT     H115023   2.576   3.363   3.456
 4927WAT     H215024   2.720   3.346   3.530
 4928WAT      O15025   3.058   9.739   7.909
 4928WAT     H115026   3.050   9.674   7.985
 4928WAT     H215027   3.000   9.710   7.833
 4929WAT      O15028   4.892   9.052   5.268
 4929WAT     H115029   4.865   8.986   5.338
 4929WAT     H215030   4.862   9.143   5.295
 4930WAT      O15031   9.612   8.122   7.028
 4930WAT     H115032   9.615   8.050   6.959
 4930WAT     H215033   9.621   8.212   6.984
 4931WAT      O15034   9.310   0.756   5.133
 4931WAT     H115035   9.322   0.855   5.130
 4931WAT     H215036   9.399   0.712   5.143
 4932WAT      O15037   7.222   6.058   5.745
 4932WAT     H115038   7.133   6.068   5.700
 4932WAT     H215039   7.227   6.120   5.823
 4933WAT      O15040   1.125   3.522   4.336
 4933WAT     H115041   1.061   3.588   4.298
 4933WAT     H215042   1.174   3.476   4.262
 4934WAT      O15043   6.199   5.075   6.527
 4934WAT     H115044   6.177   5.013   6.451
 4934WAT     H215045   6.289   5.115   6.511
 4935WAT      O15046   6.447   5.375   7.715
 4935WAT     H115047   6.532   5.394   7.666
 4935WAT     H215048   6.463   5.302   7.782
 4936WAT      O15049   2.797   2.051   8.261
 4936WAT     H115050   2.824   1.975   8.321
 4936WAT     H215051   2.869   2.120   8.260
 4937WAT      O15052   8.476   8.312   1.811
 4937WAT     H115053   8.456   8.219   1.841
 4937WAT     H215054   8.393   8.354   1.774
 4938WAT      O15055   9.431   8.653   5.658
 4938WAT     H115056   9.352   8.679   5.714
 4938WAT     H215057   9.399   8.619   5.569
 4939WAT      O15058   9.182   1.559   2.875
 4939WAT     H115059   9.173   1.553   2.776
 4939WAT     H215060   9.094   1.543   2.918
 4940WAT      O15061   9.273   1.941   6.629
 4940WAT     H115062   9.276   1.842   6.642
 4940WAT     H215063   9.186   1.967   6.588
 4941WAT      O15064   0.243   2.727   1.429
 4941WAT     H115065   0.267   2.653   1.366
 4941WAT     H215066   0.291   2.810   1.403
 4942WAT      O15067   5.895   6.772   0.862
 4942WAT     H115068   5.967   6.760   0.930
 4942WAT     H215069   5.914   6.715   0.783
 4943WAT      O15070   1.664   0.511   4.207
 4943WAT     H115071   1.717   0.570   4.268
 4943WAT     H215072   1.600   0.567   4.154
 4944WAT      O15073   6.034   7.709   8.187
 4944WAT     H115074   6.096   7.691   8.262
 4944WAT     H215075   6.045   7.804   8.156
 4945WAT      O15076   3.752   8.387   4.464
 4945WAT     H115077   3.741   8.482   4.494
 4945WAT     H215078   3.820   8.342   4.522
 4946WAT      O15079   3.748   4.272   7.603
 4946WAT     H115080   3.726   4.179   7.631
 4946WAT     H215081   3.711   4.336   7.670
 4947WAT      O15082   9.402   5.622   2.830
 4947WAT     H115083   9.460   5.608   2.910
 4947WAT     H215084   9.366   5.535   2.798
 4948WAT      O15085   0.372   2.464   3.613
 4948WAT     H115086   0.370   2.474   3.712
 4948WAT     H215087   0.466   2.469   3.580
 4949WAT      O15088   1.640   6.335   0.681
 4949WAT     H115089   1.639   6.350   0.779
 4949WAT     H215090   1.575   6.398   0.637
 4950WAT      O15091   0.137   4.370   9.499
 4950WAT     H115092   0.133   4.441   9.429
 4950WAT     H215093   0.074   4.393   9.573
 4951WAT      O15094   9.170   0.100   6.739
 4951WAT     H115095   9.198   0.022   6.794
 4951WAT     H215096   9.144   0.069   6.647
 4952WAT      O15097   6.076   5.693   8.077
 4952WAT     H115098   6.067   5.699   7.978
 4952WAT     H215099   6.144   5.623   8.100
 4953WAT      O15100   3.590   6.650   6.436
 4953WAT     H115101   3.562   6.702   6.517
 4953WAT     H215102   3.664   6.698   6.389
 4954WAT      O15103   6.040   1.737   5.538
 4954WAT     H115104   6.074   1.830   5.553
 4954WAT     H215105   6.015   1.696   5.626
 4955WAT      O15106   2.809   4.057   1.398
 4955WAT     H115107   2.758   4.070   1.313
 4955WAT     H215108   2.893   4.006   1.379
 4956WAT      O15109   8.908   6.509   1.163
 4956WAT     H115110   8.985   6.449   1.185
 4956WAT     H215111   8.881   6.560   1.244
 4957WAT      O15112   2.355   5.279   1.938
 4957WAT     H115113   2.415   5.240   1.868
 4957WAT     H215114   2.266   5.233   1.934
 4958WAT      O15115   9.823   7.879   8.013
 4958WAT     H115116   9.886   7.957   8.010
 4958WAT     H215117   9.831   7.827   7.928
 4959WAT      O15118   7.455   2.699   1.014
 4959WAT     H115119   7.484   2.614   0.970
 4959WAT     H215120   7.471   2.776   0.953
 4960WAT      O15121   3.261   1.680   4.939
 4960WAT     H115122   3.328   1.618   4.981
 4960WAT     H215123   3.210   1.727   5.011
 4961WAT      O15124   2.060   4.148   3.129
 4961WAT     H115125   2.127   4.201   3.180
 4961WAT     H215126   1.971   4.153   3.176
 4962WAT      O15127   9.564   8.733   1.835
 4962WAT     H115128   9.502   8.762   1.762
 4962WAT     H215129   9.593   8.639   1.818
 4963WAT      O15130   1.735   8.385   4.567
 4963WAT     H115131   1.739   8.408   4.664
 4963WAT     H215132   1.826   8.394   4.527
 4964WAT      O15133   6.654   3.068   4.930
 4964WAT     H115134   6.736   3.015   4.955
 4964WAT     H215135   6.575   3.007   4.928
 4965WAT      O15136   4.393   0.405   8.822
 4965WAT     H115137   4.314   0.466   8.831
 4965WAT     H215138   4.453   0.439   8.750
 4966WAT      O15139   4.005   4.528   0.629
 4966WAT     H115140   3.946   4.605   0.652
 4966WAT     H215141   4.080   4.521   0.695
 4967WAT      O15142   5.043   7.033   2.752
 4967WAT     H115143   4.985   7.034   2.670
 4967WAT     H215144   5.037   7.120   2.799
 4968WAT      O15145   5.248   4.715   8.166
 4968WAT     H115146   5.169   4.708   8.227
 4968WAT     H215147   5.316   4.776   8.207
 4969WAT      O15148   7.514   1.508   3.771
 4969WAT     H115149   7.437   1.454   3.804
 4969WAT     H215150   7.481   1.579   3.708
 4970WAT      O15151   2.154   9.822   9.157
 4970WAT     H115152   2.187   9.798   9.066
 4970WAT     H215153   2.230   9.814   9.222
 4971WAT      O15154   6.099   2.847   7.161
 4971WAT     H115155   6.067   2.777   7.098
 4971WAT     H215156   6.192   2.874   7.137
 4972WAT      O15157   4.065   3.580   0.928
 4972WAT     H115158   4.002   3.588   1.005
 4972WAT     H215159   4.103   3.487   0.925
 4973WAT      O15160   6.296   5.945   1.658
 4973WAT     H115161   6.365   5.900   1.602
 4973WAT     H215162   6.252   5.878   1.717
 4974WAT      O15163   7.285   6.949   5.488
 4974WAT     H115164   7.268   6.880   5.417
 4974WAT     H215165   7.367   7.001   5.465
 4975WAT      O15166   0.337   8.611   2.312
 4975WAT     H115167   0.429   8.642   2.289
 4975WAT     H215168   0.272   8.645   2.244
 4976WAT      O15169   6.490   7.395   4.695
 4976WAT     H115170   6.445   7.419   4.780
 4976WAT     H215171   6.586   7.372   4.713
 4977WAT      O15172   6.035   3.313   5.741
 4977WAT     H115173   6.116   3.269   5.703
 4977WAT     H215174   5.957   3.296   5.681
 4978WAT      O15175   3.557   8.484   4.127
 4978WAT     H115176   3.590   8.516   4.038
 4978WAT     H215177   3.464   8.448   4.116
 4979WAT      O15178   5.688   1.780   8.070
 4979WAT     H115179   5.778   1.740   8.052
 4979WAT     H215180   5.618   1.710   8.057
 4980WAT      O15181   8.858   0.121   4.444
 4980WAT     H115182   8.773   0.172   4.454
 4980WAT     H215183   8.847   0.049   4.375
 4981WAT      O15184   3.823   7.414   0.490
 4981WAT     H115185   3.866   7.332   0.452
 4981WAT     H215186   3.760   7.387   0.563
 4982WAT      O15187   1.096   6.312   2.488
 4982WAT     H115188   1.186   6.283   2.517
 4982WAT     H215189   1.028   6.285   2.556
 4983WAT      O15190   4.182   0.951   0.408
 4983WAT     H115191   4.262   0.915   0.457
 4983WAT     H215192   4.104   0.955   0.470
 4984WAT      O15193   0.078   4.091   5.206
 4984WAT     H115194   0.154   4.050   5.156
 4984WAT     H215195   0.053   4.032   5.283
 4985WAT      O15196   6.809   9.038   8.072
 4985WAT     H115197   6.732   9.006   8.016
 4985WAT     H215198   6.887   9.057   8.014
 4986WAT      O15199   5.445   2.823   7.733
 4986WAT     H115200   5.530   2.771   7.747
 4986WAT     H215201   5.414   2.812   7.639
 4987WAT      O15202   3.443   7.773   3.526
 4987WAT     H115203   3.478   7.851   3.578
 4987WAT     H215204   3.343   7.776   3.526
 4988WAT      O15205   4.603   7.179   1.619
 4988WAT     H115206   4.556   7.103   1.576
 4988WAT     H215207   4.609   7.256   1.556
 4989WAT      O15208   8.744   7.112   9.528
 4989WAT     H115209   8.824   7.056   9.550
 4989WAT     H215210   8.714   7.161   9.610
 4990WAT      O15211   9.113   4.757   6.019
 4990WAT     H115212   9.136   4.661   6.038
 4990WAT     H215213   9.170   4.817   6.075
 4991WAT      O15214   2.285   8.226   1.708
 4991WAT     H115215   2.192   8.207   1.679
 4991WAT     H215216   2.293   8.211   1.807
 4992WAT      O15217   9.682   9.134   4.218
 4992WAT     H115218   9.747   9.071   4.175
 4992WAT     H215219   9.702   9.143   4.315
 4993WAT      O15220   3.654   9.513   4.539
 4993WAT     H115221   3.581   9.445   4.546
 4993WAT     H215222   3.657   9.548   4.446
 4994WAT      O15223   4.788   2.383   0.830
 4994WAT     H115224   4.722   2.357   0.760
 4994WAT     H215225   4.744   2.382   0.919
 4995WAT      O15226   0.271   3.503   0.509
 4995WAT     H115227   0.302   3.535   0.419
 4995WAT     H215228   0.176   3.473   0.503
 4996WAT      O15229   8.574   7.872   2.108
 4996WAT     H115230   8.603   7.960   2.144
 4996WAT     H215231   8.615   7.798   2.161
 4997WAT      O15232   2.600   0.335   1.773
 4997WAT     H115233   2.557   0.343   1.863
 4997WAT     H215234   2.698   0.350   1.781
 4998WAT      O15235   1.202   1.359   7.426
 4998WAT     H115236   1.149   1.306   7.493
 4998WAT     H215237   1.299   1.339   7.438
 4999WAT      O15238   7.008   4.968   3.837
 4999WAT     H115239   7.089   4.974   3.896
 4999WAT     H215240   7.037   4.970   3.741
 5000WAT      O15241   3.757   1.309   1.506
 5000WAT     H115242   3.766   1.210   1.500
 5000WAT     H215243   3.845   1.349   1.533
 5001WAT      O15244   7.255   6.621   6.309
 5001WAT     H115245   7.216   6.641   6.219
 5001WAT     H215246   7.200   6.665   6.380
 5002WAT      O15247   1.481   3.681   7.906
 5002WAT     H115248   1.570   3.680   7.951
 5002WAT     H215249   1.479   3.608   7.837
 5003WAT      O15250   9.833   2.259   5.230
 5003WAT     H115251   9.860   2.350   5.261
 5003WAT     H215252   9.909   2.196   5.243
 5004WAT      O15253   1.781   6.570   8.613
 5004WAT     H115254   1.747   6.664   8.606
 5004WAT     H215255   1.704   6.507   8.626
 5005WAT      O15256   1.962   4.916   3.999
 5005WAT     H115257   2.062   4.919   3.989
 5005WAT     H215258   1.920   4.965   3.923
 5006WAT      O15259   0.704   3.376   2.775
 5006WAT     H115260   0.766   3.453   2.785
 5006WAT     H215261   0.748   3.305   2.719
 5007WAT      O15262   4.345   1.530   4.849
 5007WAT     H115263   4.443   1.538   4.831
 5007WAT     H215264   4.316   1.603   4.912
 5008WAT      O15265   6.115   0.433   8.629
 5008WAT     H115266   6.055   0.382   8.568
 5008WAT     H215267   6.208   0.434   8.592
 5009WAT      O15268   7.897   6.136   4.392
 5009WAT     H115269   7.896   6.185   4.305
 5009WAT     H215270   7.852   6.192   4.462
 5010WAT      O15271   7.013   3.669   2.789
 5010WAT     H115272   7.112   3.658   2.801
 5010WAT     H215273   6.986   3.626   2.703
 5011WAT      O15274   0.209   3.185   7.287
 5011WAT     H115275   0.116   3.221   7.298
 5011WAT     H215276   0.204   3.087   7.264
 5012WAT      O15277   0.761   5.733   0.133
 5012WAT     H115278   0.717   5.769   0.051
 5012WAT     H215279   0.857   5.763   0.135
 5013WAT      O15280   7.815   1.181   3.345
 5013WAT     H115281   7.754   1.136   3.279
 5013WAT     H215282   7.847   1.115   3.413
 5014WAT      O15283   9.711   8.766   1.063
 5014WAT     H115284   9.758   8.743   1.149
 5014WAT     H215285   9.652   8.691   1.036
 5015WAT      O15286   7.265   7.338   9.819
 5015WAT     H115287   7.318   7.268   9.868
 5015WAT     H215288   7.290   7.428   9.854
 5016WAT      O15289   0.556   2.927   8.618
 5016WAT     H115290   0.562   2.938   8.519
 5016WAT     H215291   0.463   2.903   8.644
 5017WAT      O15292   1.443   3.310   1.495
 5017WAT     H115293   1.443   3.332   1.593
 5017WAT     H215294   1.438   3.211   1.484
 5018WAT      O15295   1.186   8.998   1.211
 5018WAT     H115296   1.125   8.979   1.134
 5018WAT     H215297   1.225   9.089   1.200
 5019WAT      O15298   6.490   2.757   6.101
 5019WAT     H115299   6.563   2.792   6.160
 5019WAT     H215300   6.426   2.830   6.080
 5020WAT      O15301   4.864   2.743   4.468
 5020WAT     H115302   4.927   2.684   4.418
 5020WAT     H215303   4.775   2.697   4.474
 5021WAT      O15304   2.601   3.994   5.891
 5021WAT     H115305   2.523   4.004   5.828
 5021WAT     H215306   2.590   3.911   5.944
 5022WAT      O15307   5.211   6.670   9.597
 5022WAT     H115308   5.116   6.700   9.592
 5022WAT     H215309   5.232   6.642   9.691
 5023WAT      O15310   6.177   6.173   8.941
 5023WAT     H115311   6.152   6.254   8.888
 5023WAT     H215312   6.181   6.094   8.880
 5024WAT      O15313   1.659   0.952   5.279
 5024WAT     H115314   1.622   0.923   5.368
 5024WAT     H215315   1.589   1.005   5.230
 5025WAT      O15316   9.183   4.685   2.456
 5025WAT     H115317   9.282   4.685   2.465
 5025WAT     H215318   9.142   4.745   2.525
 5026WAT      O15319   0.836   9.461   3.777
 5026WAT     H115320   0.849   9.459   3.876
 5026WAT     H215321   0.835   9.368   3.741
 5027WAT      O15322   6.729   0.855   4.324
 5027WAT     H115323   6.650   0.854   4.263
 5027WAT     H215324   6.810   0.882   4.273
 5028WAT      O15325   6.401   1.485   2.388
 5028WAT     H115326   6.391   1.584   2.393
 5028WAT     H215327   6.313   1.443   2.366
 5029WAT      O15328   8.190   1.517   1.664
 5029WAT     H115329   8.254   1.463   1.719
 5029WAT     H215330   8.220   1.516   1.569
 5030WAT      O15331   9.666   7.112   8.761
 5030WAT     H115332   9.680   7.060   8.677
 5030WAT     H215333   9.640   7.206   8.739
 5031WAT      O15334   8.325   9.548   2.094
 5031WAT     H115335   8.228   9.547   2.067
 5031WAT     H215336   8.332   9.529   2.192
 5032WAT      O15337   4.848   5.054   0.928
 5032WAT     H115338   4.907   5.029   0.852
 5032WAT     H215339   4.901   5.058   1.013
 5033WAT      O15340   3.092   6.028   8.505
 5033WAT     H115341   3.014   6.028   8.568
 5033WAT     H215342   3.077   6.095   8.433
 5034WAT      O15343   2.011   4.961   8.078
 5034WAT     H115344   1.986   4.984   8.172
 5034WAT     H215345   2.034   4.864   8.073
 5035WAT      O15346   8.103   6.833   7.288
 5035WAT     H115347   8.158   6.900   7.338
 5035WAT     H215348   8.007   6.860   7.289
 5036WAT      O15349   2.197   4.976   7.153
 5036WAT     H115350   2.129   5.047   7.171
 5036WAT     H215351   2.170   4.892   7.201
 5037WAT      O15352   3.122   3.156   5.471
 5037WAT     H115353   3.088   3.101   5.547
 5037WAT     H215354   3.212   3.122   5.444
 5038WAT      O15355   5.450   8.332   5.337
 5038WAT     H115356   5.528   8.391   5.359
 5038WAT     H215357   5.370   8.389   5.314
 5039WAT      O15358   9.639   8.128   4.032
 5039WAT     H115359   9.735   8.119   4.059
 5039WAT     H215360   9.581   8.111   4.111
 5040WAT      O15361   7.932   7.434   7.489
 5040WAT     H115362   7.848   7.466   7.445
 5040WAT     H215363   7.909   7.379   7.569
 5041WAT      O15364   6.688   6.813   5.198
 5041WAT     H115365   6.671   6.911   5.206
 5041WAT     H215366   6.642   6.764   5.272
 5042WAT      O15367   6.953   2.582   5.263
 5042WAT     H115368   6.924   2.530   5.343
 5042WAT     H215369   6.995   2.668   5.292
 5043WAT      O15370   5.271   0.119   5.465
 5043WAT     H115371   5.181   0.113   5.421
 5043WAT     H215372   5.343   0.115   5.396
 5044WAT      O15373   3.453   0.145   8.621
 5044WAT     H115374   3.540   0.152   8.670
 5044WAT     H215375   3.377   0.159   8.685
 5045WAT      O15376   5.771   5.512   3.787
 5045WAT     H115377   5.737   5.606   3.790
 5045WAT     H215378   5.699   5.452   3.752
 5046WAT      O15379   8.882   3.736   4.735
 5046WAT     H115380   8.877   3.776   4.644
 5046WAT     H215381   8.847   3.801   4.802
 5047WAT      O15382   4.298   4.153   7.780
 5047WAT     H115383   4.234   4.118   7.848
 5047WAT     H215384   4.391   4.143   7.814
 5048WAT      O15385   2.380   6.035   9.113
 5048WAT     H115386   2.352   5.946   9.151
 5048WAT     H215387   2.314   6.064   9.044
 5049WAT      O15388   7.640   4.496   1.998
 5049WAT     H115389   7.679   4.588   1.996
 5049WAT     H215390   7.677   4.442   1.922
 5050WAT      O15391   0.139   8.874   2.737
 5050WAT     H115392   0.203   8.823   2.680
 5050WAT     H215393   0.068   8.812   2.771
 5051WAT      O15394   4.843   7.078   1.918
 5051WAT     H115395   4.935   7.071   1.955
 5051WAT     H215396   4.838   7.156   1.855
 5052WAT      O15397   1.156   3.223   9.493
 5052WAT     H115398   1.244   3.191   9.459
 5052WAT     H215399   1.116   3.288   9.428
 5053WAT      O15400   1.078   5.592   9.795
 5053WAT     H115401   1.023   5.673   9.774
 5053WAT     H215402   1.063   5.565   9.890
 5054WAT      O15403   7.900   1.214   5.797
 5054WAT     H115404   7.812   1.223   5.752
 5054WAT     H215405   7.958   1.292   5.773
 5055WAT      O15406   9.617   5.877   5.150
 5055WAT     H115407   9.676   5.796   5.153
 5055WAT     H215408   9.525   5.850   5.124
 5056WAT      O15409   8.361   0.507   8.859
 5056WAT     H115410   8.387   0.491   8.955
 5056WAT     H215411   8.434   0.473   8.799
 5057WAT      O15412   2.620   5.436   5.957
 5057WAT     H115413   2.543   5.469   6.013
 5057WAT     H215414   2.634   5.339   5.974
 5058WAT      O15415   0.273   5.482   6.608
 5058WAT     H115416   0.230   5.558   6.657
 5058WAT     H215417   0.315   5.420   6.675
 5059WAT      O15418   1.851   6.389   7.153
 5059WAT     H115419   1.903   6.460   7.106
 5059WAT     H215420   1.895   6.367   7.240
 5060WAT      O15421   9.602   1.714   8.568
 5060WAT     H115422   9.669   1.645   8.541
 5060WAT     H215423   9.570   1.763   8.487
 5061WAT      O15424   3.571   6.553   7.953
 5061WAT     H115425   3.592   6.510   8.041
 5061WAT     H215426   3.590   6.651   7.959
 5062WAT      O15427   3.437   2.001   3.181
 5062WAT     H115428   3.490   1.944   3.244
 5062WAT     H215429   3.440   2.096   3.211
 5063WAT      O15430   2.837   9.150   8.923
 5063WAT     H115431   2.786   9.081   8.872
 5063WAT     H215432   2.859   9.227   8.863
 5064WAT      O15433   1.277   7.589   7.521
 5064WAT     H115434   1.198   7.529   7.537
 5064WAT     H215435   1.252   7.658   7.453
 5065WAT      O15436   2.507   4.291   6.110
 5065WAT     H115437   2.581   4.228   6.131
 5065WAT     H215438   2.535   4.385   6.132
 5066WAT      O15439   0.468   6.573   0.451
 5066WAT     H115440   0.421   6.485   0.458
 5066WAT     H215441   0.451   6.612   0.360
 5067WAT      O15442   9.738   1.342   2.204
 5067WAT     H115443   9.734   1.442   2.202
 5067WAT     H215444   9.709   1.306   2.116
 5068WAT      O15445   2.999   6.403   4.433
 5068WAT     H115446   3.079   6.345   4.449
 5068WAT     H215447   3.006   6.485   4.490
 5069WAT      O15448   4.573   7.005   7.520
 5069WAT     H115449   4.505   6.997   7.447
 5069WAT     H215450   4.552   6.940   7.593
 5070WAT      O15451   8.969   0.305   4.613
 5070WAT     H115452   8.923   0.385   4.651
 5070WAT     H215453   8.903   0.249   4.564
 5071WAT      O15454   8.479   6.323   2.730
 5071WAT     H115455   8.488   6.378   2.813
 5071WAT     H215456   8.460   6.228   2.755
 5072WAT      O15457   0.263   3.888   8.418
 5072WAT     H115458   0.331   3.815   8.426
 5072WAT     H215459   0.173   3.847   8.406
 5073WAT      O15460   6.510   2.155   0.903
 5073WAT     H115461   6.608   2.136   0.906
 5073WAT     H215462   6.495   2.251   0.880
 5074WAT      O15463   7.798   0.575   1.626
 5074WAT     H115464   7.802   0.478   1.649
 5074WAT     H215465   7.890   0.612   1.621
 5075WAT      O15466   1.747   1.193   2.669
 5075WAT     H115467   1.664   1.153   2.708
 5075WAT     H215468   1.793   1.248   2.738
 5076WAT      O15469   4.321   7.453   9.457
 5076WAT     H115470   4.279   7.390   9.521
 5076WAT     H215471   4.421   7.451   9.468
 5077WAT      O15472   4.174   0.672   7.997
 5077WAT     H115473   4.258   0.664   8.050
 5077WAT     H215474   4.120   0.748   8.032
 5078WAT      O15475   4.410   3.955   1.210
 5078WAT     H115476   4.338   4.000   1.262
 5078WAT     H215477   4.381   3.943   1.115
 5079WAT      O15478   0.857   9.064   5.153
 5079WAT     H115479   0.913   9.098   5.078
 5079WAT     H215480   0.803   9.139   5.191
 5080WAT      O15481   3.740   0.100   3.119
 5080WAT     H115482   3.747   0.128   3.023
 5080WAT     H215483   3.771   0.174   3.178
 5081WAT      O15484   8.803   4.525   5.279
 5081WAT     H115485   8.839   4.599   5.223
 5081WAT     H215486   8.787   4.559   5.372
 5082WAT      O15487   2.894   3.774   0.673
 5082WAT     H115488   2.880   3.864   0.632
 5082WAT     H215489   2.845   3.769   0.761
 5083WAT      O15490   7.587   0.204   7.921
 5083WAT     H115491   7.521   0.226   7.850
 5083WAT     H215492   7.680   0.219   7.886
 5084WAT      O15493   6.307   6.132   2.859
 5084WAT     H115494   6.317   6.120   2.958
 5084WAT     H215495   6.235   6.072   2.825
 5085WAT      O15496   9.490   0.917   7.247
 5085WAT     H115497   9.410   0.886   7.299
 5085WAT     H215498   9.466   0.922   7.150
 5086WAT      O15499   8.934   1.387   1.171
 5086WAT     H115500   8.870   1.316   1.201
 5086WAT     H215501   8.912   1.473   1.216
 5087WAT      O15502   4.671   7.809   4.554
 5087WAT     H115503   4.671   7.814   4.654
 5087WAT     H215504   4.744   7.747   4.524
 5088WAT      O15505   3.804   0.636   2.288
 5088WAT     H115506   3.757   0.583   2.218
 5088WAT     H215507   3.799   0.734   2.265
 5089WAT      O15508   3.925   5.793   1.603
 5089WAT     H115509   3.961   5.885   1.583
 5089WAT     H215510   3.830   5.801   1.632
 5090WAT      O15511   4.542   0.327   0.048
 5090WAT     H115512   4.569   0.422   0.034
 5090WAT     H215513   4.481   0.322   0.128
 5091WAT      O15514   4.860   8.102   7.259
 5091WAT     H115515   4.924   8.065   7.326
 5091WAT     H215516   4.906   8.168   7.201
 5092WAT      O15517   6.107   8.977   2.625
 5092WAT     H115518   6.130   8.970   2.721
 5092WAT     H215519   6.066   8.891   2.594
 5093WAT      O15520   8.418   5.906   2.438
 5093WAT     H115521   8.410   6.006   2.435
 5093WAT     H215522   8.344   5.868   2.492
 5094WAT      O15523   1.774   0.085   0.202
 5094WAT     H115524   1.861   0.058   0.244
 5094WAT     H215525   1.725   0.003   0.173
 5095WAT      O15526   0.481   3.026   3.007
 5095WAT     H115527   0.510   2.935   2.979
 5095WAT     H215528   0.557   3.073   3.052
 5096WAT      O15529   4.327   6.668   1.774
 5096WAT     H115530   4.296   6.577   1.802
 5096WAT     H215531   4.421   6.682   1.806
 5097WAT      O15532   9.401   2.798   3.536
 5097WAT     H115533   9.344   2.717   3.525
 5097WAT     H215534   9.344   2.880   3.525
 5098WAT      O15535   6.270   0.430   6.280
 5098WAT     H115536   6.201   0.448   6.210
 5098WAT     H215537   6.240   0.353   6.337
 5099WAT      O15538   0.207   0.261   9.006
 5099WAT     H115539   0.298   0.261   9.048
 5099WAT     H215540   0.217   0.258   8.906
 5100WAT      O15541   6.606   8.470   2.064
 5100WAT     H115542   6.692   8.419   2.056
 5100WAT     H215543   6.625   8.560   2.103
 5101WAT      O15544   9.680   1.104   7.741
 5101WAT     H115545   9.594   1.138   7.778
 5101WAT     H215546   9.682   1.004   7.747
 5102WAT      O15547   4.769   2.120   8.795
 5102WAT     H115548   4.753   2.218   8.808
 5102WAT     H215549   4.762   2.097   8.698
 5103WAT      O15550   8.791   7.501   1.459
 5103WAT     H115551   8.739   7.587   1.457
 5103WAT     H215552   8.728   7.424   1.466
 5104WAT      O15553   4.994   8.102   0.782
 5104WAT     H115554   5.075   8.127   0.835
 5104WAT     H215555   5.015   8.111   0.685
 5105WAT      O15556   4.923   0.250   9.236
 5105WAT     H115557   4.945   0.153   9.223
 5105WAT     H215558   4.837   0.271   9.190
 5106WAT      O15559   7.808   1.982   6.305
 5106WAT     H115560   7.773   2.054   6.365
 5106WAT     H215561   7.731   1.940   6.256
 5107WAT      O15562   4.491   8.715   8.431
 5107WAT     H115563   4.503   8.762   8.344
 5107WAT     H215564   4.480   8.783   8.504
 5108WAT      O15565   8.240   7.890   5.029
 5108WAT     H115566   8.255   7.803   5.076
 5108WAT     H215567   8.309   7.902   4.958
 5109WAT      O15568   4.589   5.099   6.428
 5109WAT     H115569   4.642   5.157   6.365
 5109WAT     H215570   4.535   5.034   6.375
 5110WAT      O15571   7.956   1.567   4.268
 5110WAT     H115572   7.962   1.583   4.169
 5110WAT     H215573   7.897   1.636   4.309
 5111WAT      O15574   3.425   6.231   0.399
 5111WAT     H115575   3.484   6.301   0.359
 5111WAT     H215576   3.338   6.272   0.427
 5112WAT      O15577   6.315   7.150   6.092
 5112WAT     H115578   6.349   7.170   6.000
 5112WAT     H215579   6.237   7.088   6.087
 5113WAT      O15580   6.514   3.779   4.940
 5113WAT     H115581   6.542   3.816   4.852
 5113WAT     H215582   6.431   3.825   4.971
 5114WAT      O15583   1.618   8.947   8.912
 5114WAT     H115584   1.532   8.903   8.886
 5114WAT     H215585   1.605   8.996   8.998
 5115WAT      O15586   6.749   7.798   6.199
 5115WAT     H115587   6.786   7.863   6.132
 5115WAT     H215588   6.815   7.725   6.216
 5116WAT      O15589   7.590   7.779   7.640
 5116WAT     H115590   7.576   7.794   7.542
 5116WAT     H215591   7.672   7.828   7.670
 5117WAT      O15592   7.636   0.278   7.297
 5117WAT     H115593   7.652   0.184   7.269
 5117WAT     H215594   7.617   0.281   7.395
 5118WAT      O15595   0.876   0.767   1.779
 5118WAT     H115596   0.911   0.725   1.696
 5118WAT     H215597   0.844   0.696   1.842
 5119WAT      O15598   4.167   1.856   9.530
 5119WAT     H115599   4.090   1.821   9.478
 5119WAT     H215600   4.185   1.950   9.505
 5120WAT      O15601   7.403   1.563   6.319
 5120WAT     H115602   7.395   1.645   6.262
 5120WAT     H215603   7.485   1.569   6.376
 5121WAT      O15604   0.677   6.392   3.911
 5121WAT     H115605   0.763   6.387   3.861
 5121WAT     H215606   0.615   6.320   3.879
 5122WAT      O15607   5.991   2.939   8.033
 5122WAT     H115608   5.913   2.883   8.061
 5122WAT     H215609   5.988   3.027   8.082
 5123WAT      O15610   8.188   3.227   5.911
 5123WAT     H115611   8.267   3.171   5.939
 5123WAT     H215612   8.220   3.315   5.876
 5124WAT      O15613   8.222   6.106   5.202
 5124WAT     H115614   8.301   6.162   5.179
 5124WAT     H215615   8.178   6.073   5.119
 5125WAT      O15616   4.698   4.276   6.500
 5125WAT     H115617   4.742   4.242   6.418
 5125WAT     H215618   4.753   4.349   6.540
 5126WAT      O15619   7.914   4.129   7.291
 5126WAT     H115620   7.895   4.203   7.227
 5126WAT     H215621   7.891   4.042   7.248
 5127WAT      O15622   3.262   6.502   0.157
 5127WAT     H115623   3.274   6.482   0.255
 5127WAT     H215624   3.352   6.503   0.113
 5128WAT      O15625   9.485   0.514   8.395
 5128WAT     H115626   9.475   0.593   8.455
 5128WAT     H215627   9.580   0.483   8.397
 5129WAT      O15628   8.273   4.402   2.574
 5129WAT     H115629   8.293   4.495   2.603
 5129WAT     H215630   8.349   4.367   2.520
 5130WAT      O15631   8.555   8.184   3.212
 5130WAT     H115632   8.641   8.188   3.161
 5130WAT     H215633   8.478   8.191   3.149
 5131WAT      O15634   0.830   0.092   0.471
 5131WAT     H115635   0.900   0.161   0.453
 5131WAT     H215636   0.792   0.061   0.384
 5132WAT      O15637   9.092   7.264   8.513
 5132WAT     H115638   9.111   7.315   8.429
 5132WAT     H215639   9.141   7.177   8.511
 5133WAT      O15640   3.567   0.334   3.423
 5133WAT     H115641   3.582   0.250   3.474
 5133WAT     H215642   3.477   0.333   3.381
 5134WAT      O15643   9.503   9.144   5.721
 5134WAT     H115644   9.412   9.180   5.741
 5134WAT     H215645   9.557   9.140   5.806
 5135WAT      O15646   7.934   2.853   6.649
 5135WAT     H115647   7.859   2.898   6.698
 5135WAT     H215648   8.011   2.916   6.641
 5136WAT      O15649   9.057   9.300   2.092
 5136WAT     H115650   9.125   9.271   2.159
 5136WAT     H215651   9.091   9.380   2.042
 5137WAT      O15652   4.525   7.672   6.749
 5137WAT     H115653   4.464   7.684   6.827
 5137WAT     H215654   4.615   7.710   6.771
 5138WAT      O15655   7.798   9.585   5.766
 5138WAT     H115656   7.794   9.542   5.856
 5138WAT     H215657   7.859   9.664   5.769
 5139WAT      O15658   5.786   4.882   7.141
 5139WAT     H115659   5.755   4.920   7.053
 5139WAT     H215660   5.768   4.949   7.213
 5140WAT      O15661   8.019   8.687   5.559
 5140WAT     H115662   8.025   8.588   5.572
 5140WAT     H215663   7.993   8.706   5.464
 5141WAT      O15664   9.760   7.293   7.364
 5141WAT     H115665   9.683   7.315   7.424
 5141WAT     H215666   9.748   7.201   7.327
 5142WAT      O15667   8.482   3.608   0.130
 5142WAT     H115668   8.571   3.646   0.104
 5142WAT     H215669   8.414   3.681   0.133
 5143WAT      O15670   4.543   2.869   7.586
 5143WAT     H115671   4.534   2.905   7.679
 5143WAT     H215672   4.455   2.876   7.539
 5144WAT      O15673   8.328   4.664   4.913
 5144WAT     H115674   8.419   4.654   4.952
 5144WAT     H215675   8.273   4.584   4.936
 5145WAT      O15676   5.464   3.647   5.013
 5145WAT     H115677   5.458   3.551   4.986
 5145WAT     H215678   5.403   3.664   5.091
 5146WAT      O15679   8.527   7.097   9.336
 5146WAT     H115680   8.438   7.104   9.381
 5146WAT     H215681   8.599   7.090   9.405
 5147WAT      O15682   9.613   0.807   6.001
 5147WAT     H115683   9.694   0.813   5.943
 5147WAT     H215684   9.543   0.752   5.955
 5148WAT      O15685   4.834   6.737   0.824
 5148WAT     H115686   4.778   6.659   0.853
 5148WAT     H215687   4.889   6.768   0.902
 5149WAT      O15688   3.874   7.910   1.998
 5149WAT     H115689   3.826   7.994   1.971
 5149WAT     H215690   3.845   7.882   2.089
 5150WAT      O15691   2.596   2.712   5.749
 5150WAT     H115692   2.670   2.773   5.723
 5150WAT     H215693   2.610   2.622   5.708
 5151WAT      O15694   3.632   5.868   9.767
 5151WAT     H115695   3.679   5.785   9.739
 5151WAT     H215696   3.640   5.937   9.695
 5152WAT      O15697   8.546   9.074   7.175
 5152WAT     H115698   8.550   8.975   7.165
 5152WAT     H215699   8.638   9.110   7.192
 5153WAT      O15700   6.662   7.390   8.440
 5153WAT     H115701   6.623   7.391   8.532
 5153WAT     H215702   6.740   7.327   8.437
 5154WAT      O15703   9.809   5.481   0.548
 5154WAT     H115704   9.886   5.513   0.493
 5154WAT     H215705   9.839   5.466   0.642
 5155WAT      O15706   3.286   9.296   2.595
 5155WAT     H115707   3.191   9.265   2.595
 5155WAT     H215708   3.338   9.244   2.528
 5156WAT      O15709   6.524   6.123   1.672
 5156WAT     H115710   6.442   6.078   1.706
 5156WAT     H215711   6.602   6.060   1.677
 5157WAT      O15712   8.236   0.623   9.776
 5157WAT     H115713   8.187   0.693   9.724
 5157WAT     H215714   8.330   0.617   9.744
 5158WAT      O15715   0.581   7.403   6.856
 5158WAT     H115716   0.578   7.413   6.756
 5158WAT     H215717   0.488   7.408   6.892
 5159WAT      O15718   8.190   8.739   3.508
 5159WAT     H115719   8.265   8.674   3.520
 5159WAT     H215720   8.199   8.814   3.573
 5160WAT      O15721   4.458   5.771   0.508
 5160WAT     H115722   4.400   5.690   0.512
 5160WAT     H215723   4.507   5.774   0.421
 5161WAT      O15724   0.273   1.418   8.429
 5161WAT     H115725   0.217   1.497   8.453
 5161WAT     H215726   0.260   1.395   8.332
 5162WAT      O15727   2.598   7.149   8.178
 5162WAT     H115728   2.550   7.061   8.182
 5162WAT     H215729   2.614   7.174   8.082
 5163WAT      O15730   4.925   5.993   6.163
 5163WAT     H115731   4.889   6.064   6.104
 5163WAT     H215732   4.985   5.932   6.110
 5164WAT      O15733   6.208   0.711   3.883
 5164WAT     H115734   6.223   0.656   3.965
 5164WAT     H215735   6.114   0.698   3.850
 5165WAT      O15736   1.386   8.722   5.525
 5165WAT     H115737   1.478   8.687   5.543
 5165WAT     H215738   1.319   8.651   5.544
 5166WAT      O15739   8.915   3.167   4.336
 5166WAT     H115740   8.822   3.192   4.310
 5166WAT     H215741   8.955   3.109   4.265
 5167WAT      O15742   2.547   3.124   6.796
 5167WAT     H115743   2.470   3.178   6.830
 5167WAT     H215744   2.560   3.143   6.699
 5168WAT      O15745   7.939   8.083   9.181
 5168WAT     H115746   7.991   8.127   9.254
 5168WAT     H215747   7.849   8.059   9.215
 5169WAT      O15748   0.138   7.935   9.592
 5169WAT     H115749   0.116   7.906   9.499
 5169WAT     H215750   0.107   7.866   9.657
 5170WAT      O15751   8.507   9.642   0.377
 5170WAT     H115752   8.565   9.678   0.304
 5170WAT     H215753   8.411   9.654   0.352
 5171WAT      O15754   4.573   0.391   7.972
 5171WAT     H115755   4.609   0.437   7.891
 5171WAT     H215756   4.647   0.343   8.019
 5172WAT      O15757   6.999   1.423   8.019
 5172WAT     H115758   7.092   1.459   8.016
 5172WAT     H215759   6.960   1.423   7.927
 5173WAT      O15760   5.674   1.711   7.658
 5173WAT     H115761   5.715   1.701   7.749
 5173WAT     H215762   5.705   1.797   7.618
 5174WAT      O15763   2.379   7.267   1.098
 5174WAT     H115764   2.400   7.294   1.004
 5174WAT     H215765   2.291   7.305   1.124
 5175WAT      O15766   7.848   8.667   6.577
 5175WAT     H115767   7.749   8.654   6.572
 5175WAT     H215768   7.881   8.701   6.489
 5176WAT      O15769   7.874   7.386   3.440
 5176WAT     H115770   7.902   7.353   3.350
 5176WAT     H215771   7.892   7.484   3.447
 5177WAT      O15772   1.440   8.834   6.850
 5177WAT     H115773   1.351   8.857   6.890
 5177WAT     H215774   1.469   8.908   6.789
 5178WAT      O15775   5.403   4.250   1.881
 5178WAT     H115776   5.351   4.199   1.812
 5178WAT     H215777   5.500   4.227   1.872
 5179WAT      O15778   7.316   4.363   7.145
 5179WAT     H115779   7.298   4.292   7.213
 5179WAT     H215780   7.405   4.406   7.163
 5180WAT      O15781   1.088   4.068   7.102
 5180WAT     H115782   1.029   4.124   7.044
 5180WAT     H215783   1.142   4.006   7.045
 5181WAT      O15784   5.979   5.688   2.851
 5181WAT     H115785   6.022   5.772   2.817
 5181WAT     H215786   6.046   5.614   2.852
 5182WAT      O15787   1.124   9.687   1.765
 5182WAT     H115788   1.037   9.724   1.731
 5182WAT     H215789   1.106   9.624   1.841
 5183WAT      O15790   3.580   2.408   8.696
 5183WAT     H115791   3.562   2.311   8.679
 5183WAT     H215792   3.544   2.463   8.621
 5184WAT      O15793   1.031   2.908   2.733
 5184WAT     H115794   1.052   2.991   2.682
 5184WAT     H215795   0.964   2.854   2.682
 5185WAT      O15796   7.813   5.536   6.231
 5185WAT     H115797   7.754   5.614   6.210
 5185WAT     H215798   7.898   5.568   6.272
 5186WAT      O15799   8.833   7.643   0.189
 5186WAT     H115800   8.743   7.669   0.155
 5186WAT     H215801   8.875   7.721   0.234
 5187WAT      O15802   9.069   3.380   7.458
 5187WAT     H115803   9.005   3.454   7.435
 5187WAT     H215804   9.151   3.419   7.499
 5188WAT      O15805   0.462   3.269   3.724
 5188WAT     H115806   0.430   3.348   3.777
 5188WAT     H215807   0.390   3.200   3.720
 5189WAT      O15808   0.489   5.564   5.492
 5189WAT     H115809   0.539   5.479   5.475
 5189WAT     H215810   0.453   5.599   5.405
 5190WAT      O15811   2.577   6.937   5.107
 5190WAT     H115812   2.544   6.987   5.187
 5190WAT     H215813   2.505   6.937   5.036
 5191WAT      O15814   0.837   6.394   3.097
 5191WAT     H115815   0.845   6.356   3.190
 5191WAT     H215816   0.862   6.323   3.031
 5192WAT      O15817   4.825   4.821   2.203
 5192WAT     H115818   4.899   4.885   2.183
 5192WAT     H215819   4.758   4.823   2.130
 5193WAT      O15820   7.961   6.435   5.305
 5193WAT     H115821   7.990   6.339   5.312
 5193WAT     H215822   7.931   6.454   5.212
 5194WAT      O15823   1.499   0.436   8.876
 5194WAT     H115824   1.440   0.357   8.894
 5194WAT     H215825   1.454   0.497   8.811
 5195WAT      O15826   2.475   2.862   2.030
 5195WAT     H115827   2.451   2.859   1.933
 5195WAT     H215828   2.570   2.889   2.040
 5196WAT      O15829   9.577   4.044   5.520
 5196WAT     H115830   9.527   4.109   5.463
 5196WAT     H215831   9.585   4.079   5.613
 5197WAT      O15832   9.700   5.532   7.619
 5197WAT     H115833   9.797   5.556   7.625
 5197WAT     H215834   9.646   5.597   7.674
 5198WAT      O15835   0.343   1.145   3.714
 5198WAT     H115836   0.440   1.159   3.693
 5198WAT     H215837   0.290   1.151   3.630
 5199WAT      O15838   6.852   3.185   4.188
 5199WAT     H115839   6.789   3.261   4.174
 5199WAT     H215840   6.937   3.219   4.229
 5200WAT      O15841   8.113   8.240   4.228
 5200WAT     H115842   8.068   8.327   4.212
 5200WAT     H215843   8.046   8.173   4.261
 5201WAT      O15844   1.774   3.463   3.400
 5201WAT     H115845   1.860   3.413   3.413
 5201WAT     H215846   1.793   3.549   3.352
 5202WAT      O15847   3.637   9.330   0.607
 5202WAT     H115848   3.538   9.338   0.595
 5202WAT     H215849   3.668   9.401   0.671
 5203WAT      O15850   9.801   6.633   0.617
 5203WAT     H115851   9.707   6.611   0.641
 5203WAT     H215852   9.834   6.707   0.675
 5204WAT      O15853   8.734   0.801   4.899
 5204WAT     H115854   8.680   0.852   4.833
 5204WAT     H215855   8.682   0.789   4.984
 5205WAT      O15856   6.126   1.189   9.262
 5205WAT     H115857   6.158   1.141   9.343
 5205WAT     H215858   6.189   1.264   9.240
 5206WAT      O15859   1.777   8.013   0.806
 5206WAT     H115860   1.871   8.013   0.838
 5206WAT     H215861   1.740   7.920   0.808
 5207WAT      O15862   0.227   2.985   4.386
 5207WAT     H115863   0.248   3.060   4.323
 5207WAT     H215864   0.250   3.012   4.479
 5208WAT      O15865   9.430   1.091   1.242
 5208WAT     H115866   9.373   1.136   1.310
 5208WAT     H215867   9.461   1.158   1.174
 5209WAT      O15868   2.675   3.826   9.552
 5209WAT     H115869   2.700   3.789   9.462
 5209WAT     H215870   2.698   3.760   9.623
 5210WAT      O15871   3.710   3.427   3.621
 5210WAT     H115872   3.776   3.360   3.657
 5210WAT     H215873   3.646   3.452   3.693
 5211WAT      O15874   1.591   9.034   4.177
 5211WAT     H115875   1.588   8.982   4.262
 5211WAT     H215876   1.670   9.095   4.178
 5212WAT      O15877   7.404   6.261   0.277
 5212WAT     H115878   7.458   6.345   0.264
 5212WAT     H215879   7.334   6.255   0.206
 5213WAT      O15880   5.149   6.343   1.762
 5213WAT     H115881   5.058   6.379   1.744
 5213WAT     H215882   5.143   6.248   1.790
 5214WAT      O15883   4.602   4.510   4.640
 5214WAT     H115884   4.601   4.588   4.577
 5214WAT     H215885   4.562   4.538   4.727
 5215WAT      O15886   8.921   9.564   1.600
 5215WAT     H115887   8.843   9.624   1.617
 5215WAT     H215888   8.937   9.557   1.502
 5216WAT      O15889   2.674   1.757   4.895
 5216WAT     H115890   2.711   1.778   4.804
 5216WAT     H215891   2.707   1.824   4.961
 5217WAT      O15892   6.407   6.479   8.969
 5217WAT     H115893   6.340   6.549   8.946
 5217WAT     H215894   6.433   6.487   9.065
 5218WAT      O15895   9.673   4.716   3.845
 5218WAT     H115896   9.606   4.791   3.850
 5218WAT     H215897   9.710   4.711   3.752
 5219WAT      O15898   4.610   0.785   1.230
 5219WAT     H115899   4.559   0.701   1.249
 5219WAT     H215900   4.583   0.820   1.140
 5220WAT      O15901   0.710   5.154   8.395
 5220WAT     H115902   0.704   5.057   8.418
 5220WAT     H215903   0.618   5.192   8.387
 5221WAT      O15904   5.420   1.422   4.540
 5221WAT     H115905   5.493   1.489   4.528
 5221WAT     H215906   5.430   1.350   4.472
 5222WAT      O15907   3.085   6.835   2.493
 5222WAT     H115908   3.109   6.887   2.575
 5222WAT     H215909   3.156   6.768   2.474
 5223WAT      O15910   0.268   4.039   3.859
 5223WAT     H115911   0.171   4.057   3.878
 5223WAT     H215912   0.284   4.048   3.761
 5224WAT      O15913   0.026   8.183   3.687
 5224WAT     H115914  -0.059   8.144   3.722
 5224WAT     H215915   0.103   8.130   3.721
 5225WAT      O15916   5.230   0.423   7.691
 5225WAT     H115917   5.241   0.330   7.656
 5225WAT     H215918   5.262   0.489   7.623
 5226WAT      O15919   8.869   0.186   5.813
 5226WAT     H115920   8.779   0.165   5.775
 5226WAT     H215921   8.873   0.282   5.839
 5227WAT      O15922   0.708   0.327   8.147
 5227WAT     H115923   0.761   0.243   8.164
 5227WAT     H215924   0.659   0.317   8.060
 5228WAT      O15925   3.125   2.111   2.633
 5228WAT     H115926   3.047   2.073   2.585
 5228WAT     H215927   3.189   2.152   2.567
 5229WAT      O15928   6.138   6.328   0.644
 5229WAT     H115929   6.194   6.397   0.690
 5229WAT     H215930   6.172   6.237   0.667
 5230WAT      O15931   4.950   0.215   1.428
 5230WAT     H115932   5.045   0.192   1.406
 5230WAT     H215933   4.898   0.131   1.442
 5231WAT      O15934   3.734   4.734   1.751
 5231WAT     H115935   3.826   4.767   1.774
 5231WAT     H215936   3.721   4.643   1.789
 5232WAT      O15937   9.156   7.129   6.249
 5232WAT     H115938   9.198   7.039   6.265
 5232WAT     H215939   9.201   7.198   6.306
 5233WAT      O15940   2.137   3.462   9.633
 5233WAT     H115941   2.051   3.442   9.680
 5233WAT     H215942   2.210   3.472   9.701
 5234WAT      O15943   9.275   2.273   8.346
 5234WAT     H115944   9.241   2.183   8.376
 5234WAT     H215945   9.269   2.338   8.421
 5235WAT      O15946   3.710   3.687   7.412
 5235WAT     H115947   3.664   3.701   7.324
 5235WAT     H215948   3.714   3.589   7.433
 5236WAT      O15949   3.844   9.307   0.403
 5236WAT     H115950   3.834   9.378   0.333
 5236WAT     H215951   3.761   9.303   0.458
 5237WAT      O15952   4.398   0.831   5.568
 5237WAT     H115953   4.347   0.896   5.625
 5237WAT     H215954   4.472   0.791   5.622
 5238WAT      O15955   4.943   3.042   9.203
 5238WAT     H115956   4.971   3.080   9.115
 5238WAT     H215957   5.023   3.009   9.252
 5239WAT      O15958   0.990   7.615   3.082
 5239WAT     H115959   1.065   7.634   3.018
 5239WAT     H215960   1.026   7.570   3.163
 5240WAT      O15961   9.616   3.260   8.467
 5240WAT     H115962   9.681   3.275   8.393
 5240WAT     H215963   9.526   3.240   8.429
 5241WAT      O15964   2.905   5.132   7.040
 5241WAT     H115965   2.825   5.149   6.982
 5241WAT     H215966   2.987   5.130   6.983
 5242WAT      O15967   0.174   2.931   5.094
 5242WAT     H115968   0.247   2.930   5.163
 5242WAT     H215969   0.114   3.009   5.109
 5243WAT      O15970   1.888   4.793   5.764
 5243WAT     H115971   1.908   4.708   5.814
 5243WAT     H215972   1.941   4.794   5.679
 5244WAT      O15973   4.780   0.631   7.061
 5244WAT     H115974   4.741   0.703   7.005
 5244WAT     H215975   4.866   0.599   7.021
 5245WAT      O15976   5.965   7.457   7.630
 5245WAT     H115977   5.969   7.425   7.725
 5245WAT     H215978   6.028   7.404   7.574
 5246WAT      O15979   0.836   3.334   0.429
 5246WAT     H115980   0.809   3.324   0.334
 5246WAT     H215981   0.910   3.401   0.435
 5247WAT      O15982   8.468   7.288   9.152
 5247WAT     H115983   8.484   7.216   9.220
 5247WAT     H215984   8.463   7.376   9.199
 5248WAT      O15985   0.842   9.220   3.675
 5248WAT     H115986   0.915   9.152   3.666
 5248WAT     H215987   0.772   9.203   3.606
 5249WAT      O15988   5.119   8.900   4.356
 5249WAT     H115989   5.030   8.904   4.401
 5249WAT     H215990   5.137   8.806   4.326
 5250WAT      O15991   2.793   7.273   7.548
 5250WAT     H115992   2.810   7.357   7.496
 5250WAT     H215993   2.716   7.224   7.508
 5251WAT      O15994   9.187   1.297   5.758
 5251WAT     H115995   9.181   1.354   5.676
 5251WAT     H215996   9.250   1.339   5.823
 5252WAT      O15997   6.586   3.421   9.783
 5252WAT     H115998   6.504   3.376   9.749
 5252WAT     H215999   6.560   3.495   9.845
 5253WAT      O16000   3.698   6.586   4.410
 5253WAT     H116001   3.694   6.633   4.322
 5253WAT     H216002   3.790   6.549   4.424
 5254WAT      O16003   5.200   8.848   0.817
 5254WAT     H116004   5.229   8.801   0.734
 5254WAT     H216005   5.242   8.939   0.819
 5255WAT      O16006   3.927   9.237   9.674
 5255WAT     H116007   3.933   9.262   9.771
 5255WAT     H216008   3.869   9.156   9.664
 5256WAT      O16009   6.353   4.690   8.346
 5256WAT     H116010   6.277   4.648   8.296
 5256WAT     H216011   6.389   4.625   8.413
 5257WAT      O16012   6.883   8.660   7.781
 5257WAT     H116013   6.941   8.718   7.723
 5257WAT     H216014   6.930   8.642   7.867
 5258WAT      O16015   5.705   9.309   2.985
 5258WAT     H116016   5.757   9.377   3.037
 5258WAT     H216017   5.674   9.236   3.046
 5259WAT      O16018   5.447   3.676   3.448
 5259WAT     H116019   5.453   3.701   3.351
 5259WAT     H216020   5.486   3.584   3.461
 5260WAT      O16021   2.069   1.663   1.471
 5260WAT     H116022   1.972   1.669   1.495
 5260WAT     H216023   2.081   1.592   1.402
 5261WAT      O16024   1.947   7.075   5.770
 5261WAT     H116025   1.923   7.143   5.839
 5261WAT     H216026   2.002   7.003   5.812
 5262WAT      O16027   2.846   6.642   2.579
 5262WAT     H116028   2.914   6.592   2.634
 5262WAT     H216029   2.890   6.720   2.535
 5263WAT      O16030   8.604   7.652   1.910
 5263WAT     H116031   8.555   7.601   1.981
 5263WAT     H216032   8.622   7.745   1.941
 5264WAT      O16033   0.246   8.023   3.723
 5264WAT     H116034   0.264   7.984   3.814
 5264WAT     H216035   0.325   8.077   3.694
 5265WAT      O16036   9.432   1.403   7.670
 5265WAT     H116037   9.442   1.358   7.581
 5265WAT     H216038   9.522   1.418   7.710
 5266WAT      O16039   4.142   4.992   8.976
 5266WAT     H116040   4.059   4.981   9.031
 5266WAT     H216041   4.187   5.077   9.003
 5267WAT      O16042   1.493   3.529   8.427
 5267WAT     H116043   1.569   3.488   8.378
 5267WAT     H216044   1.527   3.596   8.493
 5268WAT      O16045   5.392   7.037   2.331
 5268WAT     H116046   5.450   6.975   2.277
 5268WAT     H216047   5.386   7.126   2.285
 5269WAT      O16048   1.605   5.224   3.858
 5269WAT     H116049   1.514   5.257   3.832
 5269WAT     H216050   1.597   5.135   3.901
 5270WAT      O16051   1.103   5.503   9.509
 5270WAT     H116052   1.092   5.533   9.604
 5270WAT     H216053   1.160   5.569   9.460
 5271WAT      O16054   3.894   8.564   3.284
 5271WAT     H116055   3.951   8.560   3.201
 5271WAT     H216056   3.866   8.659   3.300
 5272WAT      O16057   4.618   3.858   4.774
 5272WAT     H116058   4.711   3.825   4.762
 5272WAT     H216059   4.617   3.958   4.765
 5273WAT      O16060   6.288   9.423   8.902
 5273WAT     H116061   6.252   9.514   8.883
 5273WAT     H216062   6.336   9.423   8.990
 5274WAT      O16063   1.508   3.691   3.334
 5274WAT     H116064   1.565   3.665   3.256
 5274WAT     H216065   1.425   3.736   3.302
 5275WAT      O16066   0.084   2.422   4.329
 5275WAT     H116067   0.087   2.343   4.391
 5275WAT     H216068   0.121   2.502   4.376
 5276WAT      O16069   2.944   9.085   4.007
 5276WAT     H116070   2.992   9.088   3.919
 5276WAT     H216071   2.912   8.992   4.024
 5277WAT      O16072   7.041   0.899   6.194
 5277WAT     H116073   7.111   0.914   6.264
 5277WAT     H216074   7.003   0.986   6.165
 5278WAT      O16075   9.615   6.180   1.919
 5278WAT     H116076   9.659   6.270   1.916
 5278WAT     H216077   9.567   6.163   1.833
 5279WAT      O16078   0.450   8.380   9.521
 5279WAT     H116079   0.441   8.441   9.600
 5279WAT     H216080   0.375   8.397   9.457
 5280WAT      O16081   9.562   7.065   4.287
 5280WAT     H116082   9.562   7.111   4.198
 5280WAT     H216083   9.652   7.025   4.304
 5281WAT      O16084   8.486   7.473   5.981
 5281WAT     H116085   8.512   7.489   6.077
 5281WAT     H216086   8.500   7.377   5.958
 5282WAT      O16087   5.200   1.149   0.412
 5282WAT     H116088   5.184   1.056   0.447
 5282WAT     H216089   5.271   1.193   0.468
 5283WAT      O16090   7.009   5.096   1.256
 5283WAT     H116091   7.094   5.046   1.277
 5283WAT     H216092   7.017   5.138   1.166
 5284WAT      O16093   4.562   0.200   1.010
 5284WAT     H116094   4.538   0.187   1.106
 5284WAT     H216095   4.491   0.251   0.963
 5285WAT      O16096   1.818   2.023   7.700
 5285WAT     H116097   1.884   1.985   7.765
 5285WAT     H216098   1.765   2.095   7.744
 5286WAT      O16099   4.247   1.947   3.721
 5286WAT     H116100   4.194   1.866   3.748
 5286WAT     H216101   4.187   2.012   3.674
 5287WAT      O16102   5.027   1.170   0.216
 5287WAT     H116103   5.088   1.149   0.293
 5287WAT     H216104   5.039   1.265   0.190
 5288WAT      O16105   4.886   3.855   2.742
 5288WAT     H116106   4.908   3.788   2.670
 5288WAT     H216107   4.970   3.884   2.787
 5289WAT      O16108   4.502   8.081   7.144
 5289WAT     H116109   4.450   8.098   7.060
 5289WAT     H216110   4.572   8.151   7.155
 5290WAT      O16111   7.229   9.656   9.144
 5290WAT     H116112   7.312   9.607   9.116
 5290WAT     H216113   7.197   9.621   9.232
 5291WAT      O16114   7.947   9.137   1.477
 5291WAT     H116115   7.911   9.178   1.561
 5291WAT     H216116   7.938   9.202   1.401
 5292WAT      O16117   3.059   5.023   2.031
 5292WAT     H116118   2.984   5.083   2.002
 5292WAT     H216119   3.061   4.942   1.973
 5293WAT      O16120   6.464   2.048   4.641
 5293WAT     H116121   6.378   1.997   4.647
 5293WAT     H216122   6.453   2.124   4.576
 5294WAT      O16123   8.299   5.446   7.583
 5294WAT     H116124   8.284   5.471   7.679
 5294WAT     H216125   8.309   5.529   7.528
 5295WAT      O16126   9.289   5.403   2.742
 5295WAT     H116127   9.358   5.346   2.788
 5295WAT     H216128   9.199   5.383   2.779
 5296WAT      O16129   9.454   5.080   4.694
 5296WAT     H116130   9.462   5.014   4.769
 5296WAT     H216131   9.358   5.091   4.670
 5297WAT      O16132   8.364   1.915   8.966
 5297WAT     H116133   8.454   1.926   9.009
 5297WAT     H216134   8.293   1.936   9.034
 5298WAT      O16135   4.946   6.863   7.929
 5298WAT     H116136   4.965   6.847   8.026
 5298WAT     H216137   5.022   6.827   7.875
 5299WAT      O16138   7.385   6.516   2.916
 5299WAT     H116139   7.331   6.435   2.893
 5299WAT     H216140   7.398   6.521   3.015
 5300WAT      O16141   2.625   6.995   4.642
 5300WAT     H116142   2.538   7.011   4.595
 5300WAT     H216143   2.688   7.071   4.622
 5301WAT      O16144   2.514   3.012   8.939
 5301WAT     H116145   2.519   3.081   8.868
 5301WAT     H216146   2.465   3.048   9.018
 5302WAT      O16147   7.678   2.902   3.484
 5302WAT     H116148   7.668   2.826   3.420
 5302WAT     H216149   7.754   2.961   3.455
 5303WAT      O16150   7.548   5.236   7.339
 5303WAT     H116151   7.518   5.161   7.281
 5303WAT     H216152   7.645   5.224   7.362
 5304WAT      O16153   0.482   9.747   9.448
 5304WAT     H116154   0.454   9.843   9.446
 5304WAT     H216155   0.445   9.701   9.367
 5305WAT      O16156   0.677   7.481   5.805
 5305WAT     H116157   0.736   7.545   5.756
 5305WAT     H216158   0.600   7.455   5.747
 5306WAT      O16159   9.573   6.862   7.700
 5306WAT     H116160   9.645   6.835   7.637
 5306WAT     H216161   9.583   6.958   7.725
 5307WAT      O16162   2.171   8.763   8.565
 5307WAT     H116163   2.134   8.817   8.640
 5307WAT     H216164   2.114   8.682   8.550
 5308WAT      O16165   7.202   7.666   2.635
 5308WAT     H116166   7.244   7.587   2.682
 5308WAT     H216167   7.105   7.647   2.620
 5309WAT      O16168   8.483   6.005   7.993
 5309WAT     H116169   8.549   6.043   7.928
 5309WAT     H216170   8.516   5.916   8.025
 5310WAT      O16171   1.097   1.496   1.659
 5310WAT     H116172   1.008   1.471   1.698
 5310WAT     H216173   1.103   1.464   1.565
 5311WAT      O16174   6.868   8.735   4.205
 5311WAT     H116175   6.884   8.820   4.155
 5311WAT     H216176   6.788   8.746   4.264
 5312WAT      O16177   5.351   8.444   4.012
 5312WAT     H116178   5.433   8.498   3.994
 5312WAT     H216179   5.344   8.426   4.110
 5313WAT      O16180   0.099   1.225   7.410
 5313WAT     H116181   0.185   1.179   7.434
 5313WAT     H216182   0.118   1.303   7.351
 5314WAT      O16183   9.506   7.963   5.192
 5314WAT     H116184   9.549   7.896   5.252
 5314WAT     H216185   9.569   7.987   5.118
 5315WAT      O16186   4.429   3.729   7.775
 5315WAT     H116187   4.489   3.768   7.705
 5315WAT     H216188   4.462   3.637   7.799
 5316WAT      O16189   2.344   9.432   1.303
 5316WAT     H116190   2.397   9.360   1.348
 5316WAT     H216191   2.248   9.405   1.299
 5317WAT      O16192   4.916   7.213   7.494
 5317WAT     H116193   4.844   7.282   7.483
 5317WAT     H216194   4.945   7.211   7.590
 5318WAT      O16195   6.996   7.756   5.152
 5318WAT     H116196   6.952   7.810   5.225
 5318WAT     H216197   7.093   7.780   5.148
 5319WAT      O16198   0.483   7.358   9.699
 5319WAT     H116199   0.491   7.411   9.784
 5319WAT     H216200   0.409   7.291   9.709
 5320WAT      O16201   7.248   8.106   5.942
 5320WAT     H116202   7.196   8.046   5.880
 5320WAT     H216203   7.343   8.074   5.947
 5321WAT      O16204   9.424   6.312   1.115
 5321WAT     H116205   9.493   6.351   1.054
 5321WAT     H216206   9.463   6.304   1.207
 5322WAT      O16207   4.805   4.277   7.098
 5322WAT     H116208   4.764   4.313   7.014
 5322WAT     H216209   4.736   4.272   7.170
 5323WAT      O16210   6.944   9.425   5.519
 5323WAT     H116211   6.852   9.459   5.538
 5323WAT     H216212   6.939   9.351   5.452
 5324WAT      O16213   8.960   6.419   9.852
 5324WAT     H116214   8.907   6.466   9.923
 5324WAT     H216215   8.912   6.426   9.764
 5325WAT      O16216   4.856   7.492   6.128
 5325WAT     H116217   4.889   7.398   6.138
 5325WAT     H216218   4.934   7.552   6.109
 5326WAT      O16219   4.723   3.173   1.753
 5326WAT     H116220   4.654   3.101   1.746
 5326WAT     H216221   4.775   3.178   1.668
 5327WAT      O16222   7.492   2.297   9.036
 5327WAT     H116223   7.550   2.226   9.075
 5327WAT     H216224   7.448   2.348   9.110
 5328WAT      O16225   5.692   6.871   1.494
 5328WAT     H116226   5.773   6.893   1.440
 5328WAT     H216227   5.707   6.784   1.542
 5329WAT      O16228   3.317   1.787   4.188
 5329WAT     H116229   3.218   1.792   4.178
 5329WAT     H216230   3.361   1.835   4.112
 5330WAT      O16231   2.769   5.566   7.429
 5330WAT     H116232   2.816   5.481   7.453
 5330WAT     H216233   2.829   5.622   7.371
 5331WAT      O16234   3.021   1.287   2.626
 5331WAT     H116235   3.093   1.221   2.602
 5331WAT     H216236   3.062   1.364   2.674
 5332WAT      O16237   0.597   5.908   7.763
 5332WAT     H116238   0.646   5.841   7.706
 5332WAT     H216239   0.620   6.000   7.732
 5333WAT      O16240   5.594   0.766   0.436
 5333WAT     H116241   5.509   0.727   0.473
 5333WAT     H216242   5.578   0.861   0.410
 5334WAT      O16243   3.241   0.031   2.044
 5334WAT     H116244   3.319   0.093   2.054
 5334WAT     H216245   3.185   0.036   2.127
 5335WAT      O16246   0.363   1.733   4.094
 5335WAT     H116247   0.359   1.722   3.994
 5335WAT     H216248   0.289   1.794   4.123
 5336WAT      O16249   7.146   4.871   1.522
 5336WAT     H116250   7.057   4.825   1.520
 5336WAT     H216251   7.174   4.885   1.617
 5337WAT      O16252   6.177   8.214   0.494
 5337WAT     H116253   6.151   8.225   0.590
 5337WAT     H216254   6.104   8.249   0.435
 5338WAT      O16255   5.313   1.395   3.185
 5338WAT     H116256   5.349   1.302   3.185
 5338WAT     H216257   5.254   1.408   3.105
 5339WAT      O16258   3.012   3.132   3.116
 5339WAT     H116259   3.063   3.214   3.088
 5339WAT     H216260   2.922   3.160   3.151
 5340WAT      O16261   9.367   6.419   5.350
 5340WAT     H116262   9.441   6.353   5.335
 5340WAT     H216263   9.388   6.474   5.431
 5341WAT      O16264   6.043   4.107   3.898
 5341WAT     H116265   5.961   4.164   3.901
 5341WAT     H216266   6.119   4.159   3.859
 5342WAT      O16267   8.429   5.203   2.663
 5342WAT     H116268   8.489   5.268   2.616
 5342WAT     H216269   8.337   5.208   2.624
 5343WAT      O16270   9.014   6.906   3.983
 5343WAT     H116271   9.067   6.827   4.013
 5343WAT     H216272   9.024   6.981   4.049
 5344WAT      O16273   1.194   8.910   4.008
 5344WAT     H116274   1.167   9.004   4.031
 5344WAT     H216275   1.135   8.876   3.935
 5345WAT      O16276   3.068   7.878   6.553
 5345WAT     H116277   3.024   7.907   6.639
 5345WAT     H216278   3.014   7.912   6.476
 5346WAT      O16279   3.520   6.521   6.819
 5346WAT     H116280   3.516   6.585   6.742
 5346WAT     H216281   3.428   6.506   6.855
 5347WAT      O16282   9.226   2.833   6.683
 5347WAT     H116283   9.263   2.907   6.628
 5347WAT     H216284   9.152   2.788   6.634
 5348WAT      O16285   8.322   6.305   5.571
 5348WAT     H116286   8.272   6.332   5.654
 5348WAT     H216287   8.345   6.207   5.577
 5349WAT      O16288   3.479   9.828   7.200
 5349WAT     H116289   3.533   9.763   7.147
 5349WAT     H216290   3.519   9.919   7.192
 5350WAT      O16291   5.193   6.834   7.030
 5350WAT     H116292   5.219   6.856   7.124
 5350WAT     H216293   5.237   6.749   7.002
 5351WAT      O16294   8.588   1.269   3.193
 5351WAT     H116295   8.636   1.356   3.180
 5351WAT     H216296   8.491   1.286   3.209
 5352WAT      O16297   8.357   5.705   2.665
 5352WAT     H116298   8.430   5.664   2.610
 5352WAT     H216299   8.366   5.674   2.760
 5353WAT      O16300   3.969   3.355   8.105
 5353WAT     H116301   3.917   3.408   8.172
 5353WAT     H216302   4.029   3.417   8.053
 5354WAT      O16303   9.313   7.362   7.237
 5354WAT     H116304   9.248   7.337   7.308
 5354WAT     H216305   9.277   7.441   7.186
 5355WAT      O16306   8.930   9.271   9.581
 5355WAT     H116307   9.011   9.306   9.627
 5355WAT     H216308   8.947   9.268   9.482
 5356WAT      O16309   7.505   1.572   7.045
 5356WAT     H116310   7.531   1.578   7.142
 5356WAT     H216311   7.560   1.501   7.001
 5357WAT      O16312   1.492   2.752   0.648
 5357WAT     H116313   1.437   2.822   0.602
 5357WAT     H216314   1.435   2.703   0.713
 5358WAT      O16315   4.712   6.735   5.294
 5358WAT     H116316   4.677   6.821   5.331
 5358WAT     H216317   4.796   6.753   5.243
 5359WAT      O16318   7.098   4.112   8.642
 5359WAT     H116319   7.116   4.162   8.727
 5359WAT     H216320   7.184   4.101   8.591
 5360WAT      O16321   9.598   5.658   0.562
 5360WAT     H116322   9.667   5.585   0.559
 5360WAT     H216323   9.614   5.716   0.642
 5361WAT      O16324   3.331   3.359   1.688
 5361WAT     H116325   3.328   3.313   1.777
 5361WAT     H216326   3.402   3.316   1.631
 5362WAT      O16327   5.790   5.197   6.154
 5362WAT     H116328   5.733   5.228   6.078
 5362WAT     H216329   5.795   5.097   6.153
 5363WAT      O16330   2.080   9.468   0.923
 5363WAT     H116331   2.125   9.549   0.884
 5363WAT     H216332   2.014   9.497   0.993
 5364WAT      O16333   8.403   7.430   2.234
 5364WAT     H116334   8.324   7.447   2.294
 5364WAT     H216335   8.408   7.332   2.214
 5365WAT      O16336   0.552   3.379   9.027
 5365WAT     H116337   0.622   3.435   8.982
 5365WAT     H216338   0.483   3.439   9.067
 5366WAT      O16339   0.310   1.860   0.021
 5366WAT     H116340   0.407   1.874   0.042
 5366WAT     H216341   0.267   1.811   0.097
 5367WAT      O16342   5.804   2.276   6.740
 5367WAT     H116343   5.868   2.218   6.790
 5367WAT     H216344   5.711   2.241   6.753
 5368WAT      O16345   8.235   1.464   2.566
 5368WAT     H116346   8.227   1.557   2.604
 5368WAT     H216347   8.149   1.441   2.519
 5369WAT      O16348   7.669   1.098   9.323
 5369WAT     H116349   7.662   1.088   9.224
 5369WAT     H216350   7.639   1.190   9.349
 5370WAT      O16351   0.532   1.422   7.293
 5370WAT     H116352   0.511   1.325   7.284
 5370WAT     H216353   0.464   1.466   7.351
 5371WAT      O16354   4.888   5.334   7.586
 5371WAT     H116355   4.962   5.338   7.519
 5371WAT     H216356   4.832   5.417   7.579
 5372WAT      O16357   4.808   8.793   0.019
 5372WAT     H116358   4.789   8.887   0.046
 5372WAT     H216359   4.763   8.730   0.083
 5373WAT      O16360   8.953   9.551   8.870
 5373WAT     H116361   8.934   9.458   8.901
 5373WAT     H216362   8.882   9.579   8.805
 5374WAT      O16363   6.456   6.017   6.157
 5374WAT     H116364   6.438   5.929   6.114
 5374WAT     H216365   6.477   6.003   6.254
 5375WAT      O16366   5.368   2.672   5.405
 5375WAT     H116367   5.330   2.580   5.402
 5375WAT     H216368   5.401   2.698   5.314
 5376WAT      O16369   8.439   8.601   9.667
 5376WAT     H116370   8.388   8.533   9.720
 5376WAT     H216371   8.394   8.616   9.579
 5377WAT      O16372   9.338   0.475   2.258
 5377WAT     H116373   9.314   0.565   2.223
 5377WAT     H216374   9.436   0.472   2.278
 5378WAT      O16375   5.296   8.598   6.858
 5378WAT     H116376   5.342   8.614   6.770
 5378WAT     H216377   5.331   8.662   6.926
 5379WAT      O16378   3.514   7.165   7.422
 5379WAT     H116379   3.552   7.089   7.370
 5379WAT     H216380   3.489   7.132   7.514
 5380WAT      O16381   2.330   6.023   7.805
 5380WAT     H116382   2.385   5.987   7.730
 5380WAT     H216383   2.264   5.953   7.835
 5381WAT      O16384   0.753   7.192   8.081
 5381WAT     H116385   0.839   7.166   8.126
 5381WAT     H216386   0.774   7.237   7.994
 5382WAT      O16387   4.029   5.538   1.608
 5382WAT     H116388   3.966   5.467   1.576
 5382WAT     H216389   3.980   5.625   1.613
 5383WAT      O16390   3.665   0.122   3.618
 5383WAT     H116391   3.696   0.146   3.710
 5383WAT     H216392   3.623   0.031   3.620
 5384WAT      O16393   5.355   3.777   9.263
 5384WAT     H116394   5.264   3.740   9.246
 5384WAT     H216395   5.380   3.839   9.188
 5385WAT      O16396   6.590   3.375   2.179
 5385WAT     H116397   6.513   3.319   2.210
 5385WAT     H216398   6.564   3.471   2.181
 5386WAT      O16399   7.812   2.222   6.417
 5386WAT     H116400   7.725   2.260   6.448
 5386WAT     H216401   7.866   2.194   6.497
 5387WAT      O16402   7.623   3.059   1.936
 5387WAT     H116403   7.555   3.009   1.883
 5387WAT     H216404   7.594   3.154   1.947
 5388WAT      O16405   7.678   5.106   2.270
 5388WAT     H116406   7.654   5.009   2.274
 5388WAT     H216407   7.682   5.136   2.175
 5389WAT      O16408   0.255   2.585   6.709
 5389WAT     H116409   0.322   2.617   6.776
 5389WAT     H216410   0.278   2.621   6.618
 5390WAT      O16411   3.661   4.202   7.132
 5390WAT     H116412   3.574   4.216   7.085
 5390WAT     H216413   3.711   4.127   7.089
 5391WAT      O16414   9.280   4.960   3.120
 5391WAT     H116415   9.206   4.972   3.055
 5391WAT     H216416   9.312   4.865   3.116
 5392WAT      O16417   0.486   9.678   0.564
 5392WAT     H116418   0.527   9.623   0.491
 5392WAT     H216419   0.506   9.636   0.652
 5393WAT      O16420   7.512   2.121   6.592
 5393WAT     H116421   7.437   2.133   6.656
 5393WAT     H216422   7.544   2.210   6.559
 5394WAT      O16423   9.335   5.160   9.495
 5394WAT     H116424   9.429   5.129   9.510
 5394WAT     H216425   9.314   5.234   9.558
 5395WAT      O16426   1.161   9.669   3.101
 5395WAT     H116427   1.179   9.591   3.041
 5395WAT     H216428   1.237   9.735   3.094
 5396WAT      O16429   6.714   4.315   0.107
 5396WAT     H116430   6.730   4.327   0.009
 5396WAT     H216431   6.645   4.244   0.121
 5397WAT      O16432   4.344   4.469   5.344
 5397WAT     H116433   4.353   4.556   5.295
 5397WAT     H216434   4.402   4.470   5.425
 5398WAT      O16435   0.833   0.586   3.897
 5398WAT     H116436   0.795   0.521   3.832
 5398WAT     H216437   0.931   0.570   3.906
 5399WAT      O16438   6.702   2.417   5.744
 5399WAT     H116439   6.662   2.446   5.831
 5399WAT     H216440   6.775   2.351   5.761
 5400WAT      O16441   7.746   2.682   1.023
 5400WAT     H116442   7.765   2.610   1.089
 5400WAT     H216443   7.659   2.726   1.046
 5401WAT      O16444   3.127   8.997   4.789
 5401WAT     H116445   3.157   8.991   4.694
 5401WAT     H216446   3.069   9.077   4.801
 5402WAT      O16447   4.846   5.431   2.419
 5402WAT     H116448   4.873   5.341   2.452
 5402WAT     H216449   4.822   5.489   2.497
 5403WAT      O16450   1.154   5.475   3.448
 5403WAT     H116451   1.199   5.441   3.530
 5403WAT     H216452   1.214   5.461   3.369
 5404WAT      O16453   9.485   7.245   9.795
 5404WAT     H116454   9.585   7.255   9.794
 5404WAT     H216455   9.443   7.332   9.769
 5405WAT      O16456   8.470   4.381   7.116
 5405WAT     H116457   8.387   4.429   7.091
 5405WAT     H216458   8.466   4.355   7.213
 5406WAT      O16459   4.213   3.079   1.089
 5406WAT     H116460   4.232   3.127   1.175
 5406WAT     H216461   4.299   3.051   1.047
 5407WAT      O16462   1.283   6.482   4.535
 5407WAT     H116463   1.200   6.521   4.496
 5407WAT     H216464   1.334   6.434   4.464
 5408WAT      O16465   8.627   7.131   3.185
 5408WAT     H116466   8.614   7.054   3.124
 5408WAT     H216467   8.540   7.153   3.230
 5409WAT      O16468   4.584   3.131   5.139
 5409WAT     H116469   4.546   3.212   5.183
 5409WAT     H216470   4.570   3.052   5.198
 5410WAT      O16471   8.061   9.359   0.265
 5410WAT     H116472   8.135   9.302   0.301
 5410WAT     H216473   8.045   9.435   0.328
 5411WAT      O16474   0.669   0.143   3.802
 5411WAT     H116475   0.717   0.222   3.839
 5411WAT     H216476   0.726   0.096   3.736
 5412WAT      O16477   6.183   4.562   5.005
 5412WAT     H116478   6.210   4.530   5.096
 5412WAT     H216479   6.250   4.531   4.938
 5413WAT      O16480   4.940   5.407   0.038
 5413WAT     H116481   4.921   5.464  -0.041
 5413WAT     H216482   4.898   5.317   0.026
 5414WAT      O16483   1.936   8.842   3.916
 5414WAT     H116484   1.999   8.828   3.840
 5414WAT     H216485   1.987   8.846   4.002
 5415WAT      O16486   7.397   2.491   1.401
 5415WAT     H116487   7.439   2.401   1.411
 5415WAT     H216488   7.456   2.560   1.445
 5416WAT      O16489   4.686   3.918   1.357
 5416WAT     H116490   4.769   3.946   1.308
 5416WAT     H216491   4.606   3.948   1.306
 5417WAT      O16492   1.520   4.635   9.395
 5417WAT     H116493   1.578   4.665   9.471
 5417WAT     H216494   1.424   4.647   9.421
 5418WAT      O16495   8.902   2.199   9.774
 5418WAT     H116496   8.934   2.104   9.775
 5418WAT     H216497   8.925   2.242   9.861
 5419WAT      O16498   5.884   8.039   0.558
 5419WAT     H116499   5.906   7.996   0.471
 5419WAT     H216500   5.802   7.996   0.597
 5420WAT      O16501   1.711   0.881   9.595
 5420WAT     H116502   1.713   0.910   9.691
 5420WAT     H216503   1.716   0.962   9.536
 5421WAT      O16504   0.472   0.391   4.407
 5421WAT     H116505   0.504   0.314   4.461
 5421WAT     H216506   0.375   0.380   4.386
 5422WAT      O16507   2.562   3.747   1.648
 5422WAT     H116508   2.643   3.754   1.590
 5422WAT     H216509   2.582   3.789   1.737
 5423WAT      O16510   5.918   8.585   8.494
 5423WAT     H116511   5.826   8.545   8.490
 5423WAT     H216512   5.925   8.646   8.573
 5424WAT      O16513   4.803   7.183   3.662
 5424WAT     H116514   4.868   7.142   3.726
 5424WAT     H216515   4.839   7.270   3.628
 5425WAT      O16516   4.130   5.548   1.259
 5425WAT     H116517   4.050   5.494   1.236
 5425WAT     H216518   4.210   5.512   1.210
 5426WAT      O16519   8.260   3.360   2.131
 5426WAT     H116520   8.311   3.289   2.082
 5426WAT     H216521   8.311   3.387   2.212
 5427WAT      O16522   8.217   9.416   1.586
 5427WAT     H116523   8.154   9.342   1.612
 5427WAT     H216524   8.304   9.404   1.634
 5428WAT      O16525   1.767   8.937   7.556
 5428WAT     H116526   1.749   9.004   7.484
 5428WAT     H216527   1.692   8.937   7.621
 5429WAT      O16528   5.919   3.757   1.589
 5429WAT     H116529   6.011   3.789   1.566
 5429WAT     H216530   5.912   3.745   1.688
 5430WAT      O16531   7.099   6.104   9.429
 5430WAT     H116532   7.083   6.014   9.471
 5430WAT     H216533   7.089   6.175   9.499
 5431WAT      O16534   3.809   2.086   8.307
 5431WAT     H116535   3.846   2.036   8.386
 5431WAT     H216536   3.821   2.184   8.321
 5432WAT      O16537   7.118   9.205   2.891
 5432WAT     H116538   7.096   9.289   2.840
 5432WAT     H216539   7.041   9.182   2.951
 5433WAT      O16540   4.327   4.689   3.718
 5433WAT     H116541   4.364   4.730   3.802
 5433WAT     H216542   4.247   4.633   3.741
 5434WAT      O16543   8.051   6.990   6.400
 5434WAT     H116544   8.024   6.958   6.309
 5434WAT     H216545   8.050   6.913   6.464
 5435WAT      O16546   0.574   7.071   4.793
 5435WAT     H116547   0.505   7.098   4.725
 5435WAT     H216548   0.533   7.005   4.856
 5436WAT      O16549   3.344   7.678   6.188
 5436WAT     H116550   3.363   7.627   6.104
 5436WAT     H216551   3.429   7.691   6.239
 5437WAT      O16552   1.629   1.444   6.733
 5437WAT     H116553   1.635   1.409   6.639
 5437WAT     H216554   1.693   1.394   6.791
 5438WAT      O16555   1.448   9.716   3.995
 5438WAT     H116556   1.404   9.761   4.073
 5438WAT     H216557   1.379   9.670   3.939
 5439WAT      O16558   9.314   9.014   1.253
 5439WAT     H116559   9.412   9.004   1.273
 5439WAT     H216560   9.264   9.033   1.337
 5440WAT      O16561   7.466   6.806   1.269
 5440WAT     H116562   7.375   6.772   1.289
 5440WAT     H216563   7.461   6.904   1.248
 5441WAT      O16564   4.402   7.688   6.974
 5441WAT     H116565   4.360   7.605   6.937
 5441WAT     H216566   4.467   7.664   7.046
 5442WAT      O16567   4.989   5.301   6.813
 5442WAT     H116568   4.947   5.275   6.900
 5442WAT     H216569   4.936   5.263   6.737
 5443WAT      O16570   7.603   0.744   1.219
 5443WAT     H116571   7.578   0.786   1.132
 5443WAT     H216572   7.522   0.704   1.262
 5444WAT      O16573   0.713   8.132   6.973
 5444WAT     H116574   0.653   8.145   6.895
 5444WAT     H216575   0.678   8.058   7.031
 5445WAT      O16576   7.188   8.041   3.621
 5445WAT     H116577   7.145   7.976   3.683
 5445WAT     H216578   7.121   8.073   3.554
 5446WAT      O16579   1.159   9.829   9.883
 5446WAT     H116580   1.187   9.738   9.854
 5446WAT     H216581   1.139   9.884   9.802
 5447WAT      O16582   9.252   6.220   4.779
 5447WAT     H116583   9.160   6.255   4.758
 5447WAT     H216584   9.291   6.273   4.854
 5448WAT      O16585   3.550   1.631   4.609
 5448WAT     H116586   3.495   1.692   4.552
 5448WAT     H216587   3.547   1.664   4.704
 5449WAT      O16588   2.444   7.568   5.391
 5449WAT     H116589   2.442   7.654   5.441
 5449WAT     H216590   2.374   7.507   5.428
 5450WAT      O16591   8.515   0.070   1.731
 5450WAT     H116592   8.455   0.101   1.657
 5450WAT     H216593   8.459   0.038   1.807
 5451WAT      O16594   5.871   3.018   5.555
 5451WAT     H116595   5.776   3.032   5.581
 5451WAT     H216596   5.891   3.073   5.474
 5452WAT      O16597   4.355   4.195   0.013
 5452WAT     H116598   4.408   4.142   0.079
 5452WAT     H216599   4.341   4.288   0.047
 5453WAT      O16600   5.748   2.912   7.833
 5453WAT     H116601   5.732   3.000   7.879
 5453WAT     H216602   5.840   2.880   7.853
 5454WAT      O16603   2.694   8.499   4.302
 5454WAT     H116604   2.700   8.478   4.400
 5454WAT     H216605   2.765   8.564   4.277
 5455WAT      O16606   6.713   2.867   8.089
 5455WAT     H116607   6.650   2.942   8.106
 5455WAT     H216608   6.709   2.802   8.165
 5456WAT      O16609   6.390   8.792   2.131
 5456WAT     H116610   6.392   8.892   2.122
 5456WAT     H216611   6.483   8.756   2.136
 5457WAT      O16612   9.713   3.178   9.631
 5457WAT     H116613   9.737   3.144   9.540
 5457WAT     H216614   9.707   3.278   9.628
 5458WAT      O16615   0.520   8.267   7.815
 5458WAT     H116616   0.593   8.199   7.826
 5458WAT     H216617   0.501   8.312   7.902
 5459WAT      O16618   1.413   1.212   8.214
 5459WAT     H116619   1.348   1.253   8.150
 5459WAT     H216620   1.373   1.128   8.252
 5460WAT      O16621   8.797   5.857   9.365
 5460WAT     H116622   8.823   5.854   9.269
 5460WAT     H216623   8.732   5.784   9.385
 5461WAT      O16624   3.432   3.789   2.087
 5461WAT     H116625   3.391   3.828   2.004
 5461WAT     H216626   3.376   3.812   2.166
 5462WAT      O16627   2.417   1.716   2.125
 5462WAT     H116628   2.324   1.680   2.135
 5462WAT     H216629   2.424   1.768   2.040
 5463WAT      O16630   0.334   8.487   9.284
 5463WAT     H116631   0.327   8.473   9.185
 5463WAT     H216632   0.244   8.471   9.326
 5464WAT      O16633   6.744   6.714   1.897
 5464WAT     H116634   6.706   6.750   1.983
 5464WAT     H216635   6.816   6.776   1.865
 5465WAT      O16636   7.581   2.949   2.778
 5465WAT     H116637   7.596   3.045   2.805
 5465WAT     H216638   7.535   2.901   2.851
 5466WAT      O16639   6.810   5.808   6.197
 5466WAT     H116640   6.716   5.799   6.229
 5466WAT     H216641   6.812   5.808   6.097
 5467WAT      O16642   8.416   5.725   1.273
 5467WAT     H116643   8.353   5.798   1.247
 5467WAT     H216644   8.510   5.757   1.264
 5468WAT      O16645   8.879   4.187   0.240
 5468WAT     H116646   8.903   4.149   0.329
 5468WAT     H216647   8.868   4.113   0.173
 5469WAT      O16648   5.082   8.529   6.713
 5469WAT     H116649   5.153   8.537   6.783
 5469WAT     H216650   4.993   8.546   6.755
 5470WAT      O16651   6.107   7.859   9.546
 5470WAT     H116652   6.173   7.803   9.496
 5470WAT     H216653   6.138   7.954   9.545
 5471WAT      O16654   2.759   1.646   6.804
 5471WAT     H116655   2.698   1.586   6.857
 5471WAT     H216656   2.704   1.710   6.751
 5472WAT      O16657   8.920   2.761   7.147
 5472WAT     H116658   8.845   2.823   7.124
 5472WAT     H216659   8.885   2.685   7.202
 5473WAT      O16660   5.412   4.682   2.251
 5473WAT     H116661   5.423   4.781   2.243
 5473WAT     H216662   5.502   4.639   2.259
 5474WAT      O16663   4.037   2.852   9.885
 5474WAT     H116664   3.989   2.840   9.971
 5474WAT     H216665   4.131   2.820   9.894
 5475WAT      O16666   5.952   8.108   6.573
 5475WAT     H116667   5.894   8.063   6.505
 5475WAT     H216668   5.948   8.207   6.560
 5476WAT      O16669   1.734   1.535   4.779
 5476WAT     H116670   1.824   1.578   4.770
 5476WAT     H216671   1.666   1.590   4.732
 5477WAT      O16672   0.172   1.553   5.333
 5477WAT     H116673   0.198   1.646   5.358
 5477WAT     H216674   0.149   1.501   5.415
 5478WAT      O16675   0.606   6.857   9.039
 5478WAT     H116676   0.649   6.789   9.099
 5478WAT     H216677   0.631   6.949   9.070
 5479WAT      O16678   0.196   8.683   6.113
 5479WAT     H116679   0.179   8.676   6.015
 5479WAT     H216680   0.294   8.696   6.129
 5480WAT      O16681   2.412   5.322   2.358
 5480WAT     H116682   2.395   5.413   2.395
 5480WAT     H216683   2.466   5.329   2.274
 5481WAT      O16684   5.250   8.573   0.385
 5481WAT     H116685   5.280   8.598   0.294
 5481WAT     H216686   5.252   8.473   0.395
 5482WAT      O16687   7.827   2.645   0.764
 5482WAT     H116688   7.793   2.638   0.857
 5482WAT     H216689   7.927   2.651   0.765
 5483WAT      O16690   4.305   0.626   0.218
 5483WAT     H116691   4.332   0.684   0.295
 5483WAT     H216692   4.380   0.620   0.153
 5484WAT      O16693   9.518   9.305   9.407
 5484WAT     H116694   9.554   9.290   9.499
 5484WAT     H216695   9.548   9.231   9.347
 5485WAT      O16696   1.333   3.504   0.174
 5485WAT     H116697   1.332   3.416   0.126
 5485WAT     H216698   1.265   3.565   0.133
 5486WAT      O16699   3.039   6.169   5.397
 5486WAT     H116700   2.995   6.139   5.481
 5486WAT     H216701   2.984   6.240   5.354
 5487WAT      O16702   2.122   3.833   1.799
 5487WAT     H116703   2.041   3.850   1.743
 5487WAT     H216704   2.191   3.902   1.778
 5488WAT      O16705   7.634   7.240   6.320
 5488WAT     H116706   7.598   7.295   6.244
 5488WAT     H216707   7.690   7.166   6.283
 5489WAT      O16708   4.421   4.858   9.432
 5489WAT     H116709   4.352   4.786   9.437
 5489WAT     H216710   4.483   4.841   9.356
 5490WAT      O16711   7.219   7.689   9.701
 5490WAT     H116712   7.227   7.592   9.679
 5490WAT     H216713   7.123   7.716   9.694
 5491WAT      O16714   1.527   2.894   2.568
 5491WAT     H116715   1.458   2.942   2.622
 5491WAT     H216716   1.563   2.956   2.498
 5492WAT      O16717   0.496   3.598   5.829
 5492WAT     H116718   0.509   3.665   5.902
 5492WAT     H216719   0.559   3.522   5.842
 5493WAT      O16720   9.359   8.785   2.632
 5493WAT     H116721   9.447   8.746   2.605
 5493WAT     H216722   9.317   8.832   2.554
 5494WAT      O16723   6.913   0.294   9.483
 5494WAT     H116724   6.971   0.225   9.438
 5494WAT     H216725   6.869   0.351   9.415
 5495WAT      O16726   1.648   4.044   0.735
 5495WAT     H116727   1.672   4.005   0.646
 5495WAT     H216728   1.627   3.970   0.799
 5496WAT      O16729   1.662   5.295   7.597
 5496WAT     H116730   1.623   5.224   7.539
 5496WAT     H216731   1.748   5.263   7.636
 5497WAT      O16732   0.727   6.328   6.782
 5497WAT     H116733   0.809   6.342   6.838
 5497WAT     H216734   0.646   6.335   6.840
 5498WAT      O16735   7.161   6.957   3.517
 5498WAT     H116736   7.213   6.996   3.441
 5498WAT     H216737   7.110   7.030   3.563
 5499WAT      O16738   8.496   9.414   6.612
 5499WAT     H116739   8.514   9.456   6.701
 5499WAT     H216740   8.402   9.434   6.584
 5500WAT      O16741   8.568   7.949   9.307
 5500WAT     H116742   8.501   8.023   9.304
 5500WAT     H216743   8.566   7.899   9.220
 5501WAT      O16744   6.555   0.450   1.388
 5501WAT     H116745   6.502   0.532   1.371
 5501WAT     H216746   6.609   0.462   1.472
 5502WAT      O16747   3.344   4.622   3.639
 5502WAT     H116748   3.428   4.673   3.656
 5502WAT     H216749   3.359   4.554   3.568
 5503WAT      O16750   9.605   2.102   6.039
 5503WAT     H116751   9.686   2.133   6.088
 5503WAT     H216752   9.597   2.151   5.952
 5504WAT      O16753   9.528   1.354   2.986
 5504WAT     H116754   9.504   1.263   3.020
 5504WAT     H216755   9.465   1.421   3.023
 5505WAT      O16756   1.696   4.524   2.070
 5505WAT     H116757   1.738   4.519   2.161
 5505WAT     H216758   1.601   4.553   2.079
 5506WAT      O16759   8.511   3.907   2.098
 5506WAT     H116760   8.533   3.913   2.195
 5506WAT     H216761   8.500   3.810   2.073
 5507WAT      O16762   9.303   4.485   2.730
 5507WAT     H116763   9.316   4.584   2.727
 5507WAT     H216764   9.363   4.445   2.798
 5508WAT      O16765   2.514   1.045   5.474
 5508WAT     H116766   2.569   0.971   5.434
 5508WAT     H216767   2.571   1.127   5.482
 5509WAT      O16768   4.104   9.428   8.374
 5509WAT     H116769   4.148   9.463   8.457
 5509WAT     H216770   4.098   9.502   8.306
 5510WAT      O16771   4.289   3.091   6.624
 5510WAT     H116772   4.268   3.125   6.533
 5510WAT     H216773   4.377   3.127   6.654
 5511WAT      O16774   9.395   0.201   2.210
 5511WAT     H116775   9.488   0.172   2.230
 5511WAT     H216776   9.372   0.282   2.265
 5512WAT      O16777   7.522   8.251   4.478
 5512WAT     H116778   7.506   8.163   4.433
 5512WAT     H216779   7.435   8.297   4.494
 5513WAT      O16780   4.766   2.871   9.375
 5513WAT     H116781   4.668   2.867   9.358
 5513WAT     H216782   4.812   2.921   9.301
 5514WAT      O16783   8.094   3.777   5.902
 5514WAT     H116784   8.025   3.765   5.974
 5514WAT     H216785   8.111   3.874   5.888
 5515WAT      O16786   4.839   6.754   4.133
 5515WAT     H116787   4.740   6.756   4.122
 5515WAT     H216788   4.868   6.835   4.185
 5516WAT      O16789   1.362   2.803   7.249
 5516WAT     H116790   1.323   2.826   7.338
 5516WAT     H216791   1.361   2.704   7.237
 5517WAT      O16792   2.298   1.006   7.457
 5517WAT     H116793   2.322   1.102   7.470
 5517WAT     H216794   2.378   0.949   7.476
 5518WAT      O16795   4.310   6.119   3.585
 5518WAT     H116796   4.390   6.082   3.632
 5518WAT     H216797   4.281   6.056   3.513
 5519WAT      O16798   0.710   8.373   3.819
 5519WAT     H116799   0.729   8.429   3.738
 5519WAT     H216800   0.797   8.347   3.862
 5520WAT      O16801   4.271   6.487   5.400
 5520WAT     H116802   4.243   6.533   5.485
 5520WAT     H216803   4.330   6.548   5.347
 5521WAT      O16804   9.774   4.535   5.969
 5521WAT     H116805   9.783   4.543   6.068
 5521WAT     H216806   9.697   4.474   5.947
 5522WAT      O16807   2.071   0.187   6.268
 5522WAT     H116808   2.079   0.270   6.324
 5522WAT     H216809   2.027   0.210   6.181
 5523WAT      O16810   7.186   5.854   4.884
 5523WAT     H116811   7.200   5.951   4.902
 5523WAT     H216812   7.173   5.805   4.970
 5524WAT      O16813   0.636   0.450   1.326
 5524WAT     H116814   0.571   0.486   1.392
 5524WAT     H216815   0.715   0.412   1.375
 5525WAT      O16816   4.182   0.985   2.875
 5525WAT     H116817   4.194   1.056   2.945
 5525WAT     H216818   4.159   0.898   2.919
 5526WAT      O16819   7.938   1.793   9.640
 5526WAT     H116820   8.008   1.814   9.572
 5526WAT     H216821   7.970   1.717   9.697
 5527WAT      O16822   7.688   4.930   0.068
 5527WAT     H116823   7.686   4.966   0.161
 5527WAT     H216824   7.634   4.989   0.008
 5528WAT      O16825   3.912   3.933   3.335
 5528WAT     H116826   3.887   3.865   3.266
 5528WAT     H216827   3.832   3.953   3.392
 5529WAT      O16828   0.341   5.420   0.079
 5529WAT     H116829   0.248   5.387   0.096
 5529WAT     H216830   0.387   5.437   0.166
 5530WAT      O16831   3.859   7.464   1.793
 5530WAT     H116832   3.885   7.515   1.711
 5530WAT     H216833   3.940   7.423   1.835
 5531WAT      O16834   3.327   3.983   0.683
 5531WAT     H116835   3.393   4.039   0.632
 5531WAT     H216836   3.287   3.915   0.622
 5532WAT      O16837   3.007   5.877   2.265
 5532WAT     H116838   3.009   5.780   2.240
 5532WAT     H216839   2.958   5.888   2.351
 5533WAT      O16840   9.561   6.793   1.601
 5533WAT     H116841   9.583   6.809   1.505
 5533WAT     H216842   9.531   6.879   1.642
 5534WAT      O16843   7.897   8.761   0.378
 5534WAT     H116844   7.844   8.798   0.301
 5534WAT     H216845   7.834   8.730   0.449
 5535WAT      O16846   5.404   0.518   0.858
 5535WAT     H116847   5.486   0.570   0.882
 5535WAT     H216848   5.364   0.479   0.941
 5536WAT      O16849   0.966   1.501   8.367
 5536WAT     H116850   1.029   1.578   8.354
 5536WAT     H216851   0.883   1.518   8.314
 5537WAT      O16852   3.086   9.676   1.219
 5537WAT     H116853   3.087   9.576   1.223
 5537WAT     H216854   3.065   9.705   1.126
 5538WAT      O16855   9.879   6.838   5.888
 5538WAT     H116856   9.909   6.839   5.983
 5538WAT     H216857   9.833   6.752   5.868
 5539WAT      O16858   6.250   5.225   3.346
 5539WAT     H116859   6.324   5.293   3.354
 5539WAT     H216860   6.232   5.207   3.249
 5540WAT      O16861   9.399   8.478   4.146
 5540WAT     H116862   9.449   8.420   4.209
 5540WAT     H216863   9.319   8.429   4.111
 5541WAT      O16864   8.187   6.193   4.544
 5541WAT     H116865   8.137   6.252   4.607
 5541WAT     H216866   8.181   6.230   4.451
 5542WAT      O16867   7.822   9.109   3.899
 5542WAT     H116868   7.805   9.167   3.979
 5542WAT     H216869   7.793   9.015   3.920
 5543WAT      O16870   5.035   8.059   0.122
 5543WAT     H116871   4.957   8.005   0.090
 5543WAT     H216872   5.115   7.999   0.131
 5544WAT      O16873   4.702   2.173   4.149
 5544WAT     H116874   4.655   2.104   4.094
 5544WAT     H216875   4.635   2.238   4.184
 5545WAT      O16876   0.501   3.119   1.529
 5545WAT     H116877   0.484   3.109   1.627
 5545WAT     H216878   0.504   3.028   1.486
 5546WAT      O16879   9.317   5.330   6.245
 5546WAT     H116880   9.348   5.319   6.150
 5546WAT     H216881   9.219   5.310   6.251
 5547WAT      O16882   1.602   9.441   4.239
 5547WAT     H116883   1.675   9.450   4.306
 5547WAT     H216884   1.577   9.531   4.204
 5548WAT      O16885   7.542   9.048   5.124
 5548WAT     H116886   7.611   8.983   5.157
 5548WAT     H216887   7.475   9.065   5.196
 5549WAT      O16888   1.827   8.430   3.601
 5549WAT     H116889   1.834   8.483   3.517
 5549WAT     H216890   1.829   8.491   3.680
 5550WAT      O16891   5.938   9.818   5.481
 5550WAT     H116892   5.986   9.751   5.425
 5550WAT     H216893   5.850   9.780   5.511
 5551WAT      O16894   4.835   3.545   4.325
 5551WAT     H116895   4.823   3.638   4.362
 5551WAT     H216896   4.748   3.512   4.289
 5552WAT      O16897   1.099   0.614   6.192
 5552WAT     H116898   1.119   0.593   6.288
 5552WAT     H216899   1.074   0.711   6.185
 5553WAT      O16900   2.061   9.765   6.801
 5553WAT     H116901   2.006   9.690   6.838
 5553WAT     H216902   2.053   9.845   6.860
 5554WAT      O16903   9.678   9.833   5.084
 5554WAT     H116904   9.711   9.913   5.033
 5554WAT     H216905   9.755   9.776   5.110
 5555WAT      O16906   9.818   8.380   0.702
 5555WAT     H116907   9.736   8.434   0.719
 5555WAT     H216908   9.793   8.291   0.663
 5556WAT      O16909   3.218   8.400   2.470
 5556WAT     H116910   3.152   8.475   2.477
 5556WAT     H216911   3.174   8.321   2.428
 5557WAT      O16912   1.590   6.466   3.397
 5557WAT     H116913   1.569   6.560   3.423
 5557WAT     H216914   1.674   6.437   3.443
 5558WAT      O16915   6.774   1.476   0.946
 5558WAT     H116916   6.700   1.437   0.892
 5558WAT     H216917   6.832   1.531   0.886
 5559WAT      O16918   5.864   9.520   5.142
 5559WAT     H116919   5.872   9.604   5.088
 5559WAT     H216920   5.895   9.442   5.088
 5560WAT      O16921   8.478   9.248   3.849
 5560WAT     H116922   8.497   9.154   3.821
 5560WAT     H216923   8.477   9.308   3.769
 5561WAT      O16924   8.712   1.511   6.110
 5561WAT     H116925   8.712   1.411   6.102
 5561WAT     H216926   8.774   1.549   6.042
 5562WAT      O16927   8.167   1.048   6.828
 5562WAT     H116928   8.196   1.144   6.825
 5562WAT     H216929   8.071   1.043   6.854
 5563WAT      O16930   9.314   8.384   8.375
 5563WAT     H116931   9.375   8.314   8.413
 5563WAT     H216932   9.230   8.341   8.343
 5564WAT      O16933   7.425   5.282   1.857
 5564WAT     H116934   7.376   5.272   1.770
 5564WAT     H216935   7.462   5.194   1.885
 5565WAT      O16936   3.665   0.774   4.515
 5565WAT     H116937   3.669   0.838   4.592
 5565WAT     H216938   3.759   0.747   4.490
 5566WAT      O16939   0.131   3.376   9.390
 5566WAT     H116940   0.219   3.402   9.351
 5566WAT     H216941   0.073   3.339   9.318
 5567WAT      O16942   1.723   5.393   4.699
 5567WAT     H116943   1.803   5.348   4.657
 5567WAT     H216944   1.701   5.347   4.785
 5568WAT      O16945   5.360   9.109   7.708
 5568WAT     H116946   5.331   9.205   7.714
 5568WAT     H216947   5.280   9.050   7.719
 5569WAT      O16948   2.889   8.044   0.540
 5569WAT     H116949   2.929   8.034   0.449
 5569WAT     H216950   2.801   8.092   0.532
 5570WAT      O16951   2.725   4.889   3.447
 5570WAT     H116952   2.697   4.824   3.376
 5570WAT     H216953   2.751   4.976   3.405
 5571WAT      O16954   0.721   0.719   5.697
 5571WAT     H116955   0.702   0.621   5.688
 5571WAT     H216956   0.805   0.733   5.749
 5572WAT      O16957   7.041   9.566   1.492
 5572WAT     H116958   6.986   9.649   1.483
 5572WAT     H216959   6.984   9.486   1.475
 5573WAT      O16960   3.632   5.619   6.188
 5573WAT     H116961   3.730   5.612   6.168
 5573WAT     H216962   3.588   5.531   6.168
 5574WAT      O16963   6.879   2.003   3.444
 5574WAT     H116964   6.930   1.970   3.523
 5574WAT     H216965   6.791   1.954   3.439
 5575WAT      O16966   1.185   3.839   1.382
 5575WAT     H116967   1.136   3.917   1.420
 5575WAT     H216968   1.139   3.754   1.409
 5576WAT      O16969   5.004   4.852   6.820
 5576WAT     H116970   4.975   4.882   6.729
 5576WAT     H216971   4.985   4.754   6.831
 5577WAT      O16972   2.892   1.430   7.149
 5577WAT     H116973   2.931   1.385   7.068
 5577WAT     H216974   2.956   1.499   7.182
 5578WAT      O16975   1.717   1.923   3.040
 5578WAT     H116976   1.729   1.972   2.954
 5578WAT     H216977   1.621   1.930   3.069
 5579WAT      O16978   7.586   1.013   5.996
 5579WAT     H116979   7.612   0.919   5.973
 5579WAT     H216980   7.596   1.071   5.915
 5580WAT      O16981   8.077   2.174   1.479
 5580WAT     H116982   8.112   2.092   1.524
 5580WAT     H216983   8.103   2.254   1.533
 5581WAT      O16984   5.526   9.199   1.258
 5581WAT     H116985   5.475   9.158   1.182
 5581WAT     H216986   5.582   9.128   1.302
 5582WAT      O16987   5.832   6.656   7.113
 5582WAT     H116988   5.753   6.601   7.087
 5582WAT     H216989   5.914   6.599   7.109
 5583WAT      O16990   2.812   1.491   4.932
 5583WAT     H116991   2.785   1.484   4.836
 5583WAT     H216992   2.910   1.512   4.937
 5584WAT      O16993   2.246   8.656   5.472
 5584WAT     H116994   2.267   8.589   5.401
 5584WAT     H216995   2.151   8.645   5.502
 5585WAT      O16996   5.277   3.647   5.174
 5585WAT     H116997   5.227   3.575   5.221
 5585WAT     H216998   5.262   3.734   5.221
 5586WAT      O16999   4.373   4.219   3.468
 5586WAT     H117000   4.351   4.218   3.566
 5586WAT     H217001   4.316   4.286   3.422
 5587WAT      O17002   4.046   6.672   5.014
 5587WAT     H117003   4.082   6.591   4.968
 5587WAT     H217004   3.947   6.678   4.999
 5588WAT      O17005   5.032   7.026   5.807
 5588WAT     H117006   4.974   6.994   5.733
 5588WAT     H217007   4.980   7.088   5.866
 5589WAT      O17008   1.597   7.264   1.353
 5589WAT     H117009   1.621   7.352   1.393
 5589WAT     H217010   1.528   7.219   1.410
 5590WAT      O17011   7.820   2.507   2.139
 5590WAT     H117012   7.909   2.461   2.134
 5590WAT     H217013   7.754   2.458   2.083
 5591WAT      O17014   5.611   1.704   9.402
 5591WAT     H117015   5.585   1.754   9.485
 5591WAT     H217016   5.702   1.734   9.372
 5592WAT      O17017   0.519   7.070   2.857
 5592WAT     H117018   0.597   7.043   2.914
 5592WAT     H217019   0.466   7.139   2.906
 5593WAT      O17020   2.802   8.710   5.429
 5593WAT     H117021   2.843   8.661   5.506
 5593WAT     H217022   2.741   8.647   5.379
 5594WAT      O17023   5.221   6.731   1.069
 5594WAT     H117024   5.291   6.747   1.139
 5594WAT     H217025   5.263   6.732   0.979
 5595WAT      O17026   6.003   7.404   7.911
 5595WAT     H117027   5.999   7.496   7.948
 5595WAT     H217028   6.080   7.355   7.953
 5596WAT      O17029   6.755   5.738   7.650
 5596WAT     H117030   6.853   5.753   7.639
 5596WAT     H217031   6.740   5.647   7.689
 5597WAT      O17032   4.652   0.363   3.612
 5597WAT     H117033   4.687   0.452   3.642
 5597WAT     H217034   4.687   0.342   3.521
 5598WAT      O17035   6.217   3.712   3.359
 5598WAT     H117036   6.191   3.617   3.376
 5598WAT     H217037   6.143   3.759   3.311
 5599WAT      O17038   4.684   3.455   7.395
 5599WAT     H117039   4.671   3.541   7.445
 5599WAT     H217040   4.766   3.461   7.339
 5600WAT      O17041   6.691   7.904   3.635
 5600WAT     H117042   6.595   7.900   3.660
 5600WAT     H217043   6.703   7.867   3.542
 5601WAT      O17044   6.779   7.029   9.484
 5601WAT     H117045   6.767   7.128   9.485
 5601WAT     H217046   6.694   6.985   9.513
 5602WAT      O17047   1.225   5.280   0.885
 5602WAT     H117048   1.234   5.375   0.852
 5602WAT     H217049   1.130   5.250   0.873
 5603WAT      O17050   8.165   1.858   4.550
 5603WAT     H117051   8.200   1.885   4.460
 5603WAT     H217052   8.232   1.882   4.620
 5604WAT      O17053   4.410   2.200   0.881
 5604WAT     H117054   4.433   2.258   0.803
 5604WAT     H217055   4.475   2.125   0.887
 5605WAT      O17056   8.147   1.657   3.662
 5605WAT     H117057   8.167   1.653   3.564
 5605WAT     H217058   8.084   1.583   3.686
 5606WAT      O17059   7.892   9.127   7.145
 5606WAT     H117060   7.850   9.145   7.056
 5606WAT     H217061   7.925   9.033   7.148
 5607WAT      O17062   7.500   6.532   9.097
 5607WAT     H117063   7.488   6.447   9.045
 5607WAT     H217064   7.593   6.566   9.083
 5608WAT      O17065   8.274   6.008   3.675
 5608WAT     H117066   8.252   6.049   3.764
 5608WAT     H217067   8.206   6.038   3.608
 5609WAT      O17068   8.101   0.901   5.165
 5609WAT     H117069   8.017   0.887   5.219
 5609WAT     H217070   8.081   0.885   5.068
 5610WAT      O17071   3.437   7.665   6.746
 5610WAT     H117072   3.436   7.566   6.761
 5610WAT     H217073   3.532   7.696   6.733
 5611WAT      O17074   4.924   1.643   5.057
 5611WAT     H117075   4.855   1.711   5.034
 5611WAT     H217076   4.883   1.573   5.116
 5612WAT      O17077   8.767   4.938   3.880
 5612WAT     H117078   8.741   5.021   3.930
 5612WAT     H217079   8.736   4.945   3.786
 5613WAT      O17080   0.040   4.444   4.057
 5613WAT     H117081  -0.053   4.472   4.033
 5613WAT     H217082   0.074   4.502   4.131
 5614WAT      O17083   0.040   5.324   8.905
 5614WAT     H117084  -0.030   5.372   8.959
 5614WAT     H217085   0.126   5.375   8.910
 5615WAT      O17086   1.008   8.295   8.355
 5615WAT     H117087   1.027   8.196   8.351
 5615WAT     H217088   1.094   8.345   8.361
 5616WAT      O17089   2.785   3.024   5.590
 5616WAT     H117090   2.812   2.985   5.678
 5616WAT     H217091   2.839   2.983   5.517
 5617WAT      O17092   8.597   2.182   5.043
 5617WAT     H117093   8.544   2.263   5.018
 5617WAT     H217094   8.545   2.128   5.110
 5618WAT      O17095   5.313   0.394   3.996
 5618WAT     H117096   5.403   0.422   4.028
 5618WAT     H217097   5.284   0.312   4.046
 5619WAT      O17098   2.051   0.450   7.064
 5619WAT     H117099   2.061   0.378   7.132
 5619WAT     H217100   2.062   0.539   7.107
 5620WAT      O17101   1.129   4.376   0.533
 5620WAT     H117102   1.190   4.455   0.536
 5620WAT     H217103   1.118   4.346   0.438
 5621WAT      O17104   6.643   4.384   7.070
 5621WAT     H117105   6.668   4.401   6.975
 5621WAT     H217106   6.630   4.286   7.084
 5622WAT      O17107   8.633   6.157   5.705
 5622WAT     H117108   8.690   6.126   5.782
 5622WAT     H217109   8.614   6.080   5.645
 5623WAT      O17110   2.083   4.730   7.972
 5623WAT     H117111   2.096   4.760   7.877
 5623WAT     H217112   2.135   4.646   7.987
 5624WAT      O17113   0.262   1.209   3.388
 5624WAT     H117114   0.345   1.240   3.343
 5624WAT     H217115   0.182   1.229   3.330
 5625WAT      O17116   0.857   5.983   0.733
 5625WAT     H117117   0.851   5.921   0.655
 5625WAT     H217118   0.798   5.950   0.806
 5626WAT      O17119   2.290   1.151   5.332
 5626WAT     H117120   2.350   1.132   5.409
 5626WAT     H217121   2.344   1.152   5.247
 5627WAT      O17122   6.429   9.137   2.840
 5627WAT     H117123   6.491   9.080   2.893
 5627WAT     H217124   6.471   9.161   2.752
 5628WAT      O17125   8.915   5.451   9.365
 5628WAT     H117126   8.892   5.394   9.286
 5628WAT     H217127   9.006   5.426   9.398
 5629WAT      O17128   4.681   8.436   0.637
 5629WAT     H117129   4.685   8.365   0.567
 5629WAT     H217130   4.713   8.399   0.724
 5630WAT      O17131   3.094   7.863   7.218
 5630WAT     H117132   3.031   7.861   7.140
 5630WAT     H217133   3.153   7.783   7.214
 5631WAT      O17134   1.807   3.444   1.212
 5631WAT     H117135   1.890   3.495   1.191
 5631WAT     H217136   1.762   3.484   1.291
 5632WAT      O17137   3.591   5.844   2.128
 5632WAT     H117138   3.539   5.822   2.045
 5632WAT     H217139   3.660   5.773   2.144
 5633WAT      O17140   0.311   4.610   6.096
 5633WAT     H117141   0.268   4.537   6.149
 5633WAT     H217142   0.317   4.582   6.000
 5634WAT      O17143   5.400   2.856   6.376
 5634WAT     H117144   5.461   2.795   6.325
 5634WAT     H217145   5.431   2.860   6.471
 5635WAT      O17146   5.213   2.936   9.861
 5635WAT     H117147   5.162   3.013   9.821
 5635WAT     H217148   5.175   2.850   9.827
 5636WAT      O17149   8.744   7.524   6.422
 5636WAT     H117150   8.716   7.618   6.440
 5636WAT     H217151   8.754   7.475   6.508
 5637WAT      O17152   0.202   0.156   6.860
 5637WAT     H117153   0.285   0.191   6.817
 5637WAT     H217154   0.134   0.136   6.790
 5638WAT      O17155   9.551   2.038   3.041
 5638WAT     H117156   9.622   2.077   2.982
 5638WAT     H217157   9.554   1.938   3.035
 5639WAT      O17158   0.429   8.622   0.203
 5639WAT     H117159   0.501   8.686   0.227
 5639WAT     H217160   0.341   8.670   0.202
 5640WAT      O17161   8.181   4.336   2.843
 5640WAT     H117162   8.224   4.352   2.754
 5640WAT     H217163   8.118   4.259   2.836
 5641WAT      O17164   7.090   4.942   7.402
 5641WAT     H117165   7.045   4.870   7.350
 5641WAT     H217166   7.180   4.910   7.432
 5642WAT      O17167   8.082   5.186   9.673
 5642WAT     H117168   8.094   5.272   9.723
 5642WAT     H217169   8.139   5.187   9.591
 5643WAT      O17170   7.558   5.183   9.622
 5643WAT     H117171   7.656   5.173   9.602
 5643WAT     H217172   7.524   5.267   9.580
 5644WAT      O17173   4.169   5.359   7.291
 5644WAT     H117174   4.255   5.308   7.291
 5644WAT     H217175   4.180   5.443   7.343
 5645WAT      O17176   4.167   9.173   2.931
 5645WAT     H117177   4.081   9.213   2.960
 5645WAT     H217178   4.209   9.124   3.007
 5646WAT      O17179   5.026   1.666   7.856
 5646WAT     H117180   4.973   1.640   7.775
 5646WAT     H217181   4.965   1.676   7.934
 5647WAT      O17182   0.135   2.154   1.994
 5647WAT     H117183   0.232   2.140   2.015
 5647WAT     H217184   0.116   2.252   1.990
 5648WAT      O17185   6.101   2.389   3.983
 5648WAT     H117186   6.175   2.445   3.946
 5648WAT     H217187   6.047   2.444   4.047
 5649WAT      O17188   4.158   7.826   8.800
 5649WAT     H117189   4.081   7.883   8.774
 5649WAT     H217190   4.150   7.801   8.897
 5650WAT      O17191   4.180   3.357   4.906
 5650WAT     H117192   4.081   3.374   4.901
 5650WAT     H217193   4.203   3.328   4.999
 5651WAT      O17194   1.921   8.392   0.384
 5651WAT     H117195   1.989   8.355   0.447
 5651WAT     H217196   1.859   8.453   0.433
 5652WAT      O17197   2.161   0.229   7.494
 5652WAT     H117198   2.234   0.173   7.535
 5652WAT     H217199   2.141   0.306   7.554
 5653WAT      O17200   8.435   9.039   5.359
 5653WAT     H117201   8.493   8.997   5.430
 5653WAT     H217202   8.460   9.136   5.350
 5654WAT      O17203   3.567   7.558   8.828
 5654WAT     H117204   3.552   7.601   8.739
 5654WAT     H217205   3.631   7.613   8.882
 5655WAT      O17206   7.356   9.467   7.364
 5655WAT     H117207   7.373   9.506   7.274
 5655WAT     H217208   7.281   9.516   7.409
 5656WAT      O17209   0.257   3.509   6.390
 5656WAT     H117210   0.346   3.515   6.436
 5656WAT     H217211   0.268   3.464   6.302
 5657WAT      O17212   0.192   2.382   7.947
 5657WAT     H117213   0.287   2.355   7.957
 5657WAT     H217214   0.184   2.481   7.955
 5658WAT      O17215   5.196   9.321   0.768
 5658WAT     H117216   5.131   9.245   0.759
 5658WAT     H217217   5.167   9.380   0.843
 5659WAT      O17218   1.839   7.969   7.264
 5659WAT     H117219   1.922   7.913   7.270
 5659WAT     H217220   1.865   8.066   7.254
 5660WAT      O17221   7.592   1.855   8.616
 5660WAT     H117222   7.504   1.898   8.597
 5660WAT     H217223   7.638   1.904   8.691
 5661WAT      O17224   0.610   8.510   7.680
 5661WAT     H117225   0.577   8.417   7.698
 5661WAT     H217226   0.533   8.574   7.678
 5662WAT      O17227   7.082   9.279   7.402
 5662WAT     H117228   7.105   9.348   7.333
 5662WAT     H217229   7.158   9.215   7.411
 5663WAT      O17230   8.980   3.651   4.053
 5663WAT     H117231   9.022   3.716   3.990
 5663WAT     H217232   8.888   3.680   4.076
 5664WAT      O17233   3.778   0.389   9.612
 5664WAT     H117234   3.719   0.373   9.691
 5664WAT     H217235   3.724   0.432   9.539
 5665WAT      O17236   4.757   0.205   4.792
 5665WAT     H117237   4.659   0.216   4.809
 5665WAT     H217238   4.777   0.110   4.770
 5666WAT      O17239   7.069   3.770   3.953
 5666WAT     H117240   6.994   3.716   3.915
 5666WAT     H217241   7.088   3.740   4.046
 5667WAT      O17242   6.373   4.924   4.108
 5667WAT     H117243   6.421   4.870   4.178
 5667WAT     H217244   6.280   4.944   4.139
 5668WAT      O17245   0.919   7.281   6.859
 5668WAT     H117246   0.877   7.199   6.896
 5668WAT     H217247   0.879   7.362   6.902
 5669WAT      O17248   2.996   8.555   5.982
 5669WAT     H117249   3.015   8.641   6.029
 5669WAT     H217250   3.074   8.493   5.994
 5670WAT      O17251   2.727   7.659   4.789
 5670WAT     H117252   2.827   7.656   4.780
 5670WAT     H217253   2.695   7.752   4.777
 5671WAT      O17254   0.757   9.302   6.718
 5671WAT     H117255   0.767   9.296   6.818
 5671WAT     H217256   0.684   9.368   6.696
 5672WAT      O17257   3.856   5.241   5.521
 5672WAT     H117258   3.882   5.254   5.425
 5672WAT     H217259   3.756   5.249   5.530
 5673WAT      O17260   1.087   4.008   4.460
 5673WAT     H117261   1.172   4.016   4.513
 5673WAT     H217262   1.020   3.955   4.512
 5674WAT      O17263   1.300   7.592   1.168
 5674WAT     H117264   1.331   7.592   1.073
 5674WAT     H217265   1.250   7.508   1.187
 5675WAT      O17266   6.189   3.270   0.912
 5675WAT     H117267   6.235   3.355   0.938
 5675WAT     H217268   6.112   3.290   0.851
 5676WAT      O17269   7.700   8.874   3.996
 5676WAT     H117270   7.775   8.829   4.044
 5676WAT     H217271   7.653   8.809   3.937
 5677WAT      O17272   9.732   9.077   5.199
 5677WAT     H117273   9.694   9.034   5.117
 5677WAT     H217274   9.677   9.158   5.223
 5678WAT      O17275   6.463   2.744   7.918
 5678WAT     H117276   6.410   2.807   7.975
 5678WAT     H217277   6.560   2.751   7.940
 5679WAT      O17278   4.466   3.340   3.259
 5679WAT     H117279   4.487   3.370   3.166
 5679WAT     H217280   4.477   3.416   3.323
 5680WAT      O17281   6.793   0.636   1.772
 5680WAT     H117282   6.872   0.695   1.754
 5680WAT     H217283   6.820   0.562   1.834
 5681WAT      O17284   7.048   8.115   6.920
 5681WAT     H117285   7.080   8.135   6.827
 5681WAT     H217286   7.021   8.200   6.965
 5682WAT      O17287   6.343   5.087   4.658
 5682WAT     H117288   6.301   5.158   4.601
 5682WAT     H217289   6.350   5.120   4.752
 5683WAT      O17290   1.616   7.486   9.598
 5683WAT     H117291   1.659   7.576   9.599
 5683WAT     H217292   1.675   7.420   9.644
 5684WAT      O17293   7.987   2.596   6.614
 5684WAT     H117294   8.049   2.577   6.537
 5684WAT     H217295   7.964   2.694   6.614
 5685WAT      O17296   7.327   2.356   3.204
 5685WAT     H117297   7.380   2.321   3.281
 5685WAT     H217298   7.263   2.286   3.173
 5686WAT      O17299   5.215   7.081   0.098
 5686WAT     H117300   5.313   7.103   0.100
 5686WAT     H217301   5.184   7.060   0.191
 5687WAT      O17302   6.714   5.343   1.580
 5687WAT     H117303   6.648   5.269   1.589
 5687WAT     H217304   6.695   5.395   1.497
 5688WAT      O17305   1.003   0.019   3.201
 5688WAT     H117306   1.059  -0.038   3.142
 5688WAT     H217307   0.981  -0.030   3.285
 5689WAT      O17308   8.847   4.940   2.738
 5689WAT     H117309   8.787   4.961   2.661
 5689WAT     H217310   8.797   4.953   2.824
 5690WAT      O17311   7.389   7.535   7.857
 5690WAT     H117312   7.436   7.533   7.769
 5690WAT     H217313   7.453   7.564   7.928
 5691WAT      O17314   2.519   1.291   2.481
 5691WAT     H117315   2.606   1.241   2.473
 5691WAT     H217316   2.537   1.389   2.473
 5692WAT      O17317   2.706   0.142   0.211
 5692WAT     H117318   2.649   0.219   0.242
 5692WAT     H217319   2.789   0.140   0.266
 5693WAT      O17320   5.566   1.243   7.557
 5693WAT     H117321   5.636   1.185   7.516
 5693WAT     H217322   5.607   1.330   7.584
 5694WAT      O17323   7.806   1.849   2.010
 5694WAT     H117324   7.863   1.782   1.963
 5694WAT     H217325   7.825   1.846   2.108
 5695WAT      O17326   0.476   1.526   5.608
 5695WAT     H117327   0.508   1.513   5.702
 5695WAT     H217328   0.408   1.457   5.586
 5696WAT      O17329   4.535   3.039   2.173
 5696WAT     H117330   4.575   2.999   2.256
 5696WAT     H217331   4.601   3.036   2.099
 5697WAT      O17332   5.121   5.155   0.649
 5697WAT     H117333   5.185   5.155   0.572
 5697WAT     H217334   5.082   5.063   0.660
 5698WAT      O17335   3.829   2.148   1.192
 5698WAT     H117336   3.899   2.172   1.260
 5698WAT     H217337   3.738   2.156   1.234
 5699WAT      O17338   3.880   6.321   1.956
 5699WAT     H117339   3.786   6.287   1.956
 5699WAT     H217340   3.939   6.256   2.003
 5700WAT      O17341   9.101   5.228   1.852
 5700WAT     H117342   9.022   5.273   1.811
 5700WAT     H217343   9.070   5.148   1.904
 5701WAT      O17344   1.581   0.849   6.726
 5701WAT     H117345   1.526   0.891   6.654
 5701WAT     H217346   1.634   0.773   6.688
 5702WAT      O17347   5.508   0.229   3.574
 5702WAT     H117348   5.489   0.324   3.599
 5702WAT     H217349   5.605   0.210   3.585
 5703WAT      O17350   5.814   4.293   7.991
 5703WAT     H117351   5.725   4.332   8.015
 5703WAT     H217352   5.843   4.230   8.063
 5704WAT      O17353   7.463   0.944   0.226
 5704WAT     H117354   7.512   0.928   0.141
 5704WAT     H217355   7.434   0.857   0.265
 5705WAT      O17356   1.221   4.732   5.400
 5705WAT     H117357   1.202   4.817   5.449
 5705WAT     H217358   1.212   4.748   5.301
 5706WAT      O17359   0.675   1.799   1.438
 5706WAT     H117360   0.666   1.886   1.389
 5706WAT     H217361   0.755   1.802   1.497
 5707WAT      O17362   9.430   3.326   9.714
 5707WAT     H117363   9.525   3.348   9.691
 5707WAT     H217364   9.422   3.314   9.813
 5708WAT      O17365   1.952   8.853   6.151
 5708WAT     H117366   2.007   8.779   6.113
 5708WAT     H217367   1.883   8.881   6.085
 5709WAT      O17368   5.528   3.583   9.320
 5709WAT     H117369   5.465   3.657   9.295
 5709WAT     H217370   5.529   3.572   9.419
 5710WAT      O17371   5.324   5.789   9.028
 5710WAT     H117372   5.338   5.691   9.013
 5710WAT     H217373   5.291   5.831   8.943
 5711WAT      O17374   1.652   0.096   6.732
 5711WAT     H117375   1.700   0.105   6.645
 5711WAT     H217376   1.710   0.128   6.806
 5712WAT      O17377   2.680   9.523   9.724
 5712WAT     H117378   2.690   9.424   9.730
 5712WAT     H217379   2.735   9.566   9.796
 5713WAT      O17380   0.561   2.014   9.838
 5713WAT     H117381   0.603   1.980   9.754
 5713WAT     H217382   0.612   1.980   9.917
 5714WAT      O17383   7.284   1.387   2.783
 5714WAT     H117384   7.193   1.422   2.804
 5714WAT     H217385   7.339   1.384   2.866
 5715WAT      O17386   0.925   8.916   6.839
 5715WAT     H117387   0.905   8.958   6.750
 5715WAT     H217388   0.941   8.818   6.826
 5716WAT      O17389   8.396   0.399   1.088
 5716WAT     H117390   8.328   0.463   1.124
 5716WAT     H217391   8.482   0.409   1.137
 5717WAT      O17392   6.657   6.507   1.431
 5717WAT     H117393   6.678   6.415   1.464
 5717WAT     H217394   6.624   6.564   1.506
 5718WAT      O17395   3.510   8.776   0.753
 5718WAT     H117396   3.485   8.748   0.846
 5718WAT     H217397   3.608   8.761   0.739
 5719WAT      O17398   1.546   0.254   1.338
 5719WAT     H117399   1.567   0.159   1.361
 5719WAT     H217400   1.458   0.258   1.289
 5720WAT      O17401   9.746   0.107   2.637
 5720WAT     H117402   9.681   0.091   2.711
 5720WAT     H217403   9.698   0.104   2.549
 5721WAT      O17404   6.711   0.848   6.980
 5721WAT     H117405   6.803   0.829   6.947
 5721WAT     H217406   6.691   0.946   6.970
 5722WAT      O17407   1.326   4.954   1.811
 5722WAT     H117408   1.236   4.915   1.830
 5722WAT     H217409   1.373   4.972   1.897
 5723WAT      O17410   7.236   7.623   3.665
 5723WAT     H117411   7.256   7.617   3.567
 5723WAT     H217412   7.147   7.580   3.683
 5724WAT      O17413   5.694   9.764   5.994
 5724WAT     H117414   5.665   9.849   5.949
 5724WAT     H217415   5.659   9.685   5.944
 5725WAT      O17416   7.463   7.408   5.397
 5725WAT     H117417   7.554   7.376   5.370
 5725WAT     H217418   7.445   7.381   5.492
 5726WAT      O17419   0.594   1.175   3.663
 5726WAT     H117420   0.587   1.145   3.758
 5726WAT     H217421   0.664   1.246   3.655
 5727WAT      O17422   4.221   3.010   5.908
 5727WAT     H117423   4.209   3.109   5.914
 5727WAT     H217424   4.215   2.981   5.813
 5728WAT      O17425   8.039   8.301   7.730
 5728WAT     H117426   8.034   8.202   7.744
 5728WAT     H217427   8.075   8.320   7.639
 5729WAT      O17428   0.854   6.935   5.593
 5729WAT     H117429   0.774   6.886   5.558
 5729WAT     H217430   0.875   6.902   5.685
 5730WAT      O17431   9.529   8.355   3.853
 5730WAT     H117432   9.437   8.321   3.830
 5730WAT     H217433   9.564   8.306   3.932
 5731WAT      O17434   9.302   2.935   0.034
 5731WAT     H117435   9.224   2.995   0.047
 5731WAT     H217436   9.353   2.964  -0.047
 5732WAT      O17437   1.874   0.996   1.813
 5732WAT     H117438   1.848   0.911   1.767
 5732WAT     H217439   1.949   1.039   1.763
 5733WAT      O17440   0.492   5.761   1.547
 5733WAT     H117441   0.435   5.835   1.583
 5733WAT     H217442   0.577   5.756   1.600
 5734WAT      O17443   5.338   7.725   6.945
 5734WAT     H117444   5.331   7.824   6.932
 5734WAT     H217445   5.270   7.679   6.887
 5735WAT      O17446   4.306   5.241   8.504
 5735WAT     H117447   4.337   5.234   8.599
 5735WAT     H217448   4.245   5.164   8.483
 5736WAT      O17449   5.174   2.966   9.359
 5736WAT     H117450   5.202   3.058   9.388
 5736WAT     H217451   5.142   2.915   9.439
 5737WAT      O17452   1.586   5.509   9.424
 5737WAT     H117453   1.576   5.593   9.478
 5737WAT     H217454   1.573   5.529   9.327
 5738WAT      O17455   7.030   9.616   4.344
 5738WAT     H117456   7.074   9.528   4.358
 5738WAT     H217457   6.992   9.649   4.430
 5739WAT      O17458   4.597   5.496   0.810
 5739WAT     H117459   4.649   5.575   0.776
 5739WAT     H217460   4.653   5.414   0.802
 5740WAT      O17461   3.049   9.095   2.142
 5740WAT     H117462   3.130   9.038   2.127
 5740WAT     H217463   3.075   9.178   2.192
 5741WAT      O17464   8.823   8.017   7.144
 5741WAT     H117465   8.889   7.973   7.083
 5741WAT     H217466   8.851   8.112   7.160
 5742WAT      O17467   0.988   0.963   8.903
 5742WAT     H117468   1.043   1.025   8.847
 5742WAT     H217469   0.982   1.000   8.996
 5743WAT      O17470   9.316   6.134   6.860
 5743WAT     H117471   9.354   6.046   6.832
 5743WAT     H217472   9.382   6.206   6.838
 5744WAT      O17473   0.491   9.324   2.142
 5744WAT     H117474   0.437   9.408   2.150
 5744WAT     H217475   0.466   9.261   2.216
 5745WAT      O17476   8.425   2.420   7.979
 5745WAT     H117477   8.348   2.472   7.942
 5745WAT     H217478   8.393   2.330   8.009
 5746WAT      O17479   8.581   3.138   4.932
 5746WAT     H117480   8.639   3.215   4.959
 5746WAT     H217481   8.634   3.077   4.872
 5747WAT      O17482   1.994   7.537   0.227
 5747WAT     H117483   1.967   7.611   0.289
 5747WAT     H217484   1.938   7.541   0.145
 5748WAT      O17485   8.581   8.625   6.140
 5748WAT     H117486   8.638   8.677   6.077
 5748WAT     H217487   8.612   8.530   6.141
 5749WAT      O17488   8.806   9.755   3.711
 5749WAT     H117489   8.878   9.700   3.669
 5749WAT     H217490   8.737   9.694   3.750
 5750WAT      O17491   0.700   1.900   0.414
 5750WAT     H117492   0.752   1.958   0.352
 5750WAT     H217493   0.762   1.853   0.477
 5751WAT      O17494   0.143   4.243   5.537
 5751WAT     H117495   0.171   4.199   5.622
 5751WAT     H217496   0.057   4.293   5.552
 5752WAT      O17497   8.375   3.043   5.981
 5752WAT     H117498   8.451   3.080   6.035
 5752WAT     H217499   8.326   2.974   6.035
 5753WAT      O17500   2.650   7.149   7.345
 5753WAT     H117501   2.679   7.058   7.313
 5753WAT     H217502   2.558   7.168   7.310
 5754WAT      O17503   4.740   1.926   1.266
 5754WAT     H117504   4.766   1.917   1.362
 5754WAT     H217505   4.674   1.855   1.242
 5755WAT      O17506   2.609   2.115   8.439
 5755WAT     H117507   2.681   2.095   8.372
 5755WAT     H217508   2.573   2.207   8.423
 5756WAT      O17509   8.854   2.892   6.797
 5756WAT     H117510   8.915   2.835   6.742
 5756WAT     H217511   8.907   2.942   6.865
 5757WAT      O17512   1.187   7.073   4.737
 5757WAT     H117513   1.222   7.066   4.831
 5757WAT     H217514   1.247   7.133   4.684
 5758WAT      O17515   6.988   6.708   5.630
 5758WAT     H117516   6.935   6.768   5.691
 5758WAT     H217517   6.997   6.752   5.541
 5759WAT      O17518   4.361   6.844   3.686
 5759WAT     H117519   4.431   6.790   3.731
 5759WAT     H217520   4.382   6.853   3.588
 5760WAT      O17521   8.636   8.913   2.385
 5760WAT     H117522   8.573   8.892   2.310
 5760WAT     H217523   8.600   8.988   2.440
 5761WAT      O17524   7.571   3.745   6.328
 5761WAT     H117525   7.608   3.822   6.380
 5761WAT     H217526   7.472   3.755   6.319
 5762WAT      O17527   7.726   9.770   1.713
 5762WAT     H117528   7.786   9.776   1.793
 5762WAT     H217529   7.672   9.855   1.706
 5763WAT      O17530   1.787   3.668   9.500
 5763WAT     H117531   1.740   3.701   9.418
 5763WAT     H217532   1.886   3.678   9.489
 5764WAT      O17533   3.911   7.212   3.090
 5764WAT     H117534   3.910   7.290   3.152
 5764WAT     H217535   4.005   7.193   3.061
 5765WAT      O17536   2.631   7.792   2.182
 5765WAT     H117537   2.657   7.850   2.259
 5765WAT     H217538   2.585   7.710   2.217
 5766WAT      O17539   8.734   0.722   2.667
 5766WAT     H117540   8.705   0.785   2.595
 5766WAT     H217541   8.700   0.630   2.646
 5767WAT      O17542   1.485   6.401   3.915
 5767WAT     H117543   1.461   6.418   3.820
 5767WAT     H217544   1.458   6.480   3.971
 5768WAT      O17545   1.660   8.156   5.331
 5768WAT     H117546   1.612   8.091   5.390
 5768WAT     H217547   1.748   8.117   5.303
 5769WAT      O17548   7.626   1.143   3.018
 5769WAT     H117549   7.559   1.094   3.074
 5769WAT     H217550   7.712   1.091   3.017
 5770WAT      O17551   2.844   6.757   0.212
 5770WAT     H117552   2.840   6.669   0.259
 5770WAT     H217553   2.795   6.749   0.125
 5771WAT      O17554   8.841   4.984   0.785
 5771WAT     H117555   8.796   4.995   0.874
 5771WAT     H217556   8.893   5.067   0.764
 5772WAT      O17557   9.862   4.363   5.270
 5772WAT     H117558   9.847   4.264   5.259
 5772WAT     H217559   9.830   4.392   5.360
 5773WAT      O17560   0.538   6.167   9.842
 5773WAT     H117561   0.630   6.162   9.804
 5773WAT     H217562   0.479   6.217   9.779
 5774WAT      O17563   3.566   0.786   9.370
 5774WAT     H117564   3.599   0.866   9.420
 5774WAT     H217565   3.505   0.815   9.296
 5775WAT      O17566   9.467   4.706   2.466
 5775WAT     H117567   9.463   4.671   2.559
 5775WAT     H217568   9.546   4.767   2.457
 5776WAT      O17569   3.489   0.839   3.906
 5776WAT     H117570   3.420   0.806   3.971
 5776WAT     H217571   3.570   0.868   3.957
 5777WAT      O17572   9.860   6.790   5.446
 5777WAT     H117573   9.809   6.749   5.522
 5777WAT     H217574   9.864   6.725   5.370
 5778WAT      O17575   1.019   9.474   5.337
 5778WAT     H117576   1.035   9.530   5.256
 5778WAT     H217577   1.094   9.408   5.348
 5779WAT      O17578   6.428   6.196   2.493
 5779WAT     H117579   6.475   6.229   2.575
 5779WAT     H217580   6.491   6.142   2.438
 5780WAT      O17581   1.557   5.858   5.251
 5780WAT     H117582   1.518   5.863   5.343
 5780WAT     H217583   1.657   5.847   5.258
 5781WAT      O17584   1.834   1.569   6.000
 5781WAT     H117585   1.873   1.616   6.079
 5781WAT     H217586   1.749   1.616   5.973
 5782WAT      O17587   1.879   6.256   1.315
 5782WAT     H117588   1.802   6.194   1.332
 5782WAT     H217589   1.884   6.325   1.387
 5783WAT      O17590   6.739   5.101   4.702
 5783WAT     H117591   6.689   5.101   4.615
 5783WAT     H217592   6.681   5.064   4.774
 5784WAT      O17593   3.915   0.720   7.401
 5784WAT     H117594   3.959   0.704   7.313
 5784WAT     H217595   3.980   0.701   7.475
 5785WAT      O17596   1.711   1.415   9.789
 5785WAT     H117597   1.642   1.350   9.756
 5785WAT     H217598   1.745   1.385   9.878
 5786WAT      O17599   1.525   4.272   6.665
 5786WAT     H117600   1.574   4.356   6.689
 5786WAT     H217601   1.426   4.288   6.670
 5787WAT      O17602   1.864   0.088   6.996
 5787WAT     H117603   1.954   0.074   7.038
 5787WAT     H217604   1.796   0.034   7.046
 5788WAT      O17605   1.073   9.820   6.473
 5788WAT     H117606   1.161   9.848   6.435
 5788WAT     H217607   1.014   9.788   6.400
 5789WAT      O17608   4.157   6.550   0.056
 5789WAT     H117609   4.207   6.552   0.142
 5789WAT     H217610   4.133   6.643   0.029
 5790WAT      O17611   8.003   5.616   2.327
 5790WAT     H117612   8.058   5.549   2.276
 5790WAT     H217613   8.047   5.635   2.415
 5791WAT      O17614   4.384   7.877   8.214
 5791WAT     H117615   4.390   7.782   8.185
 5791WAT     H217616   4.476   7.911   8.236
 5792WAT      O17617   2.927   7.103   9.794
 5792WAT     H117618   2.832   7.133   9.806
 5792WAT     H217619   2.939   7.066   9.702
 5793WAT      O17620   1.995   2.350   9.760
 5793WAT     H117621   1.988   2.296   9.843
 5793WAT     H217622   1.904   2.371   9.726
 5794WAT      O17623   0.475   3.741   8.456
 5794WAT     H117624   0.427   3.653   8.460
 5794WAT     H217625   0.571   3.725   8.432
 5795WAT      O17626   8.101   8.947   7.784
 5795WAT     H117627   8.105   8.977   7.689
 5795WAT     H217628   8.006   8.928   7.809
 5796WAT      O17629   9.843   7.061   8.970
 5796WAT     H117630   9.784   7.070   8.889
 5796WAT     H217631   9.805   6.991   9.031
 5797WAT      O17632   4.951   2.633   9.101
 5797WAT     H117633   4.897   2.709   9.067
 5797WAT     H217634   4.955   2.636   9.201
 5798WAT      O17635   6.288   7.427   2.135
 5798WAT     H117636   6.262   7.394   2.226
 5798WAT     H217637   6.222   7.394   2.068
 5799WAT      O17638   2.070   3.718   9.529
 5799WAT     H117639   2.112   3.782   9.593
 5799WAT     H217640   2.107   3.626   9.546
 5800WAT      O17641   6.008   2.609   4.140
 5800WAT     H117642   5.918   2.620   4.098
 5800WAT     H217643   6.048   2.700   4.157
 5801WAT      O17644   4.651   4.019   0.864
 5801WAT     H117645   4.560   4.024   0.906
 5801WAT     H217646   4.644   4.045   0.767
 5802WAT      O17647   7.805   4.701   1.941
 5802WAT     H117648   7.838   4.790   1.972
 5802WAT     H217649   7.863   4.668   1.867
 5803WAT      O17650   4.762   2.312   3.330
 5803WAT     H117651   4.697   2.349   3.397
 5803WAT     H217652   4.852   2.351   3.347
 5804WAT      O17653   9.621   2.284   7.124
 5804WAT     H117654   9.616   2.270   7.223
 5804WAT     H217655   9.712   2.317   7.099
 5805WAT      O17656   0.029   8.930   9.695
 5805WAT     H117657  -0.055   8.885   9.665
 5805WAT     H217658   0.008   9.000   9.763
 5806WAT      O17659   3.441   5.115   1.736
 5806WAT     H117660   3.478   5.047   1.799
 5806WAT     H217661   3.507   5.133   1.664
 5807WAT      O17662   4.909   6.467   7.916
 5807WAT     H117663   4.880   6.462   8.012
 5807WAT     H217664   5.007   6.486   7.912
 5808WAT      O17665   1.034   2.919   8.346
 5808WAT     H117666   0.977   2.983   8.397
 5808WAT     H217667   1.006   2.918   8.250
 5809WAT      O17668   2.391   1.658   5.350
 5809WAT     H117669   2.475   1.631   5.303
 5809WAT     H217670   2.343   1.727   5.296
 5810WAT      O17671   4.976   0.494   3.334
 5810WAT     H117672   5.030   0.466   3.255
 5810WAT     H217673   5.037   0.518   3.409
 5811WAT      O17674   8.587   7.627   0.100
 5811WAT     H117675   8.499   7.675   0.102
 5811WAT     H217676   8.575   7.533   0.133
 5812WAT      O17677   4.397   8.777   5.450
 5812WAT     H117678   4.324   8.841   5.427
 5812WAT     H217679   4.409   8.711   5.375
 5813WAT      O17680   4.623   8.955   2.556
 5813WAT     H117681   4.627   8.878   2.493
 5813WAT     H217682   4.650   9.039   2.507
 5814WAT      O17683   4.133   5.254   3.525
 5814WAT     H117684   4.121   5.265   3.426
 5814WAT     H217685   4.102   5.163   3.553
 5815WAT      O17686   9.083   4.627   7.540
 5815WAT     H117687   9.165   4.660   7.494
 5815WAT     H217688   9.031   4.705   7.576
 5816WAT      O17689   7.169   0.603   4.551
 5816WAT     H117690   7.147   0.525   4.609
 5816WAT     H217691   7.164   0.688   4.604
 5817WAT      O17692   1.077   8.615   9.421
 5817WAT     H117693   1.140   8.592   9.347
 5817WAT     H217694   1.021   8.693   9.393
 5818WAT      O17695   0.157   0.667   5.987
 5818WAT     H117696   0.185   0.676   6.082
 5818WAT     H217697   0.214   0.726   5.930
 5819WAT      O17698   1.047   0.620   2.162
 5819WAT     H117699   1.093   0.670   2.089
 5819WAT     H217700   1.060   0.668   2.249
 5820WAT      O17701   0.253   4.533   1.277
 5820WAT     H117702   0.297   4.449   1.245
 5820WAT     H217703   0.229   4.523   1.374
 5821WAT      O17704   1.580   4.013   8.789
 5821WAT     H117705   1.633   3.962   8.722
 5821WAT     H217706   1.486   3.979   8.790
 5822WAT      O17707   7.074   7.275   0.932
 5822WAT     H117708   7.032   7.309   0.848
 5822WAT     H217709   7.071   7.347   1.002
 5823WAT      O17710   4.229   7.288   4.382
 5823WAT     H117711   4.281   7.250   4.459
 5823WAT     H217712   4.217   7.218   4.312
 5824WAT      O17713   9.016   7.651   3.480
 5824WAT     H117714   9.084   7.646   3.407
 5824WAT     H217715   8.929   7.612   3.448
 5825WAT      O17716   6.817   7.915   1.983
 5825WAT     H117717   6.765   7.892   1.901
 5825WAT     H217718   6.896   7.855   1.991
 5826WAT      O17719   4.284   1.463   3.271
 5826WAT     H117720   4.296   1.496   3.177
 5826WAT     H217721   4.191   1.483   3.302
 5827WAT      O17722   2.056   1.733   6.956
 5827WAT     H117723   2.103   1.786   7.027
 5827WAT     H217724   2.115   1.726   6.876
 5828WAT      O17725   6.102   3.551   3.950
 5828WAT     H117726   6.060   3.636   3.919
 5828WAT     H217727   6.104   3.485   3.874
 5829WAT      O17728   5.320   3.789   0.499
 5829WAT     H117729   5.288   3.805   0.405
 5829WAT     H217730   5.408   3.740   0.496
 5830WAT      O17731   2.986   8.100   8.346
 5830WAT     H117732   3.077   8.069   8.320
 5830WAT     H217733   2.951   8.042   8.421
 5831WAT      O17734   9.884   5.051   8.879
 5831WAT     H117735   9.912   5.146   8.893
 5831WAT     H217736   9.811   5.048   8.810
 5832WAT      O17737   6.265   2.335   2.517
 5832WAT     H117738   6.309   2.285   2.591
 5832WAT     H217739   6.336   2.377   2.459
 5833WAT      O17740   0.932   8.140   9.442
 5833WAT     H117741   0.868   8.097   9.506
 5833WAT     H217742   1.023   8.142   9.482
 5834WAT      O17743   0.612   3.289   7.633
 5834WAT     H117744   0.688   3.237   7.595
 5834WAT     H217745   0.527   3.262   7.586
 5835WAT      O17746   3.073   0.747   5.640
 5835WAT     H117747   3.136   0.764   5.564
 5835WAT     H217748   3.122   0.704   5.715
 5836WAT      O17749   0.041   3.328   1.789
 5836WAT     H117750   0.128   3.374   1.768
 5836WAT     H217751   0.049   3.231   1.767
 5837WAT      O17752   9.189   2.376   5.208
 5837WAT     H117753   9.282   2.361   5.173
 5837WAT     H217754   9.178   2.329   5.296
 5838WAT      O17755   1.174   8.905   7.844
 5838WAT     H117756   1.126   8.882   7.759
 5838WAT     H217757   1.241   8.834   7.865
 5839WAT      O17758   9.521   8.043   0.299
 5839WAT     H117759   9.452   8.011   0.364
 5839WAT     H217760   9.598   7.979   0.297
 5840WAT      O17761   1.301   0.317   3.102
 5840WAT     H117762   1.221   0.335   3.044
 5840WAT     H217763   1.302   0.381   3.179
 5841WAT      O17764   6.098   2.381   1.193
 5841WAT     H117765   6.154   2.404   1.273
 5841WAT     H217766   6.051   2.463   1.161
 5842WAT      O17767   0.472   0.738   4.298
 5842WAT     H117768   0.546   0.675   4.272
 5842WAT     H217769   0.389   0.686   4.317
 5843WAT      O17770   7.115   5.494   9.820
 5843WAT     H117771   7.113   5.497   9.920
 5843WAT     H217772   7.112   5.587   9.783
 5844WAT      O17773   4.764   5.945   6.933
 5844WAT     H117774   4.856   5.909   6.924
 5844WAT     H217775   4.698   5.881   6.893
 5845WAT      O17776   3.326   2.114   4.506
 5845WAT     H117777   3.342   2.142   4.411
 5845WAT     H217778   3.380   2.033   4.526
 5846WAT      O17779   4.837   9.023   3.816
 5846WAT     H117780   4.867   8.929   3.831
 5846WAT     H217781   4.756   9.041   3.873
 5847WAT      O17782   4.025   6.428   1.174
 5847WAT     H117783   4.062   6.349   1.224
 5847WAT     H217784   4.098   6.473   1.123
 5848WAT      O17785   0.379   9.266   9.057
 5848WAT     H117786   0.398   9.184   9.004
 5848WAT     H217787   0.441   9.340   9.030
 5849WAT      O17788   5.229   8.298   4.632
 5849WAT     H117789   5.320   8.296   4.674
 5849WAT     H217790   5.161   8.324   4.700
 5850WAT      O17791   7.212   9.766   5.163
 5850WAT     H117792   7.258   9.777   5.251
 5850WAT     H217793   7.181   9.855   5.130
 5851WAT      O17794   0.232   5.735   0.634
 5851WAT     H117795   0.202   5.738   0.730
 5851WAT     H217796   0.155   5.756   0.574
 5852WAT      O17797   9.406   6.107   7.121
 5852WAT     H117798   9.314   6.091   7.154
 5852WAT     H217799   9.406   6.107   7.021
 5853WAT      O17800   2.276   6.880   0.259
 5853WAT     H117801   2.186   6.842   0.238
 5853WAT     H217802   2.268   6.978   0.274
 5854WAT      O17803   0.710   3.127   3.107
 5854WAT     H117804   0.791   3.071   3.087
 5854WAT     H217805   0.728   3.222   3.082
 5855WAT      O17806   6.744   6.284   2.901
 5855WAT     H117807   6.700   6.249   2.984
 5855WAT     H217808   6.697   6.367   2.871
 5856WAT      O17809   4.651   5.069   3.210
 5856WAT     H117810   4.606   5.110   3.131
 5856WAT     H217811   4.653   5.134   3.285
 5857WAT      O17812   4.855   3.834   9.008
 5857WAT     H117813   4.950   3.827   9.037
 5857WAT     H217814   4.815   3.742   9.003
 5858WAT      O17815   8.676   7.716   1.572
 5858WAT     H117816   8.595   7.774   1.569
 5858WAT     H217817   8.756   7.772   1.595
 5859WAT      O17818   9.804   0.222   8.918
 5859WAT     H117819   9.903   0.240   8.919
 5859WAT     H217820   9.755   0.305   8.892
 5860WAT      O17821   9.616   9.509   0.542
 5860WAT     H117822   9.587   9.604   0.547
 5860WAT     H217823   9.555   9.453   0.599
 5861WAT      O17824   8.823   0.273   2.929
 5861WAT     H117825   8.813   0.178   2.959
 5861WAT     H217826   8.781   0.283   2.839
 5862WAT      O17827   6.208   9.780   8.519
 5862WAT     H117828   6.267   9.704   8.545
 5862WAT     H217829   6.132   9.788   8.584
 5863WAT      O17830   8.450   0.710   8.357
 5863WAT     H117831   8.545   0.705   8.387
 5863WAT     H217832   8.442   0.775   8.282
 5864WAT      O17833   5.538   9.763   3.566
 5864WAT     H117834   5.630   9.741   3.598
 5864WAT     H217835   5.517   9.858   3.588
 5865WAT      O17836   7.271   6.835   5.193
 5865WAT     H117837   7.291   6.929   5.166
 5865WAT     H217838   7.221   6.789   5.119
 5866WAT      O17839   1.520   2.001   1.142
 5866WAT     H117840   1.452   1.929   1.152
 5866WAT     H217841   1.605   1.961   1.106
 5867WAT      O17842   3.542   8.721   6.956
 5867WAT     H117843   3.582   8.720   7.047
 5867WAT     H217844   3.568   8.638   6.907
 5868WAT      O17845   4.550   3.613   3.382
 5868WAT     H117846   4.648   3.624   3.371
 5868WAT     H217847   4.504   3.628   3.294
 5869WAT      O17848   3.735   3.895   0.818
 5869WAT     H117849   3.671   3.914   0.743
 5869WAT     H217850   3.825   3.933   0.795
 5870WAT      O17851   5.114   9.739   0.234
 5870WAT     H117852   5.060   9.765   0.314
 5870WAT     H217853   5.205   9.778   0.242
 5871WAT      O17854   4.016   6.219   6.874
 5871WAT     H117855   3.972   6.297   6.919
 5871WAT     H217856   4.096   6.250   6.823
 5872WAT      O17857   7.278   8.444   5.204
 5872WAT     H117858   7.200   8.492   5.164
 5872WAT     H217859   7.363   8.487   5.174
 5873WAT      O17860   5.835   3.071   4.201
 5873WAT     H117861   5.854   3.121   4.285
 5873WAT     H217862   5.837   2.972   4.219
 5874WAT      O17863   7.635   6.712   3.895
 5874WAT     H117864   7.540   6.717   3.926
 5874WAT     H217865   7.647   6.774   3.817
 5875WAT      O17866   6.629   8.927   2.412
 5875WAT     H117867   6.717   8.966   2.438
 5875WAT     H217868   6.589   8.983   2.339
 5876WAT      O17869   5.837   6.687   8.982
 5876WAT     H117870   5.889   6.764   8.948
 5876WAT     H217871   5.750   6.680   8.933
 5877WAT      O17872   4.100   2.106   6.723
 5877WAT     H117873   4.116   2.181   6.659
 5877WAT     H217874   4.086   2.144   6.815
 5878WAT      O17875   2.232   3.887   3.379
 5878WAT     H117876   2.273   3.853   3.295
 5878WAT     H217877   2.199   3.981   3.364
 5879WAT      O17878   2.481   7.827   0.258
 5879WAT     H117879   2.397   7.775   0.272
 5879WAT     H217880   2.550   7.796   0.323
 5880WAT      O17881   8.159   4.658   1.322
 5880WAT     H117882   8.177   4.612   1.410
 5880WAT     H217883   8.137   4.589   1.253
 5881WAT      O17884   6.149   9.647   8.863
 5881WAT     H117885   6.202   9.713   8.916
 5881WAT     H217886   6.087   9.695   8.801
 5882WAT      O17887   1.388   3.087   9.441
 5882WAT     H117888   1.411   2.998   9.402
 5882WAT     H217889   1.472   3.139   9.457
 5883WAT      O17890   7.983   5.374   3.936
 5883WAT     H117891   7.944   5.418   4.017
 5883WAT     H217892   8.034   5.442   3.883
 5884WAT      O17893   2.900   1.324   3.852
 5884WAT     H117894   2.830   1.386   3.888
 5884WAT     H217895   2.944   1.367   3.773
 5885WAT      O17896   7.133   4.834   9.480
 5885WAT     H117897   7.158   4.790   9.394
 5885WAT     H217898   7.037   4.816   9.500
 5886WAT      O17899   9.755   9.732   6.627
 5886WAT     H117900   9.760   9.677   6.543
 5886WAT     H217901   9.690   9.806   6.614
 5887WAT      O17902   5.985   2.104   8.741
 5887WAT     H117903   5.949   2.170   8.675
 5887WAT     H217904   5.970   2.012   8.707
 5888WAT      O17905   2.542   4.712   2.621
 5888WAT     H117906   2.637   4.726   2.590
 5888WAT     H217907   2.529   4.617   2.648
 5889WAT      O17908   9.553   3.639   0.445
 5889WAT     H117909   9.548   3.543   0.474
 5889WAT     H217910   9.461   3.679   0.447
 5890WAT      O17911   2.887   6.757   6.498
 5890WAT     H117912   2.849   6.850   6.494
 5890WAT     H217913   2.926   6.734   6.409
 5891WAT      O17914   4.147   1.440   8.938
 5891WAT     H117915   4.056   1.468   8.970
 5891WAT     H217916   4.215   1.508   8.967
 5892WAT      O17917   8.696   5.099   4.151
 5892WAT     H117918   8.703   5.191   4.111
 5892WAT     H217919   8.741   5.098   4.240
 5893WAT      O17920   5.717   3.487   2.762
 5893WAT     H117921   5.620   3.470   2.745
 5893WAT     H217922   5.727   3.549   2.840
 5894WAT      O17923   3.533   7.034   8.275
 5894WAT     H117924   3.469   7.106   8.299
 5894WAT     H217925   3.620   7.050   8.322
 5895WAT      O17926   1.506   4.551   3.266
 5895WAT     H117927   1.537   4.621   3.330
 5895WAT     H217928   1.442   4.490   3.312
 5896WAT      O17929   6.320   1.684   6.318
 5896WAT     H117930   6.284   1.594   6.295
 5896WAT     H217931   6.418   1.687   6.295
 5897WAT      O17932   4.487   8.350   2.083
 5897WAT     H117933   4.445   8.262   2.061
 5897WAT     H217934   4.517   8.350   2.179
 5898WAT      O17935   9.396   6.618   4.738
 5898WAT     H117936   9.361   6.629   4.645
 5898WAT     H217937   9.383   6.703   4.789
 5899WAT      O17938   9.157   4.951   3.859
 5899WAT     H117939   9.109   4.899   3.930
 5899WAT     H217940   9.209   5.026   3.901
 5900WAT      O17941   6.976   5.563   8.278
 5900WAT     H117942   7.012   5.655   8.296
 5900WAT     H217943   7.027   5.496   8.331
 5901WAT      O17944   4.943   1.660   9.611
 5901WAT     H117945   4.962   1.614   9.698
 5901WAT     H217946   4.977   1.754   9.615
 5902WAT      O17947   9.167   9.140   4.359
 5902WAT     H117948   9.260   9.152   4.324
 5902WAT     H217949   9.114   9.223   4.341
 5903WAT      O17950   1.608   8.920   4.417
 5903WAT     H117951   1.639   8.858   4.489
 5903WAT     H217952   1.659   9.006   4.423
 5904WAT      O17953   7.120   5.472   9.194
 5904WAT     H117954   7.105   5.376   9.216
 5904WAT     H217955   7.032   5.517   9.177
 5905WAT      O17956   6.629   2.360   6.007
 5905WAT     H117957   6.591   2.286   6.062
 5905WAT     H217958   6.711   2.396   6.051
 5906WAT      O17959   2.894   7.307   5.393
 5906WAT     H117960   2.871   7.228   5.448
 5906WAT     H217961   2.965   7.283   5.327
 5907WAT      O17962   5.545   3.814   0.073
 5907WAT     H117963   5.536   3.908   0.042
 5907WAT     H217964   5.570   3.813   0.170
 5908WAT      O17965   0.265   0.627   3.629
 5908WAT     H117966   0.276   0.726   3.641
 5908WAT     H217967   0.334   0.579   3.684
 5909WAT      O17968   8.395   1.913   8.419
 5909WAT     H117969   8.358   1.820   8.428
 5909WAT     H217970   8.444   1.937   8.503
 5910WAT      O17971   4.945   9.465   8.806
 5910WAT     H117972   4.953   9.391   8.739
 5910WAT     H217973   4.893   9.540   8.766
 5911WAT      O17974   8.651   7.270   8.948
 5911WAT     H117975   8.574   7.266   9.012
 5911WAT     H217976   8.670   7.365   8.923
 5912WAT      O17977   3.759   2.277   8.023
 5912WAT     H117978   3.697   2.204   8.052
 5912WAT     H217979   3.853   2.251   8.043
 5913WAT      O17980   0.195   5.661   5.032
 5913WAT     H117981   0.098   5.637   5.042
 5913WAT     H217982   0.241   5.590   4.978
 5914WAT      O17983   1.365   1.764   1.425
 5914WAT     H117984   1.373   1.863   1.411
 5914WAT     H217985   1.353   1.719   1.337
 5915WAT      O17986   9.180   5.856   9.583
 5915WAT     H117987   9.127   5.817   9.507
 5915WAT     H217988   9.163   5.955   9.588
 5916WAT      O17989   6.914   5.737   2.122
 5916WAT     H117990   6.975   5.673   2.167
 5916WAT     H217991   6.874   5.693   2.041
 5917WAT      O17992   1.695   7.861   3.799
 5917WAT     H117993   1.691   7.828   3.705
 5917WAT     H217994   1.631   7.937   3.811
 5918WAT      O17995   7.310   2.129   6.763
 5918WAT     H117996   7.218   2.136   6.723
 5918WAT     H217997   7.310   2.175   6.852
 5919WAT      O17998   5.184   7.169   7.663
 5919WAT     H117999   5.282   7.165   7.678
 5919WAT     H218000   5.157   7.097   7.598
 5920WAT      O18001   1.036   2.980   9.459
 5920WAT     H118002   1.076   3.071   9.475
 5920WAT     H218003   0.953   2.990   9.404
 5921WAT      O18004   6.944   9.219   1.338
 5921WAT     H118005   6.879   9.203   1.412
 5921WAT     H218006   7.035   9.192   1.368
 5922WAT      O18007   0.302   8.822   2.514
 5922WAT     H118008   0.331   8.751   2.450
 5922WAT     H218009   0.376   8.888   2.526
 5923WAT      O18010   0.065   8.150   2.716
 5923WAT     H118011   0.090   8.171   2.621
 5923WAT     H218012   0.147   8.126   2.767
 5924WAT      O18013   9.216   6.870   2.617
 5924WAT     H118014   9.130   6.902   2.655
 5924WAT     H218015   9.225   6.772   2.631
 5925WAT      O18016   4.827   5.245   8.784
 5925WAT     H118017   4.913   5.293   8.803
 5925WAT     H218018   4.758   5.311   8.756
 5926WAT      O18019   9.421   2.719   2.330
 5926WAT     H118020   9.479   2.690   2.254
 5926WAT     H218021   9.328   2.685   2.316
 5927WAT      O18022   1.750   3.006   6.749
 5927WAT     H118023   1.770   3.039   6.656
 5927WAT     H218024   1.812   2.931   6.771
 5928WAT      O18025   6.195   6.634   8.926
 5928WAT     H118026   6.179   6.693   8.847
 5928WAT     H218027   6.145   6.670   9.005
 5929WAT      O18028   3.093   1.018   6.014
 5929WAT     H118029   3.092   1.031   5.915
 5929WAT     H218030   3.139   1.096   6.057
 5930WAT      O18031   6.092   3.895   0.662
 5930WAT     H118032   6.019   3.841   0.705
 5930WAT     H218033   6.071   3.908   0.565
 5931WAT      O18034   7.810   0.624   1.357
 5931WAT     H118035   7.774   0.597   1.446
 5931WAT     H218036   7.734   0.653   1.299
 5932WAT      O18037   6.782   3.963   0.139
 5932WAT     H118038   6.758   3.867   0.152
 5932WAT     H218039   6.832   3.974   0.053
 5933WAT      O18040   4.906   5.884   0.088
 5933WAT     H118041   4.851   5.960   0.051
 5933WAT     H218042   5.003   5.901   0.069
 5934WAT      O18043   3.560   2.130   3.813
 5934WAT     H118044   3.637   2.149   3.874
 5934WAT     H218045   3.595   2.092   3.727
 5935WAT      O18046   3.092   6.748   8.077
 5935WAT     H118047   3.118   6.652   8.071
 5935WAT     H218048   3.050   6.777   7.991
 5936WAT      O18049   0.698   6.265   2.338
 5936WAT     H118050   0.788   6.307   2.330
 5936WAT     H218051   0.690   6.221   2.428
 5937WAT      O18052   5.711   8.901   7.784
 5937WAT     H118053   5.714   8.999   7.803
 5937WAT     H218054   5.780   8.878   7.715
 5938WAT      O18055   9.325   5.962   6.004
 5938WAT     H118056   9.357   5.965   6.098
 5938WAT     H218057   9.385   5.903   5.950
 5939WAT      O18058   2.316   5.403   7.361
 5939WAT     H118059   2.346   5.376   7.269
 5939WAT     H218060   2.384   5.464   7.401
 5940WAT      O18061   2.678   8.064   7.233
 5940WAT     H118062   2.728   8.139   7.276
 5940WAT     H218063   2.585   8.095   7.212
 5941WAT      O18064   0.761   7.177   4.324
 5941WAT     H118065   0.700   7.107   4.363
 5941WAT     H218066   0.855   7.143   4.323
 5942WAT      O18067   2.076   8.873   9.158
 5942WAT     H118068   2.083   8.803   9.087
 5942WAT     H218069   2.167   8.909   9.179
 5943WAT      O18070   6.459   5.017   0.696
 5943WAT     H118071   6.470   5.017   0.597
 5943WAT     H218072   6.372   5.061   0.720
 5944WAT      O18073   6.235   7.766   5.437
 5944WAT     H118074   6.220   7.671   5.464
 5944WAT     H218075   6.195   7.827   5.505
 5945WAT      O18076   2.809   1.548   5.358
 5945WAT     H118077   2.901   1.527   5.323
 5945WAT     H218078   2.804   1.645   5.382
 5946WAT      O18079   4.472   5.508   6.305
 5946WAT     H118080   4.423   5.425   6.332
 5946WAT     H218081   4.426   5.588   6.344
 5947WAT      O18082   3.000   5.055   6.617
 5947WAT     H118083   3.040   4.977   6.569
 5947WAT     H218084   3.026   5.052   6.713
 5948WAT      O18085   2.184   7.588   9.598
 5948WAT     H118086   2.232   7.673   9.575
 5948WAT     H218087   2.220   7.513   9.544
 5949WAT      O18088   3.572   9.067   6.625
 5949WAT     H118089   3.587   9.143   6.688
 5949WAT     H218090   3.571   8.981   6.677
 5950WAT      O18091   5.243   3.083   6.443
 5950WAT     H118092   5.308   3.159   6.451
 5950WAT     H218093   5.292   3.000   6.414
 5951WAT      O18094   2.886   0.535   4.588
 5951WAT     H118095   2.848   0.507   4.677
 5951WAT     H218096   2.878   0.459   4.524
 5952WAT      O18097   3.974   5.822   3.073
 5952WAT     H118098   3.952   5.762   2.997
 5952WAT     H218099   4.045   5.779   3.129
 5953WAT      O18100   5.752   0.505   3.632
 5953WAT     H118101   5.766   0.516   3.534
 5953WAT     H218102   5.665   0.458   3.649
 5954WAT      O18103   8.702   0.483   9.487
 5954WAT     H118104   8.799   0.488   9.464
 5954WAT     H218105   8.651   0.545   9.428
 5955WAT      O18106   3.521   8.428   0.594
 5955WAT     H118107   3.427   8.412   0.624
 5955WAT     H218108   3.580   8.353   0.628
 5956WAT      O18109   2.958   9.561   3.040
 5956WAT     H118110   2.920   9.520   2.958
 5956WAT     H218111   2.888   9.567   3.110
 5957WAT      O18112   2.362   4.937   1.633
 5957WAT     H118113   2.392   4.979   1.547
 5957WAT     H218114   2.341   4.841   1.617
 5958WAT      O18115   1.762   1.301   4.364
 5958WAT     H118116   1.753   1.202   4.348
 5958WAT     H218117   1.850   1.320   4.407
 5959WAT      O18118   3.159   6.030   2.880
 5959WAT     H118119   3.063   6.044   2.906
 5959WAT     H218120   3.183   5.933   2.892
 5960WAT      O18121   4.847   0.709   4.669
 5960WAT     H118122   4.900   0.734   4.750
 5960WAT     H218123   4.869   0.615   4.643
 5961WAT      O18124   5.975   5.044   2.941
 5961WAT     H118125   6.041   4.999   2.880
 5961WAT     H218126   5.887   4.997   2.936
 5962WAT      O18127   3.323   4.312   0.065
 5962WAT     H118128   3.358   4.328   0.157
 5962WAT     H218129   3.229   4.346   0.059
 5963WAT      O18130   7.101   1.222   1.640
 5963WAT     H118131   7.024   1.252   1.584
 5963WAT     H218132   7.068   1.166   1.716
 5964WAT      O18133   8.303   7.805   3.755
 5964WAT     H118134   8.224   7.863   3.736
 5964WAT     H218135   8.387   7.856   3.737
 5965WAT      O18136   9.528   9.753   3.315
 5965WAT     H118137   9.536   9.672   3.372
 5965WAT     H218138   9.599   9.819   3.339
 5966WAT      O18139   3.587   5.797   8.060
 5966WAT     H118140   3.516   5.845   8.009
 5966WAT     H218141   3.607   5.847   8.144
 5967WAT      O18142   7.951   7.418   5.502
 5967WAT     H118143   8.002   7.494   5.543
 5967WAT     H218144   8.013   7.364   5.444
 5968WAT      O18145   0.134   9.382   6.090
 5968WAT     H118146   0.124   9.290   6.128
 5968WAT     H218147   0.195   9.435   6.148
 5969WAT      O18148   0.627   4.504   4.604
 5969WAT     H118149   0.694   4.439   4.641
 5969WAT     H218150   0.617   4.581   4.666
 5970WAT      O18151   7.147   1.407   5.800
 5970WAT     H118152   7.126   1.468   5.877
 5970WAT     H218153   7.118   1.314   5.823
 5971WAT      O18154   3.764   5.196   6.051
 5971WAT     H118155   3.704   5.127   6.011
 5971WAT     H218156   3.798   5.255   5.978
 5972WAT      O18157   8.414   2.662   4.120
 5972WAT     H118158   8.444   2.640   4.028
 5972WAT     H218159   8.415   2.761   4.132
 5973WAT      O18160   1.099   9.266   0.979
 5973WAT     H118161   1.178   9.298   1.032
 5973WAT     H218162   1.025   9.241   1.042
 5974WAT      O18163   3.567   3.240   8.684
 5974WAT     H118164   3.566   3.213   8.780
 5974WAT     H218165   3.636   3.188   8.634
 5975WAT      O18166   8.495   7.760   3.955
 5975WAT     H118167   8.470   7.681   4.011
 5975WAT     H218168   8.441   7.760   3.871
 5976WAT      O18169   1.845   6.109   3.737
 5976WAT     H118170   1.832   6.208   3.749
 5976WAT     H218171   1.899   6.073   3.813
 5977WAT      O18172   1.390   3.655   7.387
 5977WAT     H118173   1.426   3.730   7.442
 5977WAT     H218174   1.294   3.673   7.365
 5978WAT      O18175   8.140   2.040   8.167
 5978WAT     H118176   8.194   2.037   8.251
 5978WAT     H218177   8.043   2.035   8.188
 5979WAT      O18178   5.885   9.269   9.801
 5979WAT     H118179   5.832   9.217   9.869
 5979WAT     H218180   5.822   9.318   9.740
 5980WAT      O18181   8.650   2.091   8.591
 5980WAT     H118182   8.717   2.046   8.532
 5980WAT     H218183   8.628   2.182   8.554
 5981WAT      O18184   9.430   2.719   6.080
 5981WAT     H118185   9.438   2.640   6.018
 5981WAT     H218186   9.446   2.689   6.174
 5982WAT      O18187   6.458   4.115   0.855
 5982WAT     H118188   6.403   4.185   0.900
 5982WAT     H218189   6.547   4.108   0.901
 5983WAT      O18190   3.362   7.205   6.519
 5983WAT     H118191   3.348   7.234   6.614
 5983WAT     H218192   3.439   7.141   6.515
 5984WAT      O18193   2.202   9.334   2.717
 5984WAT     H118194   2.127   9.363   2.658
 5984WAT     H218195   2.187   9.369   2.810
 5985WAT      O18196   7.369   4.279   9.357
 5985WAT     H118197   7.297   4.245   9.416
 5985WAT     H218198   7.435   4.332   9.411
 5986WAT      O18199   9.231   6.993   5.700
 5986WAT     H118200   9.329   6.997   5.681
 5986WAT     H218201   9.196   7.085   5.718
 5987WAT      O18202   1.763   0.962   5.644
 5987WAT     H118203   1.720   1.051   5.625
 5987WAT     H218204   1.857   0.963   5.610
 5988WAT      O18205   4.137   4.551   9.820
 5988WAT     H118206   4.047   4.556   9.778
 5988WAT     H218207   4.193   4.628   9.791
 5989WAT      O18208   6.764   0.634   0.547
 5989WAT     H118209   6.756   0.670   0.454
 5989WAT     H218210   6.824   0.554   0.547
 5990WAT      O18211   3.019   3.796   3.963
 5990WAT     H118212   3.072   3.781   4.046
 5990WAT     H218213   3.081   3.811   3.886
 5991WAT      O18214   0.910   2.683   8.061
 5991WAT     H118215   0.999   2.655   8.096
 5991WAT     H218216   0.900   2.654   7.966
 5992WAT      O18217   4.605   1.828   4.546
 5992WAT     H118218   4.517   1.838   4.499
 5992WAT     H218219   4.634   1.916   4.582
 5993WAT      O18220   7.133   5.510   4.339
 5993WAT     H118221   7.164   5.472   4.426
 5993WAT     H218222   7.134   5.438   4.269
 5994WAT      O18223   8.368   6.706   9.878
 5994WAT     H118224   8.375   6.792   9.827
 5994WAT     H218225   8.427   6.638   9.835
 5995WAT      O18226   4.156   2.421   8.742
 5995WAT     H118227   4.088   2.380   8.803
 5995WAT     H218228   4.151   2.521   8.750
 5996WAT      O18229   9.881   8.644   2.705
 5996WAT     H118230   9.853   8.658   2.611
 5996WAT     H218231   9.806   8.604   2.757
 5997WAT      O18232   5.940   3.390   7.138
 5997WAT     H118233   5.847   3.426   7.143
 5997WAT     H218234   5.943   3.299   7.180
 5998WAT      O18235   9.542   9.226   5.322
 5998WAT     H118236   9.556   9.295   5.393
 5998WAT     H218237   9.499   9.145   5.363
 5999WAT      O18238   4.525   3.462   7.791
 5999WAT     H118239   4.622   3.483   7.786
 5999WAT     H218240   4.500   3.402   7.715
 6000WAT      O18241   7.431   4.006   5.931
 6000WAT     H118242   7.458   3.915   5.962
 6000WAT     H218243   7.334   4.005   5.907
 6001WAT      O18244   0.738   0.773   6.056
 6001WAT     H118245   0.809   0.823   6.105
 6001WAT     H218246   0.750   0.786   5.958
 6002WAT      O18247   4.454   4.212   2.073
 6002WAT     H118248   4.409   4.281   2.131
 6002WAT     H218249   4.430   4.121   2.107
 6003WAT      O18250   7.782   6.613   2.140
 6003WAT     H118251   7.831   6.608   2.227
 6003WAT     H218252   7.756   6.708   2.121
 6004WAT      O18253   0.282   8.533   0.994
 6004WAT     H118254   0.307   8.458   1.054
 6004WAT     H218255   0.188   8.522   0.963
 6005WAT      O18256   1.726   8.334   4.837
 6005WAT     H118257   1.734   8.354   4.935
 6005WAT     H218258   1.708   8.236   4.824
 6006WAT      O18259   3.465   1.781   7.270
 6006WAT     H118260   3.467   1.713   7.343
 6006WAT     H218261   3.558   1.809   7.247
 6007WAT      O18262   6.805   7.263   6.322
 6007WAT     H118263   6.865   7.194   6.364
 6007WAT     H218264   6.854   7.308   6.248
 6008WAT      O18265   5.260   7.114   5.669
 6008WAT     H118266   5.305   7.025   5.664
 6008WAT     H218267   5.176   7.106   5.722
 6009WAT      O18268   1.678   9.169   0.324
 6009WAT     H118269   1.667   9.262   0.359
 6009WAT     H218270   1.707   9.174   0.228
 6010WAT      O18271   4.073   1.905   9.838
 6010WAT     H118272   4.076   1.819   9.888
 6010WAT     H218273   4.165   1.930   9.809
 6011WAT      O18274   6.535   2.740   2.000
 6011WAT     H118275   6.602   2.681   2.043
 6011WAT     H218276   6.539   2.730   1.901
 6012WAT      O18277   6.106   4.567   7.466
 6012WAT     H118278   6.098   4.484   7.521
 6012WAT     H218279   6.165   4.549   7.388
 6013WAT      O18280   1.650   0.013   7.699
 6013WAT     H118281   1.679   0.084   7.762
 6013WAT     H218282   1.721  -0.003   7.631
 6014WAT      O18283   8.055   2.495   0.226
 6014WAT     H118284   8.067   2.402   0.261
 6014WAT     H218285   8.084   2.498   0.131
 6015WAT      O18286   6.428   7.881   3.669
 6015WAT     H118287   6.391   7.792   3.696
 6015WAT     H218288   6.352   7.944   3.650
 6016WAT      O18289   6.764   7.219   8.765
 6016WAT     H118290   6.710   7.139   8.737
 6016WAT     H218291   6.861   7.193   8.772
 6017WAT      O18292   6.554   9.219   5.543
 6017WAT     H118293   6.521   9.129   5.570
 6017WAT     H218294   6.565   9.222   5.443
 6018WAT      O18295   2.208   5.585   9.673
 6018WAT     H118296   2.299   5.545   9.679
 6018WAT     H218297   2.139   5.514   9.681
 6019WAT      O18298   1.256   2.416   7.082
 6019WAT     H118299   1.302   2.329   7.101
 6019WAT     H218300   1.161   2.399   7.058
 6020WAT      O18301   5.750   7.133   2.927
 6020WAT     H118302   5.684   7.128   3.002
 6020WAT     H218303   5.842   7.121   2.963
 6021WAT      O18304   7.354   6.584   5.279
 6021WAT     H118305   7.317   6.580   5.372
 6021WAT     H218306   7.342   6.676   5.242
 6022WAT      O18307   4.278   3.459   7.388
 6022WAT     H118308   4.367   3.446   7.346
 6022WAT     H218309   4.230   3.535   7.344
 6023WAT      O18310   8.108   0.396   6.007
 6023WAT     H118311   8.090   0.490   5.975
 6023WAT     H218312   8.031   0.338   5.982
 6024WAT      O18313   6.103   9.385   0.737
 6024WAT     H118314   6.010   9.362   0.765
 6024WAT     H218315   6.102   9.412   0.640
 6025WAT      O18316   5.176   1.692   3.460
 6025WAT     H118317   5.111   1.738   3.399
 6025WAT     H218318   5.162   1.725   3.554
 6026WAT      O18319   9.079   8.619   2.553
 6026WAT     H118320   9.097   8.624   2.651
 6026WAT     H218321   9.118   8.698   2.507
 6027WAT      O18322   3.065   6.854   4.461
 6027WAT     H118323   2.989   6.918   4.451
 6027WAT     H218324   3.151   6.905   4.467
 6028WAT      O18325   5.329   3.426   0.105
 6028WAT     H118326   5.260   3.354   0.118
 6028WAT     H218327   5.389   3.429   0.185
 6029WAT      O18328   5.406   2.480   8.196
 6029WAT     H118329   5.452   2.392   8.184
 6029WAT     H218330   5.427   2.539   8.118
 6030WAT      O18331   7.498   7.290   3.227
 6030WAT     H118332   7.554   7.309   3.308
 6030WAT     H218333   7.553   7.239   3.161
 6031WAT      O18334   7.174   7.359   5.585
 6031WAT     H118335   7.182   7.418   5.505
 6031WAT     H218336   7.197   7.411   5.667
 6032WAT      O18337   0.173   0.217   0.466
 6032WAT     H118338   0.127   0.191   0.551
 6032WAT     H218339   0.201   0.312   0.471
 6033WAT      O18340   8.983   9.847   8.438
 6033WAT     H118341   9.033   9.763   8.461
 6033WAT     H218342   8.918   9.829   8.365
 6034WAT      O18343   1.539   3.223   4.054
 6034WAT     H118344   1.593   3.278   4.117
 6034WAT     H218345   1.513   3.137   4.099
 6035WAT      O18346   4.785   6.376   8.201
 6035WAT     H118347   4.774   6.464   8.247
 6035WAT     H218348   4.861   6.326   8.241
 6036WAT      O18349   3.892   9.205   6.749
 6036WAT     H118350   3.903   9.301   6.721
 6036WAT     H218351   3.970   9.152   6.716
 6037WAT      O18352   5.470   9.504   8.944
 6037WAT     H118353   5.453   9.559   9.026
 6037WAT     H218354   5.383   9.472   8.907
 6038WAT      O18355   2.135   6.278   0.204
 6038WAT     H118356   2.144   6.216   0.282
 6038WAT     H218357   2.103   6.367   0.236
 6039WAT      O18358   3.582   4.280   9.345
 6039WAT     H118359   3.681   4.281   9.342
 6039WAT     H218360   3.546   4.367   9.309
 6040WAT      O18361   3.525   2.038   8.001
 6040WAT     H118362   3.471   2.039   8.085
 6040WAT     H218363   3.484   2.099   7.933
 6041WAT      O18364   2.918   1.929   8.486
 6041WAT     H118365   3.001   1.976   8.516
 6041WAT     H218366   2.888   1.866   8.558
 6042WAT      O18367   5.654   4.782   6.379
 6042WAT     H118368   5.729   4.757   6.318
 6042WAT     H218369   5.675   4.751   6.471
 6043WAT      O18370   3.082   8.278   8.675
 6043WAT     H118371   3.128   8.347   8.619
 6043WAT     H218372   3.112   8.187   8.646
 6044WAT      O18373   7.003   6.836   8.870
 6044WAT     H118374   6.997   6.902   8.796
 6044WAT     H218375   7.024   6.884   8.956
 6045WAT      O18376   6.394   9.820   8.041
 6045WAT     H118377   6.451   9.762   8.099
 6045WAT     H218378   6.317   9.767   8.005
 6046WAT      O18379   8.575   9.524   1.503
 6046WAT     H118380   8.640   9.591   1.539
 6046WAT     H218381   8.569   9.533   1.404
 6047WAT      O18382   2.714   0.558   6.033
 6047WAT     H118383   2.632   0.502   6.022
 6047WAT     H218384   2.709   0.637   5.972
 6048WAT      O18385   7.393   0.767   3.193
 6048WAT     H118386   7.425   0.791   3.285
 6048WAT     H218387   7.451   0.810   3.125
 6049WAT      O18388   3.346   6.699   3.768
 6049WAT     H118389   3.412   6.766   3.734
 6049WAT     H218390   3.364   6.681   3.864
 6050WAT      O18391   9.466   0.460   8.735
 6050WAT     H118392   9.506   0.548   8.759
 6050WAT     H218393   9.525   0.413   8.668
 6051WAT      O18394   1.952   0.340   1.483
 6051WAT     H118395   2.037   0.375   1.523
 6051WAT     H218396   1.974   0.281   1.405
 6052WAT      O18397   9.308   0.420   6.453
 6052WAT     H118398   9.235   0.352   6.463
 6052WAT     H218399   9.368   0.393   6.378
 6053WAT      O18400   7.578   4.055   8.582
 6053WAT     H118401   7.621   3.978   8.629
 6053WAT     H218402   7.641   4.090   8.512
 6054WAT      O18403   7.824   3.199   7.637
 6054WAT     H118404   7.845   3.130   7.568
 6054WAT     H218405   7.820   3.156   7.727
 6055WAT      O18406   3.044   9.769   0.965
 6055WAT     H118407   3.099   9.729   0.892
 6055WAT     H218408   3.049   9.869   0.959
 6056WAT      O18409   0.384   0.576   7.362
 6056WAT     H118410   0.309   0.511   7.371
 6056WAT     H218411   0.445   0.547   7.288
 6057WAT      O18412   1.124   2.494   0.724
 6057WAT     H118413   1.119   2.539   0.813
 6057WAT     H218414   1.110   2.396   0.735
 6058WAT      O18415   3.615   0.923   5.717
 6058WAT     H118416   3.642   1.019   5.731
 6058WAT     H218417   3.517   0.914   5.733
 6059WAT      O18418   8.884   7.861   9.246
 6059WAT     H118419   8.819   7.935   9.266
 6059WAT     H218420   8.835   7.774   9.243
 6060WAT      O18421   4.790   2.002   6.492
 6060WAT     H118422   4.884   1.991   6.526
 6060WAT     H218423   4.765   1.922   6.437
 6061WAT      O18424   5.215   3.717   8.778
 6061WAT     H118425   5.202   3.814   8.799
 6061WAT     H218426   5.224   3.706   8.679
 6062WAT      O18427   7.332   0.119   2.197
 6062WAT     H118428   7.250   0.111   2.253
 6062WAT     H218429   7.397   0.047   2.222
 6063WAT      O18430   0.765   8.058   8.581
 6063WAT     H118431   0.670   8.045   8.607
 6063WAT     H218432   0.799   8.144   8.619
 6064WAT      O18433   5.600   2.985   8.575
 6064WAT     H118434   5.663   3.052   8.613
 6064WAT     H218435   5.590   2.909   8.638
 6065WAT      O18436   1.050   5.892   7.407
 6065WAT     H118437   1.060   5.817   7.341
 6065WAT     H218438   1.134   5.901   7.460
 6066WAT      O18439   9.821   8.043   6.047
 6066WAT     H118440   9.753   8.091   5.990
 6066WAT     H218441   9.800   8.057   6.143
 6067WAT      O18442   7.376   3.421   8.220
 6067WAT     H118443   7.322   3.412   8.137
 6067WAT     H218444   7.401   3.330   8.254
 6068WAT      O18445   1.956   2.546   0.345
 6068WAT     H118446   1.886   2.476   0.330
 6068WAT     H218447   1.988   2.582   0.258
 6069WAT      O18448   2.413   7.359   3.853
 6069WAT     H118449   2.402   7.454   3.883
 6069WAT     H218450   2.488   7.316   3.904
 6070WAT      O18451   5.170   0.208   7.527
 6070WAT     H118452   5.103   0.141   7.560
 6070WAT     H218453   5.123   0.292   7.501
 6071WAT      O18454   6.210   6.389   6.771
 6071WAT     H118455   6.240   6.463   6.710
 6071WAT     H218456   6.123   6.353   6.738
 6072WAT      O18457   0.566   0.320   4.911
 6072WAT     H118458   0.661   0.323   4.879
 6072WAT     H218459   0.508   0.284   4.837
 6073WAT      O18460   8.468   8.834   5.824
 6073WAT     H118461   8.456   8.830   5.725
 6073WAT     H218462   8.381   8.856   5.868
 6074WAT      O18463   3.645   0.075   6.530
 6074WAT     H118464   3.643   0.136   6.451
 6074WAT     H218465   3.704   0.113   6.601
 6075WAT      O18466   7.038   7.827   9.421
 6075WAT     H118467   7.103   7.873   9.360
 6075WAT     H218468   7.057   7.854   9.516
 6076WAT      O18469   4.166   3.787   3.147
 6076WAT     H118470   4.155   3.886   3.159
 6076WAT     H218471   4.131   3.740   3.227
 6077WAT      O18472   1.560   3.671   5.182
 6077WAT     H118473   1.520   3.585   5.149
 6077WAT     H218474   1.601   3.656   5.272
 6078WAT      O18475   1.266   3.245   5.000
 6078WAT     H118476   1.257   3.340   4.968
 6078WAT     H218477   1.175   3.210   5.023
 6079WAT      O18478   1.264   5.079   3.839
 6079WAT     H118479   1.298   5.163   3.796
 6079WAT     H218480   1.232   5.016   3.769
 6080WAT      O18481   8.563   6.325   2.124
 6080WAT     H118482   8.645   6.288   2.167
 6080WAT     H218483   8.506   6.251   2.091
 6081WAT      O18484   1.712   8.673   7.481
 6081WAT     H118485   1.735   8.763   7.518
 6081WAT     H218486   1.615   8.669   7.460
 6082WAT      O18487   6.251   0.014   0.369
 6082WAT     H118488   6.244  -0.056   0.440
 6082WAT     H218489   6.240   0.105   0.409
 6083WAT      O18490   7.994   5.996   7.953
 6083WAT     H118491   8.019   6.083   7.913
 6083WAT     H218492   7.909   6.006   8.005
 6084WAT      O18493   1.405   0.420   1.971
 6084WAT     H118494   1.453   0.335   1.951
 6084WAT     H218495   1.468   0.485   2.014
 6085WAT      O18496   7.612   0.474   3.281
 6085WAT     H118497   7.677   0.548   3.297
 6085WAT     H218498   7.652   0.387   3.308
 6086WAT      O18499   7.503   3.763   2.598
 6086WAT     H118500   7.584   3.740   2.544
 6086WAT     H218501   7.531   3.803   2.686
 6087WAT      O18502   0.523   8.131   7.241
 6087WAT     H118503   0.432   8.110   7.204
 6087WAT     H218504   0.524   8.113   7.339
 6088WAT      O18505   5.170   4.322   2.694
 6088WAT     H118506   5.219   4.279   2.771
 6088WAT     H218507   5.199   4.417   2.687
 6089WAT      O18508   0.333   9.084   2.748
 6089WAT     H118509   0.301   9.173   2.783
 6089WAT     H218510   0.261   9.016   2.761
 6090WAT      O18511   4.384   0.326   0.253
 6090WAT     H118512   4.293   0.364   0.263
 6090WAT     H218513   4.450   0.383   0.302
 6091WAT      O18514   5.335   8.296   0.356
 6091WAT     H118515   5.429   8.289   0.389
 6091WAT     H218516   5.330   8.264   0.262
 6092WAT      O18517   8.673   3.020   8.782
 6092WAT     H118518   8.730   3.099   8.759
 6092WAT     H218519   8.602   3.009   8.713
 6093WAT      O18520   9.718   7.835   1.514
 6093WAT     H118521   9.659   7.764   1.553
 6093WAT     H218522   9.758   7.889   1.589
 6094WAT      O18523   4.907   7.023   3.299
 6094WAT     H118524   4.864   7.000   3.211
 6094WAT     H218525   4.903   6.943   3.359
 6095WAT      O18526   6.120   8.280   4.619
 6095WAT     H118527   6.138   8.200   4.676
 6095WAT     H218528   6.060   8.343   4.668
 6096WAT      O18529   1.524   8.983   7.251
 6096WAT     H118530   1.589   9.040   7.301
 6096WAT     H218531   1.523   9.011   7.155
 6097WAT      O18532   6.943   2.615   7.524
 6097WAT     H118533   6.975   2.702   7.486
 6097WAT     H218534   6.945   2.620   7.624
 6098WAT      O18535   2.624   3.347   2.791
 6098WAT     H118536   2.662   3.308   2.707
 6098WAT     H218537   2.527   3.321   2.798
 6099WAT      O18538   2.312   2.720   5.265
 6099WAT     H118539   2.317   2.817   5.289
 6099WAT     H218540   2.400   2.676   5.285
 6100WAT      O18541   3.314   3.702   6.509
 6100WAT     H118542   3.316   3.730   6.605
 6100WAT     H218543   3.407   3.704   6.472
 6101WAT      O18544   9.825   4.629   2.244
 6101WAT     H118545   9.899   4.630   2.311
 6101WAT     H218546   9.754   4.565   2.274
 6102WAT      O18547   6.348   4.089   9.335
 6102WAT     H118548   6.389   4.109   9.247
 6102WAT     H218549   6.255   4.054   9.322
 6103WAT      O18550   0.738   7.676   1.006
 6103WAT     H118551   0.697   7.680   1.097
 6103WAT     H218552   0.764   7.768   0.977
 6104WAT      O18553   2.271   7.289   8.796
 6104WAT     H118554   2.222   7.272   8.881
 6104WAT     H218555   2.338   7.362   8.810
 6105WAT      O18556   4.770   0.093   8.657
 6105WAT     H118557   4.740   0.162   8.591
 6105WAT     H218558   4.714   0.098   8.740
 6106WAT      O18559   2.838   1.564   9.012
 6106WAT     H118560   2.743   1.590   9.030
 6106WAT     H218561   2.860   1.482   9.063
 6107WAT      O18562   4.675   1.769   5.081
 6107WAT     H118563   4.605   1.789   5.012
 6107WAT     H218564   4.673   1.839   5.152
 6108WAT      O18565   0.698   7.167   6.977
 6108WAT     H118566   0.657   7.117   6.900
 6108WAT     H218567   0.659   7.259   6.981
 6109WAT      O18568   5.652   4.906   9.337
 6109WAT     H118569   5.721   4.892   9.407
 6109WAT     H218570   5.694   4.944   9.255
 6110WAT      O18571   0.516   9.776   3.934
 6110WAT     H118572   0.419   9.795   3.921
 6110WAT     H218573   0.570   9.851   3.896
 6111WAT      O18574   2.952   5.868   4.506
 6111WAT     H118575   3.044   5.845   4.538
 6111WAT     H218576   2.926   5.803   4.434
 6112WAT      O18577   5.238   0.193   2.545
 6112WAT     H118578   5.237   0.094   2.540
 6112WAT     H218579   5.319   0.224   2.595
 6113WAT      O18580   5.722   1.297   3.577
 6113WAT     H118581   5.778   1.344   3.645
 6113WAT     H218582   5.771   1.217   3.543
 6114WAT      O18583   4.794   4.202   6.266
 6114WAT     H118584   4.801   4.234   6.171
 6114WAT     H218585   4.884   4.204   6.308
 6115WAT      O18586   2.952   1.699   3.741
 6115WAT     H118587   2.897   1.781   3.725
 6115WAT     H218588   2.960   1.683   3.839
 6116WAT      O18589   0.248   1.898   5.098
 6116WAT     H118590   0.177   1.857   5.041
 6116WAT     H218591   0.208   1.928   5.184
 6117WAT      O18592   4.303   6.469   8.282
 6117WAT     H118593   4.316   6.562   8.318
 6117WAT     H218594   4.367   6.453   8.207
 6118WAT      O18595   9.599   8.371   8.817
 6118WAT     H118596   9.687   8.415   8.803
 6118WAT     H218597   9.527   8.440   8.817
 6119WAT      O18598   3.041   2.054   9.886
 6119WAT     H118599   2.949   2.016   9.890
 6119WAT     H218600   3.043   2.130   9.821
 6120WAT      O18601   9.766   1.196   5.276
 6120WAT     H118602   9.797   1.213   5.369
 6120WAT     H218603   9.813   1.259   5.213
 6121WAT      O18604   3.915   9.577   9.460
 6121WAT     H118605   3.895   9.513   9.386
 6121WAT     H218606   3.916   9.670   9.424
 6122WAT      O18607   2.686   9.487   6.303
 6122WAT     H118608   2.599   9.488   6.352
 6122WAT     H218609   2.720   9.580   6.292
 6123WAT      O18610   8.471   3.137   6.368
 6123WAT     H118611   8.381   3.179   6.359
 6123WAT     H218612   8.486   3.110   6.464
 6124WAT      O18613   5.369   2.271   4.131
 6124WAT     H118614   5.379   2.251   4.033
 6124WAT     H218615   5.451   2.319   4.163
 6125WAT      O18616   5.908   9.765   8.157
 6125WAT     H118617   5.978   9.708   8.200
 6125WAT     H218618   5.939   9.861   8.157
 6126WAT      O18619   5.873   7.113   7.268
 6126WAT     H118620   5.972   7.114   7.284
 6126WAT     H218621   5.834   7.202   7.293
 6127WAT      O18622   8.159   2.987   6.558
 6127WAT     H118623   8.246   2.965   6.603
 6127WAT     H218624   8.132   2.911   6.499
 6128WAT      O18625   7.485   1.013   6.252
 6128WAT     H118626   7.446   1.105   6.255
 6128WAT     H218627   7.542   1.003   6.170
 6129WAT      O18628   6.533   8.073   1.593
 6129WAT     H118629   6.564   8.151   1.648
 6129WAT     H218630   6.441   8.092   1.559
 6130WAT      O18631   4.031   1.426   1.233
 6130WAT     H118632   4.116   1.393   1.276
 6130WAT     H218633   3.984   1.349   1.190
 6131WAT      O18634   3.071   4.855   6.223
 6131WAT     H118635   3.100   4.883   6.315
 6131WAT     H218636   2.972   4.841   6.223
 6132WAT      O18637   8.776   4.233   7.675
 6132WAT     H118638   8.748   4.249   7.770
 6132WAT     H218639   8.702   4.189   7.625
 6133WAT      O18640   8.368   3.152   0.961
 6133WAT     H118641   8.394   3.226   1.024
 6133WAT     H218642   8.400   3.065   0.998
 6134WAT      O18643   2.160   9.757   1.285
 6134WAT     H118644   2.157   9.690   1.360
 6134WAT     H218645   2.230   9.730   1.219
 6135WAT      O18646   0.288   1.074   8.371
 6135WAT     H118647   0.230   1.120   8.438
 6135WAT     H218648   0.282   0.975   8.383
 6136WAT      O18649   5.039   0.037   2.285
 6136WAT     H118650   5.014   0.131   2.305
 6136WAT     H218651   5.124   0.036   2.232
 6137WAT      O18652   3.598   8.657   0.473
 6137WAT     H118653   3.661   8.684   0.545
 6137WAT     H218654   3.557   8.568   0.496
 6138WAT      O18655   6.691   4.295   0.518
 6138WAT     H118656   6.712   4.379   0.568
 6138WAT     H218657   6.759   4.282   0.445
 6139WAT      O18658   6.762   4.942   7.438
 6139WAT     H118659   6.692   4.909   7.375
 6139WAT     H218660   6.765   5.042   7.435
 6140WAT      O18661   1.943   3.602   9.169
 6140WAT     H118662   1.941   3.503   9.157
 6140WAT     H218663   1.852   3.639   9.152
 6141WAT      O18664   6.573   2.868   9.523
 6141WAT     H118665   6.643   2.817   9.575
 6141WAT     H218666   6.507   2.908   9.587
 6142WAT      O18667   4.872   1.042   6.403
 6142WAT     H118668   4.814   1.031   6.322
 6142WAT     H218669   4.968   1.036   6.376
 6143WAT      O18670   5.280   5.875   2.841
 6143WAT     H118671   5.193   5.923   2.852
 6143WAT     H218672   5.280   5.825   2.755
 6144WAT      O18673   7.479   6.336   5.224
 6144WAT     H118674   7.438   6.428   5.228
 6144WAT     H218675   7.553   6.336   5.157
 6145WAT      O18676   0.559   9.805   9.753
 6145WAT     H118677   0.473   9.831   9.709
 6145WAT     H218678   0.551   9.816   9.852
 6146WAT      O18679   9.001   9.092   4.952
 6146WAT     H118680   9.011   9.050   4.861
 6146WAT     H218681   8.953   9.179   4.943
 6147WAT      O18682   2.069   4.813   9.260
 6147WAT     H118683   2.093   4.825   9.164
 6147WAT     H218684   2.002   4.739   9.269
 6148WAT      O18685   9.051   3.031   4.167
 6148WAT     H118686   9.095   2.947   4.136
 6148WAT     H218687   9.108   3.110   4.143
 6149WAT      O18688   8.485   1.763   6.337
 6149WAT     H118689   8.534   1.809   6.411
 6149WAT     H218690   8.391   1.798   6.332
 6150WAT      O18691   7.422   2.940   9.398
 6150WAT     H118692   7.351   2.879   9.434
 6150WAT     H218693   7.464   2.990   9.474
 6151WAT      O18694   2.902   1.873   6.851
 6151WAT     H118695   2.869   1.778   6.852
 6151WAT     H218696   2.933   1.897   6.759
 6152WAT      O18697   0.805   1.621   6.679
 6152WAT     H118698   0.859   1.543   6.649
 6152WAT     H218699   0.826   1.700   6.620
 6153WAT      O18700   1.241   9.632   7.970
 6153WAT     H118701   1.280   9.541   7.953
 6153WAT     H218702   1.251   9.655   8.066
 6154WAT      O18703   0.712   5.532   5.688
 6154WAT     H118704   0.648   5.509   5.615
 6154WAT     H218705   0.748   5.448   5.729
 6155WAT      O18706   2.853   0.208   8.939
 6155WAT     H118707   2.916   0.226   9.014
 6155WAT     H218708   2.776   0.273   8.943
 6156WAT      O18709   2.836   6.983   6.317
 6156WAT     H118710   2.809   7.040   6.394
 6156WAT     H218711   2.766   6.987   6.246
 6157WAT      O18712   6.648   5.746   1.018
 6157WAT     H118713   6.556   5.717   0.993
 6157WAT     H218714   6.714   5.677   0.988
 6158WAT      O18715   7.075   0.079   7.423
 6158WAT     H118716   7.039   0.068   7.516
 6158WAT     H218717   7.157   0.136   7.426
 6159WAT      O18718   7.883   9.158   0.123
 6159WAT     H118719   7.960   9.200   0.172
 6159WAT     H218720   7.798   9.204   0.148
 6160WAT      O18721   7.992   2.292   1.782
 6160WAT     H118722   7.920   2.357   1.807
 6160WAT     H218723   8.065   2.341   1.733
 6161WAT      O18724   5.507   5.985   4.348
 6161WAT     H118725   5.430   5.963   4.408
 6161WAT     H218726   5.592   5.979   4.400
 6162WAT      O18727   7.466   0.433   8.974
 6162WAT     H118728   7.477   0.509   8.909
 6162WAT     H218729   7.471   0.468   9.067
 6163WAT      O18730   1.352   0.005   3.720
 6163WAT     H118731   1.272  -0.040   3.680
 6163WAT     H218732   1.435  -0.039   3.687
 6164WAT      O18733   9.686   6.220   3.585
 6164WAT     H118734   9.673   6.264   3.496
 6164WAT     H218735   9.710   6.289   3.654
 6165WAT      O18736   5.938   0.521   4.283
 6165WAT     H118737   6.006   0.580   4.326
 6165WAT     H218738   5.911   0.559   4.195
 6166WAT      O18739   7.224   2.039   4.909
 6166WAT     H118740   7.248   2.125   4.953
 6166WAT     H218741   7.298   2.011   4.848
 6167WAT      O18742   0.889   1.197   2.761
 6167WAT     H118743   0.927   1.156   2.844
 6167WAT     H218744   0.842   1.282   2.785
 6168WAT      O18745   2.857   1.141   5.678
 6168WAT     H118746   2.828   1.083   5.601
 6168WAT     H218747   2.951   1.120   5.703
 6169WAT      O18748   0.249   2.803   3.760
 6169WAT     H118749   0.323   2.752   3.803
 6169WAT     H218750   0.233   2.768   3.668
 6170WAT      O18751   0.290   6.483   3.289
 6170WAT     H118752   0.346   6.564   3.272
 6170WAT     H218753   0.286   6.466   3.388
 6171WAT      O18754   3.714   6.312   2.954
 6171WAT     H118755   3.653   6.371   3.008
 6171WAT     H218756   3.667   6.225   2.935
 6172WAT      O18757   9.057   4.940   3.323
 6172WAT     H118758   8.978   4.898   3.278
 6172WAT     H218759   9.141   4.910   3.277
 6173WAT      O18760   4.426   0.016   3.324
 6173WAT     H118761   4.495  -0.048   3.358
 6173WAT     H218762   4.466   0.074   3.253
 6174WAT      O18763   9.310   1.989   2.435
 6174WAT     H118764   9.377   1.994   2.509
 6174WAT     H218765   9.318   1.902   2.388
 6175WAT      O18766   3.385   1.711   0.701
 6175WAT     H118767   3.476   1.752   0.702
 6175WAT     H218768   3.392   1.614   0.722
 6176WAT      O18769   3.022   9.181   2.679
 6176WAT     H118770   2.947   9.178   2.745
 6176WAT     H218771   2.987   9.212   2.590
 6177WAT      O18772   1.609   0.550   3.008
 6177WAT     H118773   1.585   0.453   3.010
 6177WAT     H218774   1.683   0.565   2.943
 6178WAT      O18775   5.241   4.613   2.469
 6178WAT     H118776   5.314   4.655   2.415
 6178WAT     H218777   5.271   4.605   2.564
 6179WAT      O18778   4.024   8.145   4.214
 6179WAT     H118779   3.944   8.197   4.185
 6179WAT     H218780   4.013   8.115   4.308
 6180WAT      O18781   9.589   9.418   4.181
 6180WAT     H118782   9.626   9.327   4.166
 6180WAT     H218783   9.574   9.432   4.279
 6181WAT      O18784   1.776   5.112   0.766
 6181WAT     H118785   1.794   5.201   0.807
 6181WAT     H218786   1.764   5.044   0.839
 6182WAT      O18787   9.259   2.450   4.109
 6182WAT     H118788   9.295   2.393   4.183
 6182WAT     H218789   9.161   2.432   4.098
 6183WAT      O18790   7.826   7.794   6.568
 6183WAT     H118791   7.846   7.696   6.557
 6183WAT     H218792   7.734   7.813   6.531
 6184WAT      O18793   4.967   6.171   2.361
 6184WAT     H118794   4.938   6.262   2.391
 6184WAT     H218795   5.002   6.176   2.267
 6185WAT      O18796   5.309   6.209   0.634
 6185WAT     H118797   5.228   6.153   0.650
 6185WAT     H218798   5.297   6.261   0.549
 6186WAT      O18799   0.294   3.284   1.514
 6186WAT     H118800   0.378   3.233   1.495
 6186WAT     H218801   0.307   3.342   1.594
 6187WAT      O18802   8.153   6.608   1.329
 6187WAT     H118803   8.158   6.626   1.427
 6187WAT     H218804   8.215   6.533   1.307
 6188WAT      O18805   3.051   2.113   4.121
 6188WAT     H118806   3.147   2.132   4.145
 6188WAT     H218807   3.044   2.022   4.079
 6189WAT      O18808   7.690   0.020   2.864
 6189WAT     H118809   7.609   0.032   2.808
 6189WAT     H218810   7.679  -0.061   2.922
 6190WAT      O18811   5.045   2.969   1.518
 6190WAT     H118812   4.991   2.887   1.497
 6190WAT     H218813   4.989   3.050   1.501
 6191WAT      O18814   8.106   8.614   5.023
 6191WAT     H118815   8.103   8.600   4.924
 6191WAT     H218816   8.122   8.526   5.068
 6192WAT      O18817   7.026   3.494   1.147
 6192WAT     H118818   7.004   3.469   1.052
 6192WAT     H218819   6.956   3.458   1.208
 6193WAT      O18820   1.304   2.241   4.674
 6193WAT     H118821   1.223   2.296   4.656
 6193WAT     H218822   1.327   2.188   4.592
 6194WAT      O18823   1.403   7.397   9.148
 6194WAT     H118824   1.418   7.480   9.096
 6194WAT     H218825   1.372   7.420   9.240
 6195WAT      O18826   2.542   5.025   6.420
 6195WAT     H118827   2.506   4.973   6.343
 6195WAT     H218828   2.480   5.017   6.498
 6196WAT      O18829   3.110   6.604   4.852
 6196WAT     H118830   3.056   6.650   4.923
 6196WAT     H218831   3.052   6.539   4.803
 6197WAT      O18832   9.593   3.084   0.871
 6197WAT     H118833   9.534   3.005   0.883
 6197WAT     H218834   9.559   3.160   0.926
 6198WAT      O18835   7.878   0.523   0.371
 6198WAT     H118836   7.879   0.486   0.464
 6198WAT     H218837   7.825   0.607   0.370
 6199WAT      O18838   7.710   3.595   6.797
 6199WAT     H118839   7.709   3.506   6.843
 6199WAT     H218840   7.794   3.643   6.820
 6200WAT      O18841   3.263   8.921   8.270
 6200WAT     H118842   3.171   8.884   8.284
 6200WAT     H218843   3.311   8.867   8.200
 6201WAT      O18844   9.009   3.383   8.296
 6201WAT     H118845   8.933   3.424   8.245
 6201WAT     H218846   9.095   3.407   8.252
 6202WAT      O18847   1.844   4.674   0.649
 6202WAT     H118848   1.915   4.744   0.644
 6202WAT     H218849   1.882   4.587   0.616
 6203WAT      O18850   5.040   2.181   5.921
 6203WAT     H118851   5.123   2.218   5.879
 6203WAT     H218852   4.972   2.161   5.850
 6204WAT      O18853   9.219   7.950   1.415
 6204WAT     H118854   9.287   7.979   1.483
 6204WAT     H218855   9.257   7.876   1.359
 6205WAT      O18856   1.347   7.549   2.596
 6205WAT     H118857   1.403   7.535   2.514
 6205WAT     H218858   1.341   7.646   2.617
 6206WAT      O18859   4.514   8.216   0.831
 6206WAT     H118860   4.611   8.234   0.813
 6206WAT     H218861   4.470   8.300   0.862
 6207WAT      O18862   8.520   5.248   3.154
 6207WAT     H118863   8.559   5.156   3.154
 6207WAT     H218864   8.435   5.249   3.206
 6208WAT      O18865   1.480   3.059   5.829
 6208WAT     H118866   1.485   2.972   5.780
 6208WAT     H218867   1.521   3.049   5.919
 6209WAT      O18868   1.170   7.668   4.680
 6209WAT     H118869   1.245   7.673   4.615
 6209WAT     H218870   1.084   7.691   4.634
 6210WAT      O18871   7.394   2.879   3.480
 6210WAT     H118872   7.491   2.887   3.504
 6210WAT     H218873   7.384   2.886   3.380
 6211WAT      O18874   2.644   3.602   2.720
 6211WAT     H118875   2.639   3.507   2.751
 6211WAT     H218876   2.710   3.652   2.776
 6212WAT      O18877   6.502   2.147   4.037
 6212WAT     H118878   6.547   2.075   4.089
 6212WAT     H218879   6.429   2.188   4.092
 6213WAT      O18880   2.349   6.356   5.764
 6213WAT     H118881   2.435   6.355   5.815
 6213WAT     H218882   2.273   6.379   5.825
 6214WAT      O18883   3.087   0.227   6.383
 6214WAT     H118884   3.109   0.224   6.480
 6214WAT     H218885   3.062   0.136   6.351
 6215WAT      O18886   8.451   9.468   4.534
 6215WAT     H118887   8.354   9.483   4.551
 6215WAT     H218888   8.462   9.421   4.446
 6216WAT      O18889   6.348   3.789   2.725
 6216WAT     H118890   6.258   3.816   2.689
 6216WAT     H218891   6.387   3.865   2.778
 6217WAT      O18892   2.797   8.707   8.290
 6217WAT     H118893   2.741   8.789   8.277
 6217WAT     H218894   2.759   8.652   8.364
 6218WAT      O18895   8.313   9.667   6.811
 6218WAT     H118896   8.336   9.584   6.862
 6218WAT     H218897   8.215   9.687   6.822
 6219WAT      O18898   9.246   2.595   5.716
 6219WAT     H118899   9.253   2.682   5.668
 6219WAT     H218900   9.170   2.598   5.780
 6220WAT      O18901   4.015   2.159   4.321
 6220WAT     H118902   4.078   2.156   4.398
 6220WAT     H218903   4.018   2.250   4.279
 6221WAT      O18904   2.958   5.028   4.609
 6221WAT     H118905   2.992   5.103   4.552
 6221WAT     H218906   2.967   5.053   4.705
 6222WAT      O18907   7.285   6.760   2.952
 6222WAT     H118908   7.242   6.767   3.042
 6222WAT     H218909   7.338   6.675   2.947
 6223WAT      O18910   7.067   9.161   2.096
 6223WAT     H118911   7.095   9.070   2.063
 6223WAT     H218912   7.147   9.211   2.129
 6224WAT      O18913   1.342   7.821   3.481
 6224WAT     H118914   1.253   7.797   3.442
 6224WAT     H218915   1.414   7.774   3.431
 6225WAT      O18916   4.368   4.247   1.144
 6225WAT     H118917   4.321   4.159   1.136
 6225WAT     H218918   4.467   4.231   1.153
 6226WAT      O18919   6.914   2.800   0.212
 6226WAT     H118920   6.830   2.853   0.207
 6226WAT     H218921   6.892   2.702   0.214
 6227WAT      O18922   0.348   9.372   9.293
 6227WAT     H118923   0.345   9.324   9.205
 6227WAT     H218924   0.441   9.366   9.331
 6228WAT      O18925   6.146   4.933   4.535
 6228WAT     H118926   6.189   4.966   4.619
 6228WAT     H218927   6.180   4.841   4.513
 6229WAT      O18928   8.890   0.665   2.143
 6229WAT     H118929   8.936   0.699   2.224
 6229WAT     H218930   8.791   0.677   2.153
 6230WAT      O18931   9.144   5.897   7.630
 6230WAT     H118932   9.116   5.823   7.692
 6230WAT     H218933   9.089   5.893   7.547
 6231WAT      O18934   5.506   4.842   6.698
 6231WAT     H118935   5.433   4.873   6.759
 6231WAT     H218936   5.545   4.921   6.650
 6232WAT      O18937   9.403   1.831   1.918
 6232WAT     H118938   9.434   1.887   1.841
 6232WAT     H218939   9.408   1.885   2.002
 6233WAT      O18940   6.109   0.631   5.031
 6233WAT     H118941   6.108   0.706   5.096
 6233WAT     H218942   6.156   0.660   4.947
 6234WAT      O18943   6.014   0.618   1.911
 6234WAT     H118944   6.023   0.695   1.974
 6234WAT     H218945   5.919   0.584   1.913
 6235WAT      O18946   8.344   7.368   6.532
 6235WAT     H118947   8.367   7.464   6.548
 6235WAT     H218948   8.322   7.325   6.620
 6236WAT      O18949   3.286   8.630   9.177
 6236WAT     H118950   3.221   8.559   9.149
 6236WAT     H218951   3.366   8.626   9.118
 6237WAT      O18952   8.610   1.549   2.867
 6237WAT     H118953   8.672   1.576   2.793
 6237WAT     H218954   8.561   1.466   2.841
 6238WAT      O18955   5.530   2.372   6.547
 6238WAT     H118956   5.623   2.338   6.533
 6238WAT     H218957   5.533   2.464   6.586
 6239WAT      O18958   3.633   4.831   0.524
 6239WAT     H118959   3.535   4.850   0.511
 6239WAT     H218960   3.647   4.789   0.614
 6240WAT      O18961   2.720   9.683   0.389
 6240WAT     H118962   2.626   9.687   0.356
 6240WAT     H218963   2.763   9.598   0.358
 6241WAT      O18964   0.394   7.629   0.339
 6241WAT     H118965   0.435   7.575   0.265
 6241WAT     H218966   0.467   7.665   0.398
 6242WAT      O18967   8.095   2.414   4.855
 6242WAT     H118968   8.022   2.479   4.877
 6242WAT     H218969   8.142   2.443   4.772
 6243WAT      O18970   8.356   4.334   0.367
 6243WAT     H118971   8.383   4.410   0.426
 6243WAT     H218972   8.350   4.366   0.272
 6244WAT      O18973   8.380   3.706   9.454
 6244WAT     H118974   8.353   3.802   9.443
 6244WAT     H218975   8.311   3.657   9.507
 6245WAT      O18976   7.073   8.926   1.232
 6245WAT     H118977   7.108   8.995   1.295
 6245WAT     H218978   6.973   8.925   1.235
 6246WAT      O18979   8.251   7.023   3.526
 6246WAT     H118980   8.157   6.999   3.500
 6246WAT     H218981   8.255   7.036   3.625
 6247WAT      O18982   9.494   6.379   1.382
 6247WAT     H118983   9.592   6.359   1.382
 6247WAT     H218984   9.472   6.440   1.459
 6248WAT      O18985   0.654   4.582   1.075
 6248WAT     H118986   0.693   4.543   1.159
 6248WAT     H218987   0.566   4.625   1.097
 6249WAT      O18988   1.542   1.693   0.990
 6249WAT     H118989   1.640   1.683   1.002
 6249WAT     H218990   1.504   1.609   0.950
 6250WAT      O18991   4.048   5.891   6.322
 6250WAT     H118992   4.032   5.863   6.227
 6250WAT     H218993   3.973   5.949   6.352
 6251WAT      O18994   8.957   7.508   7.376
 6251WAT     H118995   8.914   7.432   7.425
 6251WAT     H218996   9.012   7.472   7.300
 6252WAT      O18997   7.001   6.287   5.317
 6252WAT     H118998   7.000   6.348   5.397
 6252WAT     H218999   7.073   6.315   5.254
 6253WAT      O19000   2.272   1.408   5.916
 6253WAT     H119001   2.195   1.394   5.977
 6253WAT     H219002   2.292   1.506   5.908
 6254WAT      O19003   3.937   6.515   3.951
 6254WAT     H119004   4.011   6.533   3.886
 6254WAT     H219005   3.850   6.545   3.912
 6255WAT      O19006   4.989   5.968   2.542
 6255WAT     H119007   4.986   5.979   2.641
 6255WAT     H219008   5.010   6.056   2.499
 6256WAT      O19009   4.264   4.915   6.765
 6256WAT     H119010   4.293   4.839   6.707
 6256WAT     H219011   4.319   4.996   6.745
 6257WAT      O19012   7.221   3.464   5.184
 6257WAT     H119013   7.244   3.406   5.262
 6257WAT     H219014   7.153   3.532   5.212
 6258WAT      O19015   1.504   2.333   1.919
 6258WAT     H119016   1.498   2.362   1.824
 6258WAT     H219017   1.555   2.247   1.925
 6259WAT      O19018   6.612   7.186   8.000
 6259WAT     H119019   6.565   7.275   8.001
 6259WAT     H219020   6.598   7.140   8.087
 6260WAT      O19021   5.682   6.385   4.846
 6260WAT     H119022   5.625   6.439   4.785
 6260WAT     H219023   5.687   6.291   4.812
 6261WAT      O19024   8.546   7.015   4.970
 6261WAT     H119025   8.452   7.046   4.960
 6261WAT     H219026   8.549   6.932   5.026
 6262WAT      O19027   4.275   4.673   1.494
 6262WAT     H119028   4.262   4.753   1.435
 6262WAT     H219029   4.260   4.590   1.441
 6263WAT      O19030   7.578   6.944   4.869
 6263WAT     H119031   7.651   6.911   4.809
 6263WAT     H219032   7.571   6.883   4.948
 6264WAT      O19033   0.577   9.756   6.837
 6264WAT     H119034   0.579   9.701   6.921
 6264WAT     H219035   0.633   9.838   6.850
 6265WAT      O19036   8.465   3.192   8.919
 6265WAT     H119037   8.498   3.223   8.830
 6265WAT     H219038   8.449   3.093   8.916
 6266WAT      O19039   8.722   9.138   8.798
 6266WAT     H119040   8.664   9.177   8.726
 6266WAT     H219041   8.739   9.041   8.777
 6267WAT      O19042   6.909   8.076   4.287
 6267WAT     H119043   7.006   8.099   4.284
 6267WAT     H219044   6.857   8.142   4.232
 6268WAT      O19045   8.020   8.394   4.852
 6268WAT     H119046   7.954   8.337   4.802
 6268WAT     H219047   8.042   8.349   4.938
 6269WAT      O19048   9.325   7.464   4.267
 6269WAT     H119049   9.251   7.508   4.217
 6269WAT     H219050   9.298   7.371   4.293
 6270WAT      O19051   4.942   1.931   8.267
 6270WAT     H119052   4.870   1.916   8.335
 6270WAT     H219053   4.969   2.028   8.268
 6271WAT      O19054   1.354   2.562   4.688
 6271WAT     H119055   1.266   2.609   4.680
 6271WAT     H219056   1.340   2.463   4.686
 6272WAT      O19057   4.727   7.115   5.932
 6272WAT     H119058   4.742   7.142   5.837
 6272WAT     H219059   4.637   7.145   5.962
 6273WAT      O19060   4.339   2.361   2.866
 6273WAT     H119061   4.333   2.283   2.928
 6273WAT     H219062   4.286   2.437   2.903
 6274WAT      O19063   2.744   6.678   0.861
 6274WAT     H119064   2.750   6.582   0.834
 6274WAT     H219065   2.650   6.711   0.846
 6275WAT      O19066   7.673   3.245   1.131
 6275WAT     H119067   7.726   3.249   1.046
 6275WAT     H219068   7.662   3.337   1.167
 6276WAT      O19069   4.442   0.759   7.142
 6276WAT     H119070   4.399   0.677   7.103
 6276WAT     H219071   4.477   0.737   7.233
 6277WAT      O19072   3.634   0.959   1.306
 6277WAT     H119073   3.721   0.934   1.349
 6277WAT     H219074   3.570   0.988   1.377
 6278WAT      O19075   0.807   9.667   8.160
 6278WAT     H119076   0.709   9.665   8.142
 6278WAT     H219077   0.853   9.601   8.100
 6279WAT      O19078   9.068   1.846   3.983
 6279WAT     H119079   8.984   1.901   3.993
 6279WAT     H219080   9.147   1.907   3.983
 6280WAT      O19081   8.532   7.250   0.809
 6280WAT     H119082   8.601   7.192   0.768
 6280WAT     H219083   8.531   7.236   0.908
 6281WAT      O19084   6.690   6.690   8.574
 6281WAT     H119085   6.647   6.624   8.636
 6281WAT     H219086   6.742   6.642   8.504
 6282WAT      O19087   7.982   4.577   5.008
 6282WAT     H119088   8.009   4.664   4.966
 6282WAT     H219089   8.059   4.514   5.008
 6283WAT      O19090   1.060   8.546   0.332
 6283WAT     H119091   1.147   8.577   0.370
 6283WAT     H219092   1.040   8.597   0.248
 6284WAT      O19093   2.099   7.862   0.043
 6284WAT     H119094   2.136   7.924  -0.026
 6284WAT     H219095   2.051   7.786  -0.002
 6285WAT      O19096   2.291   5.138   3.480
 6285WAT     H119097   2.291   5.219   3.538
 6285WAT     H219098   2.227   5.071   3.517
 6286WAT      O19099   3.188   6.218   6.896
 6286WAT     H119100   3.281   6.183   6.907
 6286WAT     H219101   3.153   6.191   6.806
 6287WAT      O19102   2.891   6.233   1.704
 6287WAT     H119103   2.875   6.227   1.605
 6287WAT     H219104   2.986   6.261   1.720
 6288WAT      O19105   6.527   7.940   8.326
 6288WAT     H119106   6.476   7.855   8.337
 6288WAT     H219107   6.487   7.994   8.253
 6289WAT      O19108   5.480   8.834   1.715
 6289WAT     H119109   5.438   8.767   1.654
 6289WAT     H219110   5.575   8.806   1.734
 6290WAT      O19111   7.041   0.361   3.493
 6290WAT     H119112   7.102   0.440   3.502
 6290WAT     H219113   7.094   0.277   3.497
 6291WAT      O19114   0.794   2.207   4.966
 6291WAT     H119115   0.769   2.131   4.905
 6291WAT     H219116   0.874   2.181   5.020
 6292WAT      O19117   7.049   7.445   4.910
 6292WAT     H119118   6.968   7.485   4.953
 6292WAT     H219119   7.085   7.372   4.968
 6293WAT      O19120   3.150   7.584   1.791
 6293WAT     H119121   3.181   7.489   1.787
 6293WAT     H219122   3.075   7.593   1.857
 6294WAT      O19123   3.924   9.780   5.834
 6294WAT     H119124   3.970   9.811   5.917
 6294WAT     H219125   3.927   9.852   5.765
 6295WAT      O19126   7.635   0.889   4.655
 6295WAT     H119127   7.726   0.873   4.616
 6295WAT     H219128   7.599   0.976   4.620
 6296WAT      O19129   3.026   3.536   6.680
 6296WAT     H119130   3.082   3.454   6.692
 6296WAT     H219131   3.013   3.553   6.582
 6297WAT      O19132   6.365   1.614   3.118
 6297WAT     H119133   6.407   1.561   3.045
 6297WAT     H219134   6.406   1.705   3.122
 6298WAT      O19135   3.058   8.496   1.732
 6298WAT     H119136   2.974   8.507   1.679
 6298WAT     H219137   3.043   8.432   1.807
 6299WAT      O19138   3.691   4.642   7.130
 6299WAT     H119139   3.719   4.714   7.066
 6299WAT     H219140   3.592   4.633   7.128
 6300WAT      O19141   5.263   3.761   2.145
 6300WAT     H119142   5.244   3.748   2.048
 6300WAT     H219143   5.301   3.852   2.160
 6301WAT      O19144   7.243   4.491   0.951
 6301WAT     H119145   7.251   4.566   0.886
 6301WAT     H219146   7.175   4.514   1.021
 6302WAT      O19147   2.440   6.254   8.390
 6302WAT     H119148   2.521   6.198   8.407
 6302WAT     H219149   2.367   6.197   8.352
 6303WAT      O19150   9.470   0.218   4.528
 6303WAT     H119151   9.521   0.238   4.444
 6303WAT     H219152   9.373   0.234   4.513
 6304WAT      O19153   5.793   4.310   5.455
 6304WAT     H119154   5.694   4.301   5.439
 6304WAT     H219155   5.834   4.360   5.379
 6305WAT      O19156   0.856   6.710   2.629
 6305WAT     H119157   0.903   6.654   2.561
 6305WAT     H219158   0.816   6.790   2.586
 6306WAT      O19159   5.174   3.722   3.535
 6306WAT     H119160   5.140   3.637   3.494
 6306WAT     H219161   5.267   3.740   3.501
 6307WAT      O19162   5.258   8.343   0.731
 6307WAT     H119163   5.193   8.307   0.664
 6307WAT     H219164   5.241   8.301   0.820
 6308WAT      O19165   1.487   1.553   5.371
 6308WAT     H119166   1.568   1.599   5.408
 6308WAT     H219167   1.514   1.464   5.333
 6309WAT      O19168   8.212   4.088   3.591
 6309WAT     H119169   8.189   4.161   3.527
 6309WAT     H219170   8.140   4.078   3.659
 6310WAT      O19171   0.329   6.145   5.663
 6310WAT     H119172   0.375   6.061   5.635
 6310WAT     H219173   0.382   6.224   5.634
 6311WAT      O19174   3.226   0.184   8.770
 6311WAT     H119175   3.138   0.168   8.727
 6311WAT     H219176   3.249   0.107   8.830
 6312WAT      O19177   7.522   6.982   6.926
 6312WAT     H119178   7.528   6.974   6.827
 6312WAT     H219179   7.558   7.071   6.955
 6313WAT      O19180   6.938   5.851   3.952
 6313WAT     H119181   6.889   5.773   3.991
 6313WAT     H219182   7.035   5.844   3.975
 6314WAT      O19183   5.772   7.330   1.707
 6314WAT     H119184   5.786   7.290   1.616
 6314WAT     H219185   5.751   7.427   1.697
 6315WAT      O19186   1.000   8.451   7.451
 6315WAT     H119187   0.903   8.474   7.455
 6315WAT     H219188   1.024   8.393   7.530
 6316WAT      O19189   6.212   2.739   2.390
 6316WAT     H119190   6.197   2.684   2.472
 6316WAT     H219191   6.305   2.725   2.356
 6317WAT      O19192   6.237   0.355   9.826
 6317WAT     H119193   6.315   0.354   9.889
 6317WAT     H219194   6.265   0.398   9.740
 6318WAT      O19195   5.233   7.133   9.596
 6318WAT     H119196   5.300   7.094   9.659
 6318WAT     H219197   5.251   7.231   9.584
 6319WAT      O19198   0.146   8.919   6.251
 6319WAT     H119199   0.149   8.881   6.343
 6319WAT     H219200   0.110   8.851   6.188
 6320WAT      O19201   8.406   2.811   5.829
 6320WAT     H119202   8.446   2.847   5.745
 6320WAT     H219203   8.469   2.827   5.905
 6321WAT      O19204   1.130   6.706   4.466
 6321WAT     H119205   1.068   6.722   4.389
 6321WAT     H219206   1.101   6.762   4.544
 6322WAT      O19207   8.098   7.529   9.783
 6322WAT     H119208   8.035   7.472   9.835
 6322WAT     H219209   8.072   7.625   9.794
 6323WAT      O19210   4.765   5.932   0.327
 6323WAT     H119211   4.729   5.840   0.317
 6323WAT     H219212   4.831   5.951   0.254
 6324WAT      O19213   8.344   6.487   6.551
 6324WAT     H119214   8.329   6.444   6.462
 6324WAT     H219215   8.372   6.418   6.617
 6325WAT      O19216   5.485   3.909   8.640
 6325WAT     H119217   5.506   3.983   8.576
 6325WAT     H219218   5.400   3.928   8.687
 6326WAT      O19219   0.557   3.476   9.735
 6326WAT     H119220   0.506   3.470   9.821
 6326WAT     H219221   0.631   3.542   9.745
 6327WAT      O19222   7.025   4.913   0.500
 6327WAT     H119223   7.011   4.836   0.563
 6327WAT     H219224   6.980   4.995   0.537
 6328WAT      O19225   4.735   7.834   5.372
 6328WAT     H119226   4.735   7.878   5.283
 6328WAT     H219227   4.725   7.735   5.361
 6329WAT      O19228   6.761   9.053   0.258
 6329WAT     H119229   6.821   9.095   0.190
 6329WAT     H219230   6.795   8.962   0.281
 6330WAT      O19231   0.402   7.745   1.830
 6330WAT     H119232   0.408   7.649   1.857
 6330WAT     H219233   0.492   7.787   1.835
 6331WAT      O19234   0.538   7.076   7.397
 6331WAT     H119235   0.575   6.986   7.377
 6331WAT     H219236   0.605   7.129   7.448
 6332WAT      O19237   6.927   1.215   3.318
 6332WAT     H119238   6.930   1.133   3.375
 6332WAT     H219239   6.975   1.289   3.365
 6333WAT      O19240   9.167   6.232   2.796
 6333WAT     H119241   9.127   6.309   2.846
 6333WAT     H219242   9.242   6.264   2.738
 6334WAT      O19243   5.244   8.854   0.254
 6334WAT     H119244   5.310   8.880   0.325
 6334WAT     H219245   5.151   8.876   0.285
 6335WAT      O19246   9.049   3.018   3.703
 6335WAT     H119247   8.978   3.087   3.711
 6335WAT     H219248   9.129   3.046   3.756
 6336WAT      O19249   6.515   6.485   2.826
 6336WAT     H119250   6.521   6.585   2.823
 6336WAT     H219251   6.420   6.459   2.842
 6337WAT      O19252   0.086   3.605   6.627
 6337WAT     H119253  -0.004   3.584   6.589
 6337WAT     H219254   0.150   3.621   6.552
 6338WAT      O19255   6.607   3.875   4.692
 6338WAT     H119256   6.584   3.849   4.599
 6338WAT     H219257   6.658   3.961   4.691
 6339WAT      O19258   1.165   2.186   2.121
 6339WAT     H119259   1.097   2.201   2.050
 6339WAT     H219260   1.127   2.125   2.191
 6340WAT      O19261   4.305   5.960   6.821
 6340WAT     H119262   4.262   5.963   6.731
 6340WAT     H219263   4.313   6.052   6.858
 6341WAT      O19264   1.280   9.251   9.496
 6341WAT     H119265   1.346   9.177   9.484
 6341WAT     H219266   1.250   9.255   9.591
 6342WAT      O19267   6.247   0.132   0.841
 6342WAT     H119268   6.256   0.229   0.865
 6342WAT     H219269   6.166   0.119   0.784
 6343WAT      O19270   6.246   3.546   9.126
 6343WAT     H119271   6.233   3.562   9.029
 6343WAT     H219272   6.331   3.589   9.157
 6344WAT      O19273   7.456   3.954   6.761
 6344WAT     H119274   7.419   4.012   6.689
 6344WAT     H219275   7.556   3.955   6.756
 6345WAT      O19276   6.187   2.049   4.375
 6345WAT     H119277   6.138   2.125   4.417
 6345WAT     H219278   6.193   1.973   4.440
 6346WAT      O19279   6.347   2.114   6.152
 6346WAT     H119280   6.313   2.163   6.233
 6346WAT     H219281   6.316   2.019   6.155
 6347WAT      O19282   1.516   7.874   2.570
 6347WAT     H119283   1.484   7.966   2.549
 6347WAT     H219284   1.539   7.826   2.485
 6348WAT      O19285   8.892   3.264   1.757
 6348WAT     H119286   8.917   3.273   1.853
 6348WAT     H219287   8.843   3.347   1.728
 6349WAT      O19288   5.857   6.615   8.666
 6349WAT     H119289   5.886   6.655   8.753
 6349WAT     H219290   5.797   6.678   8.617
 6350WAT      O19291   5.119   2.062   1.536
 6350WAT     H119292   5.146   2.013   1.619
 6350WAT     H219293   5.090   2.154   1.561
 6351WAT      O19294   0.590   7.925   2.557
 6351WAT     H119295   0.634   7.970   2.635
 6351WAT     H219296   0.641   7.843   2.533
 6352WAT      O19297   0.925   9.108   1.350
 6352WAT     H119298   0.990   9.169   1.395
 6352WAT     H219299   0.912   9.026   1.406
 6353WAT      O19300   7.171   7.822   2.892
 6353WAT     H119301   7.212   7.912   2.908
 6353WAT     H219302   7.170   7.803   2.794
 6354WAT      O19303   0.677   9.198   4.513
 6354WAT     H119304   0.583   9.219   4.489
 6354WAT     H219305   0.738   9.265   4.472
 6355WAT      O19306   7.200   5.068   2.533
 6355WAT     H119307   7.277   5.102   2.479
 6355WAT     H219308   7.232   5.038   2.623
 6356WAT      O19309   4.791   3.304   8.519
 6356WAT     H119310   4.704   3.264   8.491
 6356WAT     H219311   4.801   3.295   8.618
 6357WAT      O19312   7.860   2.899   3.171
 6357WAT     H119313   7.926   2.834   3.208
 6357WAT     H219314   7.780   2.849   3.138
 6358WAT      O19315   6.386   4.851   1.225
 6358WAT     H119316   6.373   4.753   1.240
 6358WAT     H219317   6.447   4.888   1.295
 6359WAT      O19318   2.222   4.455   4.048
 6359WAT     H119319   2.157   4.503   3.988
 6359WAT     H219320   2.295   4.518   4.075
 6360WAT      O19321   7.668   1.580   2.445
 6360WAT     H119322   7.739   1.559   2.378
 6360WAT     H219323   7.652   1.500   2.502
 6361WAT      O19324   9.767   2.972   0.538
 6361WAT     H119325   9.745   2.885   0.581
 6361WAT     H219326   9.792   2.956   0.442
 6362WAT      O19327   1.108   2.641   3.679
 6362WAT     H119328   1.127   2.660   3.582
 6362WAT     H219329   1.056   2.556   3.686
 6363WAT      O19330   6.740   5.584   6.826
 6363WAT     H119331   6.792   5.591   6.740
 6363WAT     H219332   6.659   5.642   6.820
 6364WAT      O19333   2.303   4.398   6.349
 6364WAT     H119334   2.345   4.489   6.354
 6364WAT     H219335   2.329   4.354   6.263
 6365WAT      O19336   2.648   0.356   8.795
 6365WAT     H119337   2.712   0.410   8.741
 6365WAT     H219338   2.624   0.273   8.745
 6366WAT      O19339   0.334   1.291   5.643
 6366WAT     H119340   0.292   1.305   5.732
 6366WAT     H219341   0.390   1.208   5.644
 6367WAT      O19342   0.347   3.249   0.612
 6367WAT     H119343   0.299   3.331   0.578
 6367WAT     H219344   0.443   3.253   0.586
 6368WAT      O19345   6.112   0.336   5.489
 6368WAT     H119346   6.155   0.259   5.441
 6368WAT     H219347   6.066   0.395   5.424
 6369WAT      O19348   0.608   5.133   3.501
 6369WAT     H119349   0.679   5.147   3.570
 6369WAT     H219350   0.649   5.137   3.410
 6370WAT      O19351   8.834   7.388   0.714
 6370WAT     H119352   8.826   7.481   0.679
 6370WAT     H219353   8.772   7.328   0.664
 6371WAT      O19354   3.017   2.532   3.571
 6371WAT     H119355   3.100   2.503   3.523
 6371WAT     H219356   2.979   2.454   3.620
 6372WAT      O19357   0.627   7.599   6.036
 6372WAT     H119358   0.572   7.540   6.095
 6372WAT     H219359   0.642   7.554   5.948
 6373WAT      O19360   0.702   5.305   2.948
 6373WAT     H119361   0.692   5.375   3.018
 6373WAT     H219362   0.798   5.300   2.919
 6374WAT      O19363   1.062   7.149   1.346
 6374WAT     H119364   1.066   7.111   1.438
 6374WAT     H219365   0.979   7.119   1.301
 6375WAT      O19366   8.039   3.229   8.066
 6375WAT     H119367   8.008   3.321   8.045
 6375WAT     H219368   8.137   3.231   8.086
 6376WAT      O19369   2.530   9.249   1.395
 6376WAT     H119370   2.490   9.172   1.444
 6376WAT     H219371   2.606   9.217   1.339
 6377WAT      O19372   8.127   0.680   4.180
 6377WAT     H119373   8.146   0.680   4.278
 6377WAT     H219374   8.189   0.744   4.134
 6378WAT      O19375   3.923   9.194   3.661
 6378WAT     H119376   3.875   9.254   3.597
 6378WAT     H219377   3.869   9.184   3.744
 6379WAT      O19378   9.640   1.334   0.305
 6379WAT     H119379   9.542   1.337   0.283
 6379WAT     H219380   9.654   1.289   0.393
 6380WAT      O19381   2.857   4.563   6.408
 6380WAT     H119382   2.858   4.655   6.368
 6380WAT     H219383   2.884   4.569   6.504
 6381WAT      O19384   2.728   1.363   5.802
 6381WAT     H119385   2.760   1.280   5.755
 6381WAT     H219386   2.785   1.380   5.882
 6382WAT      O19387   3.706   7.318   5.367
 6382WAT     H119388   3.627   7.325   5.428
 6382WAT     H219389   3.732   7.221   5.359
 6383WAT      O19390   4.106   0.274   5.109
 6383WAT     H119391   4.169   0.315   5.175
 6383WAT     H219392   4.095   0.177   5.131
 6384WAT      O19393   8.493   6.709   2.885
 6384WAT     H119394   8.521   6.727   2.791
 6384WAT     H219395   8.506   6.612   2.906
 6385WAT      O19396   5.392   9.012   3.342
 6385WAT     H119397   5.305   8.969   3.364
 6385WAT     H219398   5.386   9.110   3.359
 6386WAT      O19399   2.357   2.964   0.800
 6386WAT     H119400   2.381   3.043   0.744
 6386WAT     H219401   2.261   2.940   0.787
 6387WAT      O19402   6.536   3.515   3.832
 6387WAT     H119403   6.494   3.564   3.909
 6387WAT     H219404   6.585   3.579   3.774
 6388WAT      O19405   6.599   2.968   9.007
 6388WAT     H119406   6.611   3.066   9.025
 6388WAT     H219407   6.582   2.921   9.094
 6389WAT      O19408   4.375   2.432   6.553
 6389WAT     H119409   4.309   2.507   6.554
 6389WAT     H219410   4.370   2.382   6.640
 6390WAT      O19411   4.139   6.137   4.694
 6390WAT     H119412   4.224   6.155   4.742
 6390WAT     H219413   4.093   6.057   4.733
 6391WAT      O19414   0.788   6.344   3.565
 6391WAT     H119415   0.820   6.296   3.646
 6391WAT     H219416   0.759   6.277   3.496
 6392WAT      O19417   9.681   5.515   8.906
 6392WAT     H119418   9.621   5.443   8.872
 6392WAT     H219419   9.759   5.524   8.845
 6393WAT      O19420   1.442   4.700   4.846
 6393WAT     H119421   1.353   4.659   4.862
 6393WAT     H219422   1.514   4.640   4.883
 6394WAT      O19423   2.437   1.516   8.235
 6394WAT     H119424   2.512   1.451   8.246
 6394WAT     H219425   2.353   1.476   8.272
 6395WAT      O19426   1.494   0.753   4.484
 6395WAT     H119427   1.411   0.768   4.538
 6395WAT     H219428   1.485   0.799   4.395
 6396WAT      O19429   0.836   7.652   6.185
 6396WAT     H119430   0.772   7.620   6.114
 6396WAT     H219431   0.875   7.740   6.156
 6397WAT      O19432   4.496   6.263   5.381
 6397WAT     H119433   4.453   6.353   5.383
 6397WAT     H219434   4.483   6.221   5.292
 6398WAT      O19435   8.272   0.106   6.130
 6398WAT     H119436   8.223   0.183   6.172
 6398WAT     H219437   8.207   0.039   6.096
 6399WAT      O19438   9.368   9.092   3.165
 6399WAT     H119439   9.287   9.149   3.157
 6399WAT     H219440   9.450   9.148   3.153
 6400WAT      O19441   0.917   0.306   9.412
 6400WAT     H119442   1.006   0.262   9.409
 6400WAT     H219443   0.848   0.242   9.446
 6401WAT      O19444   1.775   2.359   0.294
 6401WAT     H119445   1.757   2.303   0.374
 6401WAT     H219446   1.713   2.438   0.294
 6402WAT      O19447   0.186   0.665   4.265
 6402WAT     H119448   0.167   0.639   4.360
 6402WAT     H219449   0.144   0.754   4.246
 6403WAT      O19450   6.379   8.712   8.970
 6403WAT     H119451   6.293   8.742   8.929
 6403WAT     H219452   6.362   8.630   9.025
 6404WAT      O19453   5.741   8.458   3.498
 6404WAT     H119454   5.778   8.523   3.431
 6404WAT     H219455   5.655   8.421   3.464
 6405WAT      O19456   4.693   5.678   9.333
 6405WAT     H119457   4.608   5.677   9.385
 6405WAT     H219458   4.764   5.725   9.385
 6406WAT      O19459   7.626   5.738   4.071
 6406WAT     H119460   7.573   5.815   4.035
 6406WAT     H219461   7.566   5.659   4.082
 6407WAT      O19462   5.980   6.641   9.791
 6407WAT     H119463   6.054   6.662   9.855
 6407WAT     H219464   6.012   6.574   9.724
 6408WAT      O19465   3.289   0.976   8.433
 6408WAT     H119466   3.279   0.878   8.452
 6408WAT     H219467   3.273   1.027   8.517
 6409WAT      O19468   2.111   5.730   4.731
 6409WAT     H119469   2.054   5.803   4.694
 6409WAT     H219470   2.151   5.677   4.655
 6410WAT      O19471   1.784   0.888   2.057
 6410WAT     H119472   1.715   0.823   2.024
 6410WAT     H219473   1.818   0.942   1.980
 6411WAT      O19474   4.239   8.538   1.714
 6411WAT     H119475   4.323   8.556   1.663
 6411WAT     H219476   4.167   8.509   1.651
 6412WAT      O19477   4.979   5.653   8.957
 6412WAT     H119478   4.978   5.752   8.968
 6412WAT     H219479   4.959   5.609   9.045
 6413WAT      O19480   0.031   4.044   1.449
 6413WAT     H119481   0.069   3.971   1.392
 6413WAT     H219482   0.038   4.131   1.401
 6414WAT      O19483   3.079   8.088   3.766
 6414WAT     H119484   3.090   8.130   3.676
 6414WAT     H219485   3.058   7.991   3.755
 6415WAT      O19486   2.423   7.256   9.651
 6415WAT     H119487   2.354   7.305   9.598
 6415WAT     H219488   2.414   7.158   9.633
 6416WAT      O19489   2.528   5.442   8.018
 6416WAT     H119490   2.586   5.516   7.984
 6416WAT     H219491   2.567   5.354   7.991
 6417WAT      O19492   3.731   1.734   6.547
 6417WAT     H119493   3.633   1.734   6.566
 6417WAT     H219494   3.768   1.826   6.562
 6418WAT      O19495   9.603   4.611   2.938
 6418WAT     H119496   9.655   4.574   2.861
 6418WAT     H219497   9.663   4.665   2.997
 6419WAT      O19498   7.873   6.168   7.586
 6419WAT     H119499   7.776   6.147   7.575
 6419WAT     H219500   7.889   6.209   7.676
 6420WAT      O19501   5.516   0.202   1.529
 6420WAT     H119502   5.561   0.291   1.531
 6420WAT     H219503   5.562   0.142   1.463
 6421WAT      O19504   2.758   2.947   2.319
 6421WAT     H119505   2.787   3.034   2.278
 6421WAT     H219506   2.838   2.902   2.361
 6422WAT      O19507   4.762   8.127   4.313
 6422WAT     H119508   4.720   8.118   4.403
 6422WAT     H219509   4.852   8.083   4.313
 6423WAT      O19510   0.751   4.421   0.081
 6423WAT     H119511   0.834   4.441   0.028
 6423WAT     H219512   0.676   4.400   0.018
 6424WAT      O19513   2.084   2.570   7.629
 6424WAT     H119514   2.183   2.581   7.620
 6424WAT     H219515   2.063   2.537   7.721
 6425WAT      O19516   1.920   4.018   8.051
 6425WAT     H119517   1.872   4.064   8.126
 6425WAT     H219518   2.018   4.033   8.060
 6426WAT      O19519   7.309   4.532   4.709
 6426WAT     H119520   7.375   4.479   4.762
 6426WAT     H219521   7.353   4.615   4.675
 6427WAT      O19522   8.156   2.538   6.393
 6427WAT     H119523   8.073   2.494   6.358
 6427WAT     H219524   8.235   2.509   6.338
 6428WAT      O19525   9.183   9.170   0.573
 6428WAT     H119526   9.139   9.200   0.488
 6428WAT     H219527   9.113   9.144   0.639
 6429WAT      O19528   4.836   0.221   4.366
 6429WAT     H119529   4.831   0.320   4.358
 6429WAT     H219530   4.750   0.180   4.337
 6430WAT      O19531   2.042   4.661   2.424
 6430WAT     H119532   2.015   4.632   2.516
 6430WAT     H219533   2.074   4.582   2.372
 6431WAT      O19534   7.999   0.838   2.732
 6431WAT     H119535   7.905   0.805   2.723
 6431WAT     H219536   8.041   0.797   2.813
 6432WAT      O19537   7.956   1.686   1.874
 6432WAT     H119538   8.053   1.663   1.887
 6432WAT     H219539   7.907   1.607   1.837
 6433WAT      O19540   7.495   1.773   3.692
 6433WAT     H119541   7.449   1.763   3.780
 6433WAT     H219542   7.568   1.841   3.700
 6434WAT      O19543   9.397   5.999   9.763
 6434WAT     H119544   9.319   5.994   9.700
 6434WAT     H219545   9.424   6.094   9.776
 6435WAT      O19546   7.738   2.915   6.395
 6435WAT     H119547   7.712   2.820   6.411
 6435WAT     H219548   7.830   2.918   6.355
 6436WAT      O19549   3.912   6.802   3.655
 6436WAT     H119550   3.965   6.830   3.576
 6436WAT     H219551   3.840   6.739   3.626
 6437WAT      O19552   5.333   0.576   6.454
 6437WAT     H119553   5.292   0.584   6.363
 6437WAT     H219554   5.268   0.609   6.522
 6438WAT      O19555   5.523   2.050   2.919
 6438WAT     H119556   5.601   2.014   2.868
 6438WAT     H219557   5.512   1.997   3.003
 6439WAT      O19558   5.662   3.474   3.171
 6439WAT     H119559   5.628   3.541   3.105
 6439WAT     H219560   5.760   3.459   3.157
 6440WAT      O19561   4.188   0.065   4.240
 6440WAT     H119562   4.137   0.031   4.319
 6440WAT     H219563   4.204   0.163   4.250
 6441WAT      O19564   3.502   8.586   9.024
 6441WAT     H119565   3.487   8.610   8.928
 6441WAT     H219566   3.600   8.572   9.040
 6442WAT      O19567   8.626   9.693   2.327
 6442WAT     H119568   8.678   9.767   2.369
 6442WAT     H219569   8.647   9.688   2.229
 6443WAT      O19570   2.567   2.080   9.670
 6443WAT     H119571   2.486   2.034   9.708
 6443WAT     H219572   2.557   2.179   9.683
 6444WAT      O19573   4.073   2.282   7.951
 6444WAT     H119574   4.151   2.220   7.964
 6444WAT     H219575   4.073   2.316   7.857
 6445WAT      O19576   0.021   1.105   0.456
 6445WAT     H119577   0.060   1.129   0.367
 6445WAT     H219578  -0.061   1.160   0.473
 6446WAT      O19579   5.541   0.339   0.695
 6446WAT     H119580   5.494   0.395   0.762
 6446WAT     H219581   5.559   0.248   0.734
 6447WAT      O19582   8.583   1.068   6.648
 6447WAT     H119583   8.508   1.120   6.606
 6447WAT     H219584   8.629   1.125   6.717
 6448WAT      O19585   4.276   0.005   0.809
 6448WAT     H119586   4.324  -0.077   0.840
 6448WAT     H219587   4.286   0.078   0.876
 6449WAT      O19588   6.329   3.494   0.175
 6449WAT     H119589   6.280   3.544   0.248
 6449WAT     H219590   6.263   3.457   0.111
 6450WAT      O19591   7.024   4.029   4.500
 6450WAT     H119592   7.085   4.077   4.564
 6450WAT     H219593   6.948   4.089   4.476
 6451WAT      O19594   3.371   1.238   5.768
 6451WAT     H119595   3.368   1.161   5.705
 6451WAT     H219596   3.366   1.204   5.862
 6452WAT      O19597   1.181   9.745   5.400
 6452WAT     H119598   1.133   9.684   5.337
 6452WAT     H219599   1.259   9.787   5.354
 6453WAT      O19600   6.754   5.939   0.601
 6453WAT     H119601   6.675   5.893   0.560
 6453WAT     H219602   6.724   6.022   0.647
 6454WAT      O19603   2.448   3.206   8.744
 6454WAT     H119604   2.493   3.292   8.766
 6454WAT     H219605   2.349   3.219   8.745
 6455WAT      O19606   6.649   0.378   1.151
 6455WAT     H119607   6.608   0.402   1.239
 6455WAT     H219608   6.734   0.329   1.166
 6456WAT      O19609   6.459   3.571   7.773
 6456WAT     H119610   6.496   3.479   7.762
 6456WAT     H219611   6.418   3.601   7.686
 6457WAT      O19612   7.475   5.038   7.138
 6457WAT     H119613   7.399   5.094   7.105
 6457WAT     H219614   7.535   5.016   7.061
 6458WAT      O19615   6.892   4.712   7.420
 6458WAT     H119616   6.854   4.804   7.426
 6458WAT     H219617   6.990   4.715   7.442
 6459WAT      O19618   3.859   6.954   3.887
 6459WAT     H119619   3.899   6.892   3.954
 6459WAT     H219620   3.894   6.932   3.796
 6460WAT      O19621   9.162   2.351   4.882
 6460WAT     H119622   9.233   2.385   4.944
 6460WAT     H219623   9.108   2.281   4.928
 6461WAT      O19624   9.260   2.069   6.283
 6461WAT     H119625   9.198   2.050   6.207
 6461WAT     H219626   9.212   2.053   6.370
 6462WAT      O19627   0.847   4.725   7.862
 6462WAT     H119628   0.900   4.747   7.944
 6462WAT     H219629   0.909   4.705   7.786
 6463WAT      O19630   1.006   5.872   9.501
 6463WAT     H119631   1.080   5.896   9.564
 6463WAT     H219632   0.919   5.873   9.550
 6464WAT      O19633   5.595   7.012   2.709
 6464WAT     H119634   5.528   7.077   2.675
 6464WAT     H219635   5.646   7.052   2.785
 6465WAT      O19636   0.989   4.871   3.585
 6465WAT     H119637   1.080   4.909   3.600
 6465WAT     H219638   0.992   4.771   3.593
 6466WAT      O19639   3.586   7.727   6.313
 6466WAT     H119640   3.641   7.737   6.230
 6466WAT     H219641   3.638   7.677   6.382
 6467WAT      O19642   9.485   4.172   6.604
 6467WAT     H119643   9.518   4.100   6.663
 6467WAT     H219644   9.527   4.163   6.513
 6468WAT      O19645   5.988   9.798   8.692
 6468WAT     H119646   5.896   9.824   8.661
 6468WAT     H219647   6.004   9.837   8.783
 6469WAT      O19648   6.715   2.986   8.522
 6469WAT     H119649   6.706   3.017   8.617
 6469WAT     H219650   6.729   3.065   8.463
 6470WAT      O19651   8.028   3.295   7.307
 6470WAT     H119652   8.037   3.319   7.211
 6470WAT     H219653   7.931   3.280   7.329
 6471WAT      O19654   4.366   4.478   0.077
 6471WAT     H119655   4.369   4.551   0.145
 6471WAT     H219656   4.289   4.494   0.015
 6472WAT      O19657   3.122   1.526   5.603
 6472WAT     H119658   3.132   1.609   5.658
 6472WAT     H219659   3.195   1.521   5.535
 6473WAT      O19660   4.903   5.142   0.352
 6473WAT     H119661   4.970   5.208   0.320
 6473WAT     H219662   4.813   5.162   0.312
 6474WAT      O19663   3.201   0.678   7.198
 6474WAT     H119664   3.136   0.750   7.174
 6474WAT     H219665   3.287   0.720   7.227
 6475WAT      O19666   2.974   0.947   0.605
 6475WAT     H119667   3.010   1.026   0.655
 6475WAT     H219668   3.049   0.900   0.558
 6476WAT      O19669   3.801   9.537   6.302
 6476WAT     H119670   3.883   9.586   6.330
 6476WAT     H219671   3.751   9.592   6.235
 6477WAT      O19672   2.092   9.288   8.604
 6477WAT     H119673   2.013   9.275   8.665
 6477WAT     H219674   2.104   9.385   8.585
 6478WAT      O19675   8.690   3.535   6.283
 6478WAT     H119676   8.708   3.632   6.270
 6478WAT     H219677   8.730   3.483   6.208
 6479WAT      O19678   4.181   7.354   4.796
 6479WAT     H119679   4.110   7.287   4.819
 6479WAT     H219680   4.171   7.380   4.700
 6480WAT      O19681   2.482   7.432   8.887
 6480WAT     H119682   2.519   7.376   8.962
 6480WAT     H219683   2.543   7.424   8.808
 6481WAT      O19684   7.769   6.558   1.579
 6481WAT     H119685   7.782   6.533   1.483
 6481WAT     H219686   7.679   6.527   1.610
 6482WAT      O19687   2.399   1.696   4.920
 6482WAT     H119688   2.414   1.627   4.849
 6482WAT     H219689   2.487   1.733   4.950
 6483WAT      O19690   3.991   0.078   8.090
 6483WAT     H119691   3.947   0.167   8.103
 6483WAT     H219692   3.996   0.029   8.177
 6484WAT      O19693   1.027   3.380   9.311
 6484WAT     H119694   0.930   3.375   9.289
 6484WAT     H219695   1.070   3.453   9.257
 6485WAT      O19696   1.904   6.158   8.357
 6485WAT     H119697   1.894   6.255   8.339
 6485WAT     H219698   1.992   6.141   8.402
 6486WAT      O19699   8.726   5.607   9.744
 6486WAT     H119700   8.740   5.591   9.646
 6486WAT     H219701   8.752   5.701   9.767
 6487WAT      O19702   7.369   4.670   3.626
 6487WAT     H119703   7.315   4.620   3.558
 6487WAT     H219704   7.462   4.633   3.628
 6488WAT      O19705   4.536   0.541   6.185
 6488WAT     H119706   4.623   0.493   6.177
 6488WAT     H219707   4.521   0.597   6.104
 6489WAT      O19708   1.728   2.629   0.981
 6489WAT     H119709   1.764   2.665   1.067
 6489WAT     H219710   1.751   2.691   0.906
 6490WAT      O19711   0.998   6.642   1.838
 6490WAT     H119712   0.942   6.584   1.897
 6490WAT     H219713   1.084   6.664   1.885
 6491WAT      O19714   3.826   0.502   7.188
 6491WAT     H119715   3.887   0.582   7.182
 6491WAT     H219716   3.863   0.436   7.252
 6492WAT      O19717   5.002   4.040   4.288
 6492WAT     H119718   4.903   4.033   4.277
 6492WAT     H219719   5.028   4.014   4.381
 6493WAT      O19720   8.510   4.214   8.739
 6493WAT     H119721   8.542   4.261   8.822
 6493WAT     H219722   8.416   4.182   8.754
 6494WAT      O19723   8.963   7.356   0.957
 6494WAT     H119724   8.910   7.377   0.875
 6494WAT     H219725   9.060   7.372   0.939
 6495WAT      O19726   2.908   7.305   1.199
 6495WAT     H119727   2.885   7.402   1.203
 6495WAT     H219728   2.902   7.273   1.104
 6496WAT      O19729   1.161   1.183   7.036
 6496WAT     H119730   1.075   1.193   7.086
 6496WAT     H219731   1.219   1.115   7.081
 6497WAT      O19732   8.405   0.779   2.457
 6497WAT     H119733   8.352   0.791   2.373
 6497WAT     H219734   8.345   0.789   2.536
 6498WAT      O19735   3.254   2.676   7.479
 6498WAT     H119736   3.354   2.670   7.484
 6498WAT     H219737   3.215   2.660   7.569
 6499WAT      O19738   3.753   2.371   1.410
 6499WAT     H119739   3.761   2.455   1.465
 6499WAT     H219740   3.755   2.395   1.313
 6500WAT      O19741   4.690   1.627   5.476
 6500WAT     H119742   4.632   1.609   5.397
 6500WAT     H219743   4.784   1.600   5.456
 6501WAT      O19744   4.583   0.644   2.026
 6501WAT     H119745   4.561   0.661   2.122
 6501WAT     H219746   4.530   0.566   1.993
 6502WAT      O19747   5.536   7.513   1.411
 6502WAT     H119748   5.603   7.529   1.483
 6502WAT     H219749   5.458   7.462   1.448
 6503WAT      O19750   9.024   9.538   6.906
 6503WAT     H119751   8.995   9.580   6.992
 6503WAT     H219752   9.075   9.454   6.926
 6504WAT      O19753   3.829   8.576   5.223
 6504WAT     H119754   3.922   8.563   5.258
 6504WAT     H219755   3.834   8.605   5.127
 6505WAT      O19756   2.688   1.329   4.488
 6505WAT     H119757   2.772   1.306   4.439
 6505WAT     H219758   2.695   1.296   4.583
 6506WAT      O19759   5.177   7.291   8.597
 6506WAT     H119760   5.163   7.387   8.618
 6506WAT     H219761   5.106   7.236   8.640
 6507WAT      O19762   8.378   3.819   1.559
 6507WAT     H119763   8.324   3.903   1.558
 6507WAT     H219764   8.463   3.834   1.609
 6508WAT      O19765   5.513   4.035   7.946
 6508WAT     H119766   5.496   4.123   7.991
 6508WAT     H219767   5.526   4.050   7.848
 6509WAT      O19768   0.822   7.544   2.083
 6509WAT     H119769   0.765   7.463   2.082
 6509WAT     H219770   0.806   7.599   2.001
 6510WAT      O19771   2.316   8.510   1.794
 6510WAT     H119772   2.298   8.424   1.748
 6510WAT     H219773   2.367   8.492   1.878
 6511WAT      O19774   7.271   7.800   3.893
 6511WAT     H119775   7.178   7.793   3.929
 6511WAT     H219776   7.281   7.741   3.812
 6512WAT      O19777   0.622   7.504   3.709
 6512WAT     H119778   0.576   7.416   3.719
 6512WAT     H219779   0.689   7.499   3.634
 6513WAT      O19780   8.048   5.929   4.026
 6513WAT     H119781   7.955   5.919   3.990
 6513WAT     H219782   8.045   5.930   4.126
 6514WAT      O19783   4.830   1.018   8.831
 6514WAT     H119784   4.780   1.015   8.918
 6514WAT     H219785   4.766   1.007   8.755
 6515WAT      O19786   3.361   5.915   7.243
 6515WAT     H119787   3.412   5.841   7.287
 6515WAT     H219788   3.310   5.879   7.165
 6516WAT      O19789   2.453   6.804   6.804
 6516WAT     H119790   2.493   6.757   6.726
 6516WAT     H219791   2.515   6.800   6.882
 6517WAT      O19792   8.710   8.070   7.491
 6517WAT     H119793   8.655   8.109   7.418
 6517WAT     H219794   8.705   7.970   7.488
 6518WAT      O19795   3.084   4.842   3.691
 6518WAT     H119796   3.066   4.933   3.727
 6518WAT     H219797   3.163   4.803   3.737
 6519WAT      O19798   3.918   8.384   2.427
 6519WAT     H119799   3.971   8.382   2.342
 6519WAT     H219800   3.946   8.462   2.482
 6520WAT      O19801   0.928   6.899   9.160
 6520WAT     H119802   0.989   6.966   9.202
 6520WAT     H219803   0.890   6.840   9.232
 6521WAT      O19804   6.609   6.393   2.599
 6521WAT     H119805   6.699   6.354   2.618
 6521WAT     H219806   6.577   6.444   2.680
 6522WAT      O19807   4.691   0.548   7.785
 6522WAT     H119808   4.770   0.487   7.789
 6522WAT     H219809   4.687   0.593   7.696
 6523WAT      O19810   2.058   2.535   2.134
 6523WAT     H119811   2.066   2.625   2.093
 6523WAT     H219812   1.965   2.501   2.122
 6524WAT      O19813   7.621   6.257   6.265
 6524WAT     H119814   7.543   6.201   6.239
 6524WAT     H219815   7.588   6.346   6.299
 6525WAT      O19816   2.164   6.878   0.858
 6525WAT     H119817   2.250   6.917   0.891
 6525WAT     H219818   2.104   6.860   0.936
 6526WAT      O19819   6.943   5.725   4.417
 6526WAT     H119820   7.007   5.658   4.380
 6526WAT     H219821   6.853   5.684   4.428
 6527WAT      O19822   8.646   8.118   2.204
 6527WAT     H119823   8.636   8.143   2.300
 6527WAT     H219824   8.671   8.199   2.151
 6528WAT      O19825   8.249   1.787   8.759
 6528WAT     H119826   8.157   1.825   8.742
 6528WAT     H219827   8.293   1.840   8.832
 6529WAT      O19828   5.308   5.756   3.762
 6529WAT     H119829   5.378   5.822   3.733
 6529WAT     H219830   5.313   5.675   3.704
 6530WAT      O19831   2.441   5.446   9.684
 6530WAT     H119832   2.519   5.507   9.687
 6530WAT     H219833   2.447   5.387   9.604
 6531WAT      O19834   3.064   1.834   8.277
 6531WAT     H119835   3.110   1.748   8.298
 6531WAT     H219836   3.005   1.859   8.354
 6532WAT      O19837   0.650   0.719   2.211
 6532WAT     H119838   0.649   0.696   2.308
 6532WAT     H219839   0.638   0.818   2.200
 6533WAT      O19840   3.679   6.838   2.938
 6533WAT     H119841   3.689   6.920   2.994
 6533WAT     H219842   3.598   6.787   2.968
 6534WAT      O19843   4.598   5.900   2.317
 6534WAT     H119844   4.663   5.834   2.355
 6534WAT     H219845   4.534   5.928   2.389
 6535WAT      O19846   5.738   8.322   1.421
 6535WAT     H119847   5.653   8.301   1.373
 6535WAT     H219848   5.738   8.418   1.449
 6536WAT      O19849   4.070   4.801   3.457
 6536WAT     H119850   3.997   4.865   3.434
 6536WAT     H219851   4.031   4.723   3.506
 6537WAT      O19852   3.938   5.550   0.062
 6537WAT     H119853   3.941   5.455   0.093
 6537WAT     H219854   3.862   5.597   0.106
 6538WAT      O19855   8.205   6.920   6.762
 6538WAT     H119856   8.165   6.981   6.831
 6538WAT     H219857   8.133   6.890   6.699
 6539WAT      O19858   1.361   0.354   8.467
 6539WAT     H119859   1.396   0.435   8.421
 6539WAT     H219860   1.265   0.339   8.442
 6540WAT      O19861   9.137   3.534   0.921
 6540WAT     H119862   9.219   3.494   0.963
 6540WAT     H219863   9.059   3.520   0.982
 6541WAT      O19864   8.003   6.893   1.803
 6541WAT     H119865   8.064   6.847   1.868
 6541WAT     H219866   7.916   6.845   1.799
 6542WAT      O19867   0.607   7.636   7.550
 6542WAT     H119868   0.620   7.592   7.639
 6542WAT     H219869   0.637   7.731   7.556
 6543WAT      O19870   0.218   4.845   5.967
 6543WAT     H119871   0.243   4.760   6.013
 6543WAT     H219872   0.133   4.833   5.916
 6544WAT      O19873   2.815   8.740   8.718
 6544WAT     H119874   2.911   8.718   8.699
 6544WAT     H219875   2.802   8.839   8.717
 6545WAT      O19876   5.045   5.823   5.982
 6545WAT     H119877   5.084   5.748   5.929
 6545WAT     H219878   5.019   5.898   5.921
 6546WAT      O19879   9.532   3.870   9.265
 6546WAT     H119880   9.629   3.853   9.283
 6546WAT     H219881   9.478   3.841   9.344
 6547WAT      O19882   6.965   4.586   9.118
 6547WAT     H119883   6.937   4.510   9.176
 6547WAT     H219884   7.008   4.552   9.035
 6548WAT      O19885   0.069   9.169   5.846
 6548WAT     H119886   0.090   9.246   5.907
 6548WAT     H219887  -0.019   9.129   5.873
 6549WAT      O19888   1.411   7.239   2.197
 6549WAT     H119889   1.433   7.242   2.099
 6549WAT     H219890   1.467   7.169   2.241
 6550WAT      O19891   3.481   8.439   6.673
 6550WAT     H119892   3.461   8.529   6.711
 6550WAT     H219893   3.406   8.376   6.695
 6551WAT      O19894   3.194   0.091   4.234
 6551WAT     H119895   3.263   0.141   4.183
 6551WAT     H219896   3.233   0.006   4.269
 6552WAT      O19897   2.873   7.475   5.853
 6552WAT     H119898   2.860   7.572   5.833
 6552WAT     H219899   2.784   7.433   5.874
 6553WAT      O19900   2.630   2.995   1.224
 6553WAT     H119901   2.668   3.081   1.188
 6553WAT     H219902   2.704   2.930   1.239
 6554WAT      O19903   7.211   6.258   4.107
 6554WAT     H119904   7.247   6.246   4.014
 6554WAT     H219905   7.241   6.347   4.143
 6555WAT      O19906   7.533   7.570   0.846
 6555WAT     H119907   7.602   7.521   0.793
 6555WAT     H219908   7.552   7.560   0.943
 6556WAT      O19909   8.360   0.241   5.807
 6556WAT     H119910   8.363   0.307   5.883
 6556WAT     H219911   8.273   0.250   5.759
 6557WAT      O19912   4.000   5.751   6.047
 6557WAT     H119913   3.933   5.826   6.039
 6557WAT     H219914   4.061   5.753   5.968
 6558WAT      O19915   9.217   7.445   3.510
 6558WAT     H119916   9.203   7.426   3.413
 6558WAT     H219917   9.131   7.430   3.559
 6559WAT      O19918   2.747   9.440   5.736
 6559WAT     H119919   2.809   9.361   5.737
 6559WAT     H219920   2.791   9.518   5.779
 6560WAT      O19921   8.827   4.656   1.638
 6560WAT     H119922   8.885   4.597   1.582
 6560WAT     H219923   8.808   4.741   1.589
 6561WAT      O19924   1.546   7.866   9.024
 6561WAT     H119925   1.642   7.867   8.996
 6561WAT     H219926   1.537   7.902   9.117
 6562WAT      O19927   8.033   8.748   3.875
 6562WAT     H119928   7.984   8.776   3.957
 6562WAT     H219929   7.969   8.736   3.799
 6563WAT      O19930   6.457   8.549   1.448
 6563WAT     H119931   6.492   8.636   1.481
 6563WAT     H219932   6.390   8.565   1.376
 6564WAT      O19933   5.609   7.965   6.562
 6564WAT     H119934   5.633   7.887   6.620
 6564WAT     H219935   5.512   7.960   6.538
 6565WAT      O19936   8.186   2.684   5.932
 6565WAT     H119937   8.195   2.610   5.865
 6565WAT     H219938   8.254   2.754   5.912
 6566WAT      O19939   3.789   7.106   8.792
 6566WAT     H119940   3.823   7.017   8.822
 6566WAT     H219941   3.813   7.176   8.860
 6567WAT      O19942   2.628   0.629   7.212
 6567WAT     H119943   2.709   0.613   7.268
 6567WAT     H219944   2.623   0.726   7.188
 6568WAT      O19945   5.861   6.200   3.727
 6568WAT     H119946   5.948   6.219   3.774
 6568WAT     H219947   5.879   6.169   3.634
 6569WAT      O19948   9.447   6.042   1.742
 6569WAT     H119949   9.412   6.049   1.649
 6569WAT     H219950   9.370   6.037   1.806
 6570WAT      O19951   5.610   3.191   9.680
 6570WAT     H119952   5.565   3.269   9.723
 6570WAT     H219953   5.544   3.118   9.665
 6571WAT      O19954   6.703   8.093   3.309
 6571WAT     H119955   6.718   8.128   3.401
 6571WAT     H219956   6.767   8.137   3.246
 6572WAT      O19957   9.644   4.176   2.558
 6572WAT     H119958   9.575   4.119   2.604
 6572WAT     H219959   9.716   4.118   2.522
 6573WAT      O19960   2.995   8.851   3.465
 6573WAT     H119961   3.082   8.814   3.497
 6573WAT     H219962   2.921   8.790   3.494
 6574WAT      O19963   0.274   7.670   3.755
 6574WAT     H119964   0.274   7.713   3.845
 6574WAT     H219965   0.258   7.740   3.685
 6575WAT      O19966   0.646   2.456   0.041
 6575WAT     H119967   0.695   2.541   0.022
 6575WAT     H219968   0.638   2.443   0.140
 6576WAT      O19969   9.173   3.685   4.260
 6576WAT     H119970   9.173   3.593   4.300
 6576WAT     H219971   9.114   3.686   4.179
 6577WAT      O19972   4.426   5.147   6.662
 6577WAT     H119973   4.484   5.117   6.738
 6577WAT     H219974   4.476   5.137   6.576
 6578WAT      O19975   6.087   4.142   2.374
 6578WAT     H119976   6.146   4.199   2.432
 6578WAT     H219977   6.003   4.192   2.353
 6579WAT      O19978   6.870   0.050   4.744
 6579WAT     H119979   6.818   0.117   4.690
 6579WAT     H219980   6.815   0.021   4.822
 6580WAT      O19981   6.988   1.830   0.418
 6580WAT     H119982   6.996   1.915   0.366
 6580WAT     H219983   6.891   1.806   0.426
 6581WAT      O19984   9.474   7.126   2.437
 6581WAT     H119985   9.527   7.152   2.356
 6581WAT     H219986   9.435   7.035   2.423
 6582WAT      O19987   7.109   6.076   3.597
 6582WAT     H119988   7.072   5.986   3.577
 6582WAT     H219989   7.078   6.141   3.527
 6583WAT      O19990   3.761   8.696   9.301
 6583WAT     H119991   3.829   8.763   9.331
 6583WAT     H219992   3.671   8.722   9.336
 6584WAT      O19993   8.720   4.522   8.600
 6584WAT     H119994   8.699   4.525   8.502
 6584WAT     H219995   8.810   4.562   8.616
 6585WAT      O19996   4.702   5.955   0.792
 6585WAT     H119997   4.733   5.860   0.785
 6585WAT     H219998   4.751   6.011   0.725
 6586WAT      O19999   6.442   8.152   7.504
 6586WAT     H120000   6.362   8.212   7.512
 6586WAT     H220001   6.488   8.147   7.593
 6587WAT      O20002   9.706   2.854   1.470
 6587WAT     H120003   9.660   2.906   1.398
 6587WAT     H220004   9.684   2.894   1.559
 6588WAT      O20005   3.243   2.825   6.457
 6588WAT     H120006   3.331   2.798   6.497
 6588WAT     H220007   3.174   2.755   6.476
 6589WAT      O20008   2.065   7.303   7.656
 6589WAT     H120009   2.143   7.362   7.677
 6589WAT     H220010   2.092   7.208   7.669
 6590WAT      O20011   2.380   8.359   4.153
 6590WAT     H120012   2.307   8.302   4.115
 6590WAT     H220013   2.434   8.398   4.079
 6591WAT      O20014   4.920   8.942   7.018
 6591WAT     H120015   4.899   8.859   6.967
 6591WAT     H220016   4.910   9.022   6.958
 6592WAT      O20017   0.130   3.586   6.073
 6592WAT     H120018   0.122   3.639   5.989
 6592WAT     H220019   0.059   3.515   6.075
 6593WAT      O20020   5.846   9.224   2.783
 6593WAT     H120021   5.800   9.265   2.862
 6593WAT     H220022   5.816   9.129   2.773
 6594WAT      O20023   2.913   6.482   3.788
 6594WAT     H120024   2.906   6.404   3.726
 6594WAT     H220025   2.932   6.449   3.881
 6595WAT      O20026   3.060   0.703   7.573
 6595WAT     H120027   3.114   0.787   7.567
 6595WAT     H220028   3.121   0.625   7.586
 6596WAT      O20029   4.344   2.318   9.028
 6596WAT     H120030   4.386   2.279   8.946
 6596WAT     H220031   4.313   2.411   9.008
 6597WAT      O20032   0.891   5.766   1.428
 6597WAT     H120033   0.849   5.822   1.356
 6597WAT     H220034   0.827   5.758   1.505
 6598WAT      O20035   5.391   6.439   1.676
 6598WAT     H120036   5.302   6.405   1.707
 6598WAT     H220037   5.455   6.440   1.753
 6599WAT      O20038   6.270   5.467   7.977
 6599WAT     H120039   6.227   5.403   7.912
 6599WAT     H220040   6.316   5.415   8.049
 6600WAT      O20041   7.344   7.843   7.799
 6600WAT     H120042   7.346   7.822   7.897
 6600WAT     H220043   7.438   7.844   7.763
 6601WAT      O20044   5.824   6.889   4.018
 6601WAT     H120045   5.839   6.817   4.086
 6601WAT     H220046   5.855   6.857   3.929
 6602WAT      O20047   2.105   5.830   2.559
 6602WAT     H120048   2.194   5.812   2.517
 6602WAT     H220049   2.066   5.914   2.520
 6603WAT      O20050   9.826   1.305   3.577
 6603WAT     H120051   9.856   1.343   3.665
 6603WAT     H220052   9.759   1.367   3.536
 6604WAT      O20053   1.368   6.150   7.568
 6604WAT     H120054   1.443   6.163   7.504
 6604WAT     H220055   1.345   6.237   7.612
 6605WAT      O20056   3.507   9.579   8.019
 6605WAT     H120057   3.604   9.559   8.024
 6605WAT     H220058   3.480   9.590   7.923
 6606WAT      O20059   8.550   7.057   5.646
 6606WAT     H120060   8.590   6.988   5.586
 6606WAT     H220061   8.513   7.133   5.591
 6607WAT      O20062   0.360   2.049   7.955
 6607WAT     H120063   0.359   1.954   7.925
 6607WAT     H220064   0.345   2.110   7.877
 6608WAT      O20065   4.186   1.677   8.657
 6608WAT     H120066   4.113   1.619   8.692
 6608WAT     H220067   4.198   1.660   8.559
 6609WAT      O20068   3.795   1.539   5.694
 6609WAT     H120069   3.714   1.485   5.717
 6609WAT     H220070   3.875   1.480   5.694
 6610WAT      O20071   5.259   4.933   6.796
 6610WAT     H120072   5.169   4.891   6.811
 6610WAT     H220073   5.295   4.967   6.883
 6611WAT      O20074   4.992   4.745   0.340
 6611WAT     H120075   5.047   4.683   0.396
 6611WAT     H220076   5.034   4.836   0.341
 6612WAT      O20077   3.036   4.755   2.944
 6612WAT     H120078   2.944   4.730   2.972
 6612WAT     H220079   3.062   4.842   2.986
 6613WAT      O20080   6.556   6.071   7.658
 6613WAT     H120081   6.640   6.055   7.607
 6613WAT     H220082   6.512   6.154   7.625
 6614WAT      O20083   0.115   2.548   2.431
 6614WAT     H120084   0.102   2.510   2.523
 6614WAT     H220085   0.033   2.530   2.376
 6615WAT      O20086   7.800   3.397   9.759
 6615WAT     H120087   7.823   3.300   9.758
 6615WAT     H220088   7.711   3.409   9.803
 6616WAT      O20089   4.670   9.370   6.551
 6616WAT     H120090   4.592   9.313   6.526
 6616WAT     H220091   4.725   9.323   6.620
 6617WAT      O20092   6.870   5.901   1.380
 6617WAT     H120093   6.898   5.983   1.330
 6617WAT     H220094   6.935   5.882   1.453
 6618WAT      O20095   6.977   4.222   7.133
 6618WAT     H120096   6.888   4.260   7.109
 6618WAT     H220097   6.990   4.136   7.084
 6619WAT      O20098   2.900   2.393   0.779
 6619WAT     H120099   2.990   2.357   0.754
 6619WAT     H220100   2.877   2.471   0.720
 6620WAT      O20101   9.078   8.914   4.481
 6620WAT     H120102   9.031   8.853   4.418
 6620WAT     H220103   9.113   8.994   4.432
 6621WAT      O20104   7.962   1.751   8.126
 6621WAT     H120105   7.910   1.817   8.071
 6621WAT     H220106   7.907   1.669   8.140
 6622WAT      O20107   8.367   2.445   0.223
 6622WAT     H120108   8.338   2.530   0.181
 6622WAT     H220109   8.419   2.391   0.156
 6623WAT      O20110   7.886   9.742   3.239
 6623WAT     H120111   7.904   9.672   3.169
 6623WAT     H220112   7.971   9.788   3.263
 6624WAT      O20113   4.897   2.378   4.138
 6624WAT     H120114   4.853   2.290   4.155
 6624WAT     H220115   4.830   2.441   4.097
 6625WAT      O20116   8.892   6.744   7.772
 6625WAT     H120117   8.927   6.742   7.865
 6625WAT     H220118   8.821   6.814   7.764
 6626WAT      O20119   1.303   2.302   3.187
 6626WAT     H120120   1.249   2.221   3.210
 6626WAT     H220121   1.400   2.279   3.187
 6627WAT      O20122   7.944   3.228   9.485
 6627WAT     H120123   8.020   3.228   9.550
 6627WAT     H220124   7.976   3.192   9.397
 6628WAT      O20125   7.782   8.459   5.770
 6628WAT     H120126   7.749   8.477   5.678
 6628WAT     H220127   7.848   8.383   5.767
 6629WAT      O20128   6.247   1.244   0.992
 6629WAT     H120129   6.272   1.155   0.954
 6629WAT     H220130   6.150   1.245   1.014
 6630WAT      O20131   6.971   2.055   0.259
 6630WAT     H120132   6.884   2.057   0.210
 6630WAT     H220133   7.045   2.083   0.197
 6631WAT      O20134   3.909   1.437   3.002
 6631WAT     H120135   3.987   1.393   3.046
 6631WAT     H220136   3.910   1.415   2.904
 6632WAT      O20137   7.985   9.086   3.688
 6632WAT     H120138   7.934   9.065   3.606
 6632WAT     H220139   7.923   9.095   3.766
 6633WAT      O20140   6.392   4.930   3.157
 6633WAT     H120141   6.452   4.870   3.208
 6633WAT     H220142   6.436   5.019   3.144
 6634WAT      O20143   5.745   1.385   9.148
 6634WAT     H120144   5.672   1.360   9.211
 6634WAT     H220145   5.760   1.309   9.083
 6635WAT      O20146   0.675   5.257   4.614
 6635WAT     H120147   0.633   5.167   4.616
 6635WAT     H220148   0.774   5.249   4.623
 6636WAT      O20149   2.341   8.463   3.060
 6636WAT     H120150   2.258   8.449   3.114
 6636WAT     H220151   2.356   8.561   3.047
 6637WAT      O20152   5.613   5.207   3.938
 6637WAT     H120153   5.547   5.132   3.939
 6637WAT     H220154   5.600   5.264   4.018
 6638WAT      O20155   1.308   2.348   9.816
 6638WAT     H120156   1.219   2.393   9.826
 6638WAT     H220157   1.327   2.331   9.720
 6639WAT      O20158   4.624   2.910   8.074
 6639WAT     H120159   4.675   2.826   8.053
 6639WAT     H220160   4.554   2.889   8.142
 6640WAT      O20161   6.854   0.422   3.821
 6640WAT     H120162   6.860   0.338   3.874
 6640WAT     H220163   6.943   0.469   3.824
 6641WAT      O20164   9.321   0.341   6.868
 6641WAT     H120165   9.253   0.401   6.911
 6641WAT     H220166   9.276   0.283   6.800
 6642WAT      O20167   0.461   7.061   1.149
 6642WAT     H120168   0.520   7.128   1.104
 6642WAT     H220169   0.367   7.095   1.151
 6643WAT      O20170   9.646   6.823   1.326
 6643WAT     H120171   9.680   6.748   1.382
 6643WAT     H220172   9.669   6.806   1.230
 6644WAT      O20173   8.265   3.527   1.165
 6644WAT     H120174   8.357   3.495   1.145
 6644WAT     H220175   8.201   3.488   1.099
 6645WAT      O20176   9.305   9.270   1.020
 6645WAT     H120177   9.216   9.235   1.051
 6645WAT     H220178   9.353   9.199   0.970
 6646WAT      O20179   3.966   0.208   6.637
 6646WAT     H120180   4.025   0.130   6.614
 6646WAT     H220181   3.973   0.277   6.565
 6647WAT      O20182   6.195   4.858   6.004
 6647WAT     H120183   6.106   4.819   6.028
 6647WAT     H220184   6.200   4.871   5.905
 6648WAT      O20185   7.079   2.746   7.144
 6648WAT     H120186   7.036   2.656   7.148
 6648WAT     H220187   7.010   2.817   7.156
 6649WAT      O20188   9.726   6.030   6.557
 6649WAT     H120189   9.743   5.934   6.535
 6649WAT     H220190   9.802   6.086   6.523
 6650WAT      O20191   9.198   3.658   4.569
 6650WAT     H120192   9.228   3.740   4.617
 6650WAT     H220193   9.116   3.680   4.515
 6651WAT      O20194   9.144   7.713   8.429
 6651WAT     H120195   9.060   7.688   8.477
 6651WAT     H220196   9.156   7.812   8.434
 6652WAT      O20197   4.357   7.840   2.843
 6652WAT     H120198   4.310   7.753   2.835
 6652WAT     H220199   4.329   7.900   2.768
 6653WAT      O20200   8.035   2.668   7.071
 6653WAT     H120201   8.099   2.680   6.995
 6653WAT     H220202   8.004   2.758   7.103
 6654WAT      O20203   9.473   5.767   1.831
 6654WAT     H120204   9.539   5.695   1.809
 6654WAT     H220205   9.507   5.855   1.797
 6655WAT      O20206   0.057   2.194   4.494
 6655WAT     H120207   0.008   2.135   4.430
 6655WAT     H220208   0.142   2.150   4.523
 6656WAT      O20209   7.985   0.405   4.013
 6656WAT     H120210   7.976   0.504   4.023
 6656WAT     H220211   7.930   0.373   3.937
 6657WAT      O20212   9.656   7.800   4.208
 6657WAT     H120213   9.607   7.806   4.122
 6657WAT     H220214   9.593   7.819   4.284
 6658WAT      O20215   4.026   6.287   0.036
 6658WAT     H120216   4.046   6.383   0.018
 6658WAT     H220217   4.053   6.265   0.130
 6659WAT      O20218   8.508   0.363   7.775
 6659WAT     H120219   8.491   0.350   7.677
 6659WAT     H220220   8.550   0.452   7.790
 6660WAT      O20221   6.330   4.580   0.926
 6660WAT     H120222   6.372   4.632   0.851
 6660WAT     H220223   6.397   4.517   0.965
 6661WAT      O20224   1.159   5.431   6.513
 6661WAT     H120225   1.116   5.490   6.582
 6661WAT     H220226   1.184   5.344   6.554
 6662WAT      O20227   6.937   9.821   8.717
 6662WAT     H120228   6.961   9.800   8.811
 6662WAT     H220229   6.844   9.856   8.712
 6663WAT      O20230   5.945   3.679   3.000
 6663WAT     H120231   5.885   3.757   3.019
 6663WAT     H220232   5.953   3.665   2.902
 6664WAT      O20233   8.692   6.009   8.671
 6664WAT     H120234   8.648   6.034   8.757
 6664WAT     H220235   8.699   5.909   8.665
 6665WAT      O20236   9.850   0.159   4.378
 6665WAT     H120237   9.893   0.075   4.345
 6665WAT     H220238   9.766   0.176   4.326
 6666WAT      O20239   0.609   2.227   3.101
 6666WAT     H120240   0.567   2.315   3.077
 6666WAT     H220241   0.609   2.167   3.021
 6667WAT      O20242   7.619   6.481   0.483
 6667WAT     H120243   7.645   6.578   0.477
 6667WAT     H220244   7.579   6.463   0.572
 6668WAT      O20245   1.333   0.893   2.080
 6668WAT     H120246   1.269   0.822   2.048
 6668WAT     H220247   1.382   0.930   2.001
 6669WAT      O20248   3.581   0.496   4.877
 6669WAT     H120249   3.668   0.534   4.910
 6669WAT     H220250   3.564   0.409   4.922
 6670WAT      O20251   9.779   1.842   5.333
 6670WAT     H120252   9.745   1.859   5.240
 6670WAT     H220253   9.711   1.873   5.399
 6671WAT      O20254   0.375   0.729   6.627
 6671WAT     H120255   0.440   0.799   6.656
 6671WAT     H220256   0.417   0.639   6.636
 6672WAT      O20257   6.956   9.256   9.095
 6672WAT     H120258   6.863   9.253   9.131
 6672WAT     H220259   6.984   9.163   9.069
 6673WAT      O20260   3.231   7.282   6.294
 6673WAT     H120261   3.285   7.263   6.376
 6673WAT     H220262   3.191   7.198   6.260
 6674WAT      O20263   5.440   3.385   6.280
 6674WAT     H120264   5.417   3.481   6.271
 6674WAT     H220265   5.426   3.356   6.375
 6675WAT      O20266   8.351   8.421   3.868
 6675WAT     H120267   8.432   8.440   3.923
 6675WAT     H220268   8.270   8.462   3.910
 6676WAT      O20269   9.118   9.237   7.502
 6676WAT     H120270   9.049   9.307   7.517
 6676WAT     H220271   9.082   9.167   7.440
 6677WAT      O20272   1.646   7.323   6.821
 6677WAT     H120273   1.658   7.309   6.919
 6677WAT     H220274   1.734   7.314   6.774
 6678WAT      O20275   1.301   4.502   3.926
 6678WAT     H120276   1.396   4.526   3.903
 6678WAT     H220277   1.261   4.576   3.980
 6679WAT      O20278   2.705   4.951   8.934
 6679WAT     H120279   2.622   5.005   8.948
 6679WAT     H220280   2.688   4.881   8.864
 6680WAT      O20281   6.127   6.978   0.574
 6680WAT     H120282   6.080   6.974   0.486
 6680WAT     H220283   6.071   7.028   0.640
 6681WAT      O20284   0.903   0.911   2.716
 6681WAT     H120285   1.002   0.899   2.716
 6681WAT     H220286   0.881   1.008   2.708
 6682WAT      O20287   1.797   3.566   2.653
 6682WAT     H120288   1.776   3.654   2.611
 6682WAT     H220289   1.838   3.581   2.743
 6683WAT      O20290   9.490   1.474   4.098
 6683WAT     H120291   9.431   1.528   4.159
 6683WAT     H220292   9.433   1.431   4.028
 6684WAT      O20293   9.608   5.237   1.826
 6684WAT     H120294   9.554   5.290   1.891
 6684WAT     H220295   9.648   5.158   1.872
 6685WAT      O20296   7.481   2.637   0.644
 6685WAT     H120297   7.410   2.577   0.680
 6685WAT     H220298   7.455   2.733   0.658
 6686WAT      O20299   9.428   0.760   0.213
 6686WAT     H120300   9.352   0.771   0.277
 6686WAT     H220301   9.412   0.680   0.156
 6687WAT      O20302   8.277   1.344   9.265
 6687WAT     H120303   8.279   1.435   9.224
 6687WAT     H220304   8.366   1.300   9.252
 6688WAT      O20305   7.473   6.005   7.314
 6688WAT     H120306   7.457   6.100   7.339
 6688WAT     H220307   7.571   5.988   7.307
 6689WAT      O20308   1.166   4.429   4.365
 6689WAT     H120309   1.099   4.489   4.321
 6689WAT     H220310   1.162   4.338   4.324
 6690WAT      O20311   8.884   8.184   9.820
 6690WAT     H120312   8.927   8.115   9.762
 6690WAT     H220313   8.950   8.216   9.888
 6691WAT      O20314   3.949   1.410   9.491
 6691WAT     H120315   3.972   1.335   9.429
 6691WAT     H220316   3.954   1.497   9.442
 6692WAT      O20317   0.882   1.258   7.442
 6692WAT     H120318   0.970   1.240   7.487
 6692WAT     H220319   0.896   1.270   7.344
 6693WAT      O20320   2.430   8.940   7.756
 6693WAT     H120321   2.443   8.910   7.661
 6693WAT     H220322   2.341   8.984   7.765
 6694WAT      O20323   3.010   0.458   8.048
 6694WAT     H120324   3.047   0.385   8.105
 6694WAT     H220325   2.962   0.524   8.106
 6695WAT      O20326   3.012   0.864   7.125
 6695WAT     H120327   2.943   0.854   7.197
 6695WAT     H220328   2.974   0.918   7.050
 6696WAT      O20329   4.088   3.443   9.116
 6696WAT     H120330   4.176   3.443   9.163
 6696WAT     H220331   4.079   3.358   9.065
 6697WAT      O20332   9.343   6.044   1.089
 6697WAT     H120333   9.276   6.039   1.015
 6697WAT     H220334   9.363   6.139   1.111
 6698WAT      O20335   7.516   8.935   4.438
 6698WAT     H120336   7.418   8.927   4.453
 6698WAT     H220337   7.563   8.944   4.525
 6699WAT      O20338   5.109   3.091   4.931
 6699WAT     H120339   5.034   3.102   4.996
 6699WAT     H220340   5.195   3.080   4.980
 6700WAT      O20341   6.161   5.654   1.095
 6700WAT     H120342   6.120   5.575   1.140
 6700WAT     H220343   6.225   5.698   1.157
 6701WAT      O20344   9.262   5.007   6.554
 6701WAT     H120345   9.304   4.994   6.644
 6701WAT     H220346   9.334   5.029   6.487
 6702WAT      O20347   9.673   4.250   2.805
 6702WAT     H120348   9.758   4.208   2.837
 6702WAT     H220349   9.665   4.239   2.706
 6703WAT      O20350   4.351   7.405   6.791
 6703WAT     H120351   4.270   7.372   6.741
 6703WAT     H220352   4.417   7.443   6.727
 6704WAT      O20353   4.739   3.023   7.513
 6704WAT     H120354   4.733   3.034   7.413
 6704WAT     H220355   4.666   2.963   7.544
 6705WAT      O20356   5.548   6.743   5.488
 6705WAT     H120357   5.627   6.778   5.538
 6705WAT     H220358   5.538   6.645   5.505
 6706WAT      O20359   7.938   1.268   4.296
 6706WAT     H120360   7.910   1.360   4.268
 6706WAT     H220361   7.903   1.250   4.388
 6707WAT      O20362   1.054   6.772   8.951
 6707WAT     H120363   1.121   6.717   9.000
 6707WAT     H220364   0.995   6.819   9.017
 6708WAT      O20365   2.723   0.469   5.600
 6708WAT     H120366   2.744   0.567   5.600
 6708WAT     H220367   2.774   0.424   5.673
 6709WAT      O20368   3.469   4.850   8.300
 6709WAT     H120369   3.488   4.808   8.389
 6709WAT     H220370   3.498   4.945   8.301
 6710WAT      O20371   7.051   6.998   9.141
 6710WAT     H120372   7.108   6.950   9.208
 6710WAT     H220373   6.958   7.008   9.176
 6711WAT      O20374   5.128   9.066   3.981
 6711WAT     H120375   5.069   9.044   3.904
 6711WAT     H220376   5.086   9.136   4.038
 6712WAT      O20377   0.143   6.419   0.947
 6712WAT     H120378   0.119   6.408   0.851
 6712WAT     H220379   0.197   6.502   0.959
 6713WAT      O20380   5.702   2.792   2.510
 6713WAT     H120381   5.774   2.760   2.449
 6713WAT     H220382   5.709   2.891   2.521
 6714WAT      O20383   8.424   7.959   5.449
 6714WAT     H120384   8.383   7.873   5.418
 6714WAT     H220385   8.396   8.033   5.389
 6715WAT      O20386   9.143   7.594   4.134
 6715WAT     H120387   9.072   7.623   4.198
 6715WAT     H220388   9.198   7.674   4.108
 6716WAT      O20389   6.031   6.453   7.148
 6716WAT     H120390   6.122   6.480   7.116
 6716WAT     H220391   6.039   6.387   7.223
 6717WAT      O20392   4.563   2.155   0.234
 6717WAT     H120393   4.561   2.250   0.266
 6717WAT     H220394   4.637   2.144   0.168
 6718WAT      O20395   0.308   5.223   5.710
 6718WAT     H120396   0.357   5.151   5.758
 6718WAT     H220397   0.347   5.312   5.733
 6719WAT      O20398   0.341   3.518   2.399
 6719WAT     H120399   0.329   3.533   2.497
 6719WAT     H220400   0.408   3.445   2.384
 6720WAT      O20401   5.662   2.973   7.474
 6720WAT     H120402   5.639   3.067   7.449
 6720WAT     H220403   5.760   2.967   7.495
 6721WAT      O20404   7.011   1.411   6.996
 6721WAT     H120405   7.088   1.417   7.058
 6721WAT     H220406   6.963   1.499   6.992
 6722WAT      O20407   5.264   5.778   3.089
 6722WAT     H120408   5.285   5.816   3.000
 6722WAT     H220409   5.305   5.835   3.161
 6723WAT      O20410   4.212   5.633   2.564
 6723WAT     H120411   4.289   5.587   2.520
 6723WAT     H220412   4.143   5.656   2.495
 6724WAT      O20413   6.427   6.460   1.195
 6724WAT     H120414   6.512   6.478   1.246
 6724WAT     H220415   6.415   6.361   1.186
 6725WAT      O20416   0.540   3.929   6.902
 6725WAT     H120417   0.573   3.986   6.827
 6725WAT     H220418   0.582   3.838   6.897
 6726WAT      O20419   7.038   7.425   0.441
 6726WAT     H120420   6.982   7.360   0.390
 6726WAT     H220421   7.130   7.388   0.454
 6727WAT      O20422   0.596   5.933   6.248
 6727WAT     H120423   0.558   6.025   6.254
 6727WAT     H220424   0.626   5.916   6.154
 6728WAT      O20425   8.800   4.000   7.213
 6728WAT     H120426   8.872   3.989   7.145
 6728WAT     H220427   8.810   4.088   7.259
 6729WAT      O20428   7.479   3.319   7.164
 6729WAT     H120429   7.471   3.351   7.258
 6729WAT     H220430   7.395   3.271   7.137
 6730WAT      O20431   2.794   5.387   8.450
 6730WAT     H120432   2.884   5.344   8.451
 6730WAT     H220433   2.795   5.466   8.388
 6731WAT      O20434   2.742   5.967   6.482
 6731WAT     H120435   2.643   5.956   6.482
 6731WAT     H220436   2.786   5.879   6.502
 6732WAT      O20437   0.071   0.370   2.874
 6732WAT     H120438   0.063   0.341   2.969
 6732WAT     H220439  -0.010   0.421   2.847
 6733WAT      O20440   6.951   9.792   3.681
 6733WAT     H120441   6.952   9.699   3.718
 6733WAT     H220442   6.964   9.789   3.581
 6734WAT      O20443   1.557   2.712   4.775
 6734WAT     H120444   1.465   2.679   4.755
 6734WAT     H220445   1.596   2.658   4.849
 6735WAT      O20446   8.926   9.295   0.131
 6735WAT     H120447   8.940   9.388   0.098
 6735WAT     H220448   8.828   9.276   0.138
 6736WAT      O20449   5.447   7.562   3.891
 6736WAT     H120450   5.436   7.603   3.982
 6736WAT     H220451   5.424   7.629   3.821
 6737WAT      O20452   9.171   7.655   6.527
 6737WAT     H120453   9.105   7.623   6.459
 6737WAT     H220454   9.131   7.648   6.618
 6738WAT      O20455   0.183   4.882   3.923
 6738WAT     H120456   0.216   4.977   3.921
 6738WAT     H220457   0.164   4.851   3.830
 6739WAT      O20458   8.945   3.212   9.781
 6739WAT     H120459   8.856   3.256   9.795
 6739WAT     H220460   8.936   3.141   9.711
 6740WAT      O20461   6.710   2.724   8.320
 6740WAT     H120462   6.641   2.729   8.392
 6740WAT     H220463   6.797   2.760   8.354
 6741WAT      O20464   7.975   9.383   8.825
 6741WAT     H120465   7.875   9.374   8.819
 6741WAT     H220466   8.006   9.455   8.762
 6742WAT      O20467   1.245   8.567   1.469
 6742WAT     H120468   1.256   8.666   1.471
 6742WAT     H220469   1.177   8.542   1.399
 6743WAT      O20470   0.533   2.043   6.833
 6743WAT     H120471   0.508   1.980   6.908
 6743WAT     H220472   0.631   2.060   6.835
 6744WAT      O20473   1.547   6.529   6.490
 6744WAT     H120474   1.599   6.540   6.405
 6744WAT     H220475   1.455   6.494   6.469
 6745WAT      O20476   6.472   3.570   7.168
 6745WAT     H120477   6.536   3.605   7.099
 6745WAT     H220478   6.505   3.481   7.201
 6746WAT      O20479   0.980   2.342   7.061
 6746WAT     H120480   0.993   2.331   7.160
 6746WAT     H220481   0.990   2.254   7.016
 6747WAT      O20482   1.483   8.071   3.807
 6747WAT     H120483   1.408   8.120   3.851
 6747WAT     H220484   1.564   8.131   3.804
 6748WAT      O20485   1.651   8.094   9.676
 6748WAT     H120486   1.646   8.140   9.765
 6748WAT     H220487   1.604   8.006   9.681
 6749WAT      O20488   1.505   3.141   0.570
 6749WAT     H120489   1.537   3.184   0.655
 6749WAT     H220490   1.411   3.111   0.582
 6750WAT      O20491   1.169   7.539   8.304
 6750WAT     H120492   1.099   7.590   8.354
 6750WAT     H220493   1.246   7.519   8.365
 6751WAT      O20494   9.821   6.530   6.611
 6751WAT     H120495   9.878   6.474   6.670
 6751WAT     H220496   9.836   6.504   6.515
 6752WAT      O20497   4.378   6.457   0.911
 6752WAT     H120498   4.365   6.362   0.939
 6752WAT     H220499   4.311   6.514   0.958
 6753WAT      O20500   1.460   3.232   8.944
 6753WAT     H120501   1.442   3.225   9.042
 6753WAT     H220502   1.536   3.294   8.928
 6754WAT      O20503   1.746   2.693   9.157
 6754WAT     H120504   1.801   2.635   9.217
 6754WAT     H220505   1.680   2.636   9.108
 6755WAT      O20506   2.358   1.770   2.402
 6755WAT     H120507   2.350   1.858   2.450
 6755WAT     H220508   2.380   1.787   2.306
 6756WAT      O20509   4.175   8.443   6.285
 6756WAT     H120510   4.158   8.541   6.286
 6756WAT     H220511   4.168   8.407   6.378
 6757WAT      O20512   2.858   2.249   6.724
 6757WAT     H120513   2.761   2.245   6.700
 6757WAT     H220514   2.909   2.181   6.670
 6758WAT      O20515   9.624   1.412   9.144
 6758WAT     H120516   9.666   1.375   9.061
 6758WAT     H220517   9.526   1.392   9.142
 6759WAT      O20518   1.678   1.423   0.186
 6759WAT     H120519   1.583   1.432   0.217
 6759WAT     H220520   1.726   1.358   0.246
 6760WAT      O20521   3.072   1.187   3.989
 6760WAT     H120522   3.118   1.112   3.941
 6760WAT     H220523   2.993   1.217   3.935
 6761WAT      O20524   1.203   4.683   0.975
 6761WAT     H120525   1.184   4.665   0.879
 6761WAT     H220526   1.121   4.721   1.018
 6762WAT      O20527   7.094   2.169   6.560
 6762WAT     H120528   7.026   2.099   6.537
 6762WAT     H220529   7.047   2.251   6.591
 6763WAT      O20530   7.096   8.225   8.676
 6763WAT     H120531   7.183   8.192   8.639
 6763WAT     H220532   7.109   8.316   8.715
 6764WAT      O20533   4.392   3.373   2.532
 6764WAT     H120534   4.358   3.458   2.494
 6764WAT     H220535   4.334   3.297   2.504
 6765WAT      O20536   7.558   1.702   4.110
 6765WAT     H120537   7.546   1.610   4.148
 6765WAT     H220538   7.595   1.763   4.180
 6766WAT      O20539   6.043   6.147   9.870
 6766WAT     H120540   5.977   6.175   9.939
 6766WAT     H220541   6.075   6.228   9.820
 6767WAT      O20542   0.915   0.023   7.602
 6767WAT     H120543   0.967   0.004   7.686
 6767WAT     H220544   0.837  -0.039   7.597
 6768WAT      O20545   0.376   8.974   0.748
 6768WAT     H120546   0.355   9.044   0.817
 6768WAT     H220547   0.475   8.966   0.737
 6769WAT      O20548   4.431   5.250   8.763
 6769WAT     H120549   4.497   5.326   8.768
 6769WAT     H220550   4.471   5.169   8.806
 6770WAT      O20551   6.119   8.679   7.507
 6770WAT     H120552   6.114   8.778   7.492
 6770WAT     H220553   6.124   8.661   7.605
 6771WAT      O20554   3.441   0.538   1.460
 6771WAT     H120555   3.469   0.606   1.528
 6771WAT     H220556   3.507   0.463   1.459
 6772WAT      O20557   5.300   7.990   6.896
 6772WAT     H120558   5.306   8.017   6.800
 6772WAT     H220559   5.367   8.040   6.950
 6773WAT      O20560   2.730   6.186   9.121
 6773WAT     H120561   2.682   6.162   9.037
 6773WAT     H220562   2.682   6.261   9.167
 6774WAT      O20563   9.401   6.703   8.148
 6774WAT     H120564   9.366   6.626   8.095
 6774WAT     H220565   9.456   6.669   8.224
 6775WAT      O20566   8.913   1.110   1.300
 6775WAT     H120567   8.830   1.152   1.337
 6775WAT     H220568   8.975   1.088   1.375
 6776WAT      O20569   7.682   2.915   3.806
 6776WAT     H120570   7.629   2.833   3.825
 6776WAT     H220571   7.716   2.953   3.891
 6777WAT      O20572   4.720   4.307   4.286
 6777WAT     H120573   4.775   4.335   4.365
 6777WAT     H220574   4.713   4.207   4.283
 6778WAT      O20575   3.723   4.160   3.518
 6778WAT     H120576   3.770   4.078   3.550
 6778WAT     H220577   3.778   4.205   3.448
 6779WAT      O20578   4.606   8.422   3.624
 6779WAT     H120579   4.513   8.385   3.616
 6779WAT     H220580   4.671   8.355   3.590
 6780WAT      O20581   4.140   3.510   1.771
 6780WAT     H120582   4.187   3.512   1.683
 6780WAT     H220583   4.207   3.514   1.845
 6781WAT      O20584   9.769   6.374   1.367
 6781WAT     H120585   9.843   6.351   1.430
 6781WAT     H220586   9.793   6.344   1.275
 6782WAT      O20587   6.910   2.839   3.709
 6782WAT     H120588   6.919   2.908   3.781
 6782WAT     H220589   6.990   2.841   3.650
 6783WAT      O20590   5.441   7.027   8.341
 6783WAT     H120591   5.427   7.011   8.243
 6783WAT     H220592   5.361   6.997   8.392
 6784WAT      O20593   2.982   1.858   2.886
 6784WAT     H120594   3.033   1.774   2.904
 6784WAT     H220595   3.034   1.936   2.921
 6785WAT      O20596   3.066   9.830   0.223
 6785WAT     H120597   2.997   9.856   0.291
 6785WAT     H220598   3.054   9.733   0.200
 6786WAT      O20599   0.737   9.395   0.166
 6786WAT     H120600   0.673   9.338   0.113
 6786WAT     H220601   0.827   9.392   0.122
 6787WAT      O20602   0.658   3.658   0.860
 6787WAT     H120603   0.641   3.750   0.896
 6787WAT     H220604   0.649   3.591   0.933
 6788WAT      O20605   5.911   4.675   8.802
 6788WAT     H120606   5.825   4.640   8.767
 6788WAT     H220607   5.895   4.723   8.889
 6789WAT      O20608   5.201   7.419   8.333
 6789WAT     H120609   5.168   7.367   8.254
 6789WAT     H220610   5.191   7.364   8.415
 6790WAT      O20611   2.006   3.701   4.997
 6790WAT     H120612   2.061   3.633   5.046
 6790WAT     H220613   1.930   3.655   4.950
 6791WAT      O20614   3.626   2.426   9.876
 6791WAT     H120615   3.630   2.467   9.967
 6791WAT     H220616   3.711   2.376   9.858
 6792WAT      O20617   4.393   7.446   8.864
 6792WAT     H120618   4.486   7.437   8.899
 6792WAT     H220619   4.328   7.452   8.940
 6793WAT      O20620   9.266   3.449   3.603
 6793WAT     H120621   9.245   3.510   3.526
 6793WAT     H220622   9.364   3.430   3.605
 6794WAT      O20623   5.155   6.193   2.647
 6794WAT     H120624   5.246   6.222   2.676
 6794WAT     H220625   5.091   6.270   2.656
 6795WAT      O20626   5.996   3.340   6.483
 6795WAT     H120627   5.998   3.245   6.512
 6795WAT     H220628   5.900   3.370   6.475
 6796WAT      O20629   2.595   0.804   5.383
 6796WAT     H120630   2.558   0.800   5.290
 6796WAT     H220631   2.580   0.717   5.429
 6797WAT      O20632   2.327   1.939   4.806
 6797WAT     H120633   2.246   1.916   4.753
 6797WAT     H220634   2.351   1.862   4.865
 6798WAT      O20635   8.765   8.501   8.096
 6798WAT     H120636   8.800   8.533   8.184
 6798WAT     H220637   8.696   8.430   8.112
 6799WAT      O20638   9.257   1.872   0.572
 6799WAT     H120639   9.237   1.775   0.589
 6799WAT     H220640   9.302   1.912   0.652
 6800WAT      O20641   6.779   4.664   8.454
 6800WAT     H120642   6.690   4.620   8.457
 6800WAT     H220643   6.847   4.599   8.419
 6801WAT      O20644   7.812   1.996   0.313
 6801WAT     H120645   7.753   2.075   0.323
 6801WAT     H220646   7.761   1.921   0.270
 6802WAT      O20647   5.946   3.624   5.048
 6802WAT     H120648   5.898   3.704   5.084
 6802WAT     H220649   5.958   3.634   4.949
 6803WAT      O20650   9.240   3.108   0.872
 6803WAT     H120651   9.298   3.062   0.804
 6803WAT     H220652   9.283   3.194   0.900
 6804WAT      O20653   2.595   8.578   9.582
 6804WAT     H120654   2.619   8.540   9.671
 6804WAT     H220655   2.666   8.643   9.553
 6805WAT      O20656   1.188   3.051   0.292
 6805WAT     H120657   1.226   3.142   0.275
 6805WAT     H220658   1.184   3.000   0.207
 6806WAT      O20659   0.715   3.446   6.328
 6806WAT     H120660   0.777   3.373   6.358
 6806WAT     H220661   0.744   3.480   6.238
 6807WAT      O20662   4.913   3.204   1.557
 6807WAT     H120663   4.977   3.279   1.574
 6807WAT     H220664   4.868   3.218   1.469
 6808WAT      O20665   4.857   0.953   6.671
 6808WAT     H120666   4.954   0.962   6.697
 6808WAT     H220667   4.846   0.980   6.575
 6809WAT      O20668   1.270   4.635   8.271
 6809WAT     H120669   1.356   4.599   8.234
 6809WAT     H220670   1.258   4.730   8.242
 6810WAT      O20671   5.932   6.505   7.563
 6810WAT     H120672   6.020   6.513   7.610
 6810WAT     H220673   5.887   6.595   7.562
 6811WAT      O20674   4.439   8.037   3.281
 6811WAT     H120675   4.371   8.014   3.351
 6811WAT     H220676   4.394   8.039   3.191
 6812WAT      O20677   5.029   1.988   0.378
 6812WAT     H120678   5.078   2.048   0.441
 6812WAT     H220679   4.931   1.991   0.400
 6813WAT      O20680   2.542   5.940   8.107
 6813WAT     H120681   2.493   5.959   8.192
 6813WAT     H220682   2.478   5.937   8.031
 6814WAT      O20683   9.237   5.088   0.850
 6814WAT     H120684   9.207   4.992   0.851
 6814WAT     H220685   9.217   5.130   0.938
 6815WAT      O20686   6.618   0.820   0.948
 6815WAT     H120687   6.612   0.917   0.971
 6815WAT     H220688   6.530   0.775   0.968
 6816WAT      O20689   1.255   7.001   3.045
 6816WAT     H120690   1.338   7.054   3.023
 6816WAT     H220691   1.271   6.905   3.024
 6817WAT      O20692   8.648   2.672   7.894
 6817WAT     H120693   8.555   2.663   7.858
 6817WAT     H220694   8.712   2.687   7.818
 6818WAT      O20695   4.110   7.337   1.904
 6818WAT     H120696   4.164   7.372   1.827
 6818WAT     H220697   4.102   7.237   1.896
 6819WAT      O20698   6.872   8.805   1.850
 6819WAT     H120699   6.779   8.832   1.876
 6819WAT     H220700   6.885   8.821   1.752
 6820WAT      O20701   6.355   1.149   3.585
 6820WAT     H120702   6.276   1.088   3.577
 6820WAT     H220703   6.403   1.153   3.497
 6821WAT      O20704   2.082   4.869   8.987
 6821WAT     H120705   2.068   4.968   8.977
 6821WAT     H220706   2.043   4.822   8.908
 6822WAT      O20707   5.599   8.276   0.444
 6822WAT     H120708   5.634   8.365   0.474
 6822WAT     H220709   5.555   8.230   0.521
 6823WAT      O20710   0.582   4.662   3.137
 6823WAT     H120711   0.528   4.732   3.184
 6823WAT     H220712   0.677   4.692   3.131
 6824WAT      O20713   3.890   9.540   2.841
 6824WAT     H120714   3.839   9.602   2.901
 6824WAT     H220715   3.962   9.590   2.794
 6825WAT      O20716   6.657   7.172   4.104
 6825WAT     H120717   6.634   7.094   4.161
 6825WAT     H220718   6.642   7.148   4.008
 6826WAT      O20719   3.387   5.909   6.773
 6826WAT     H120720   3.412   5.994   6.818
 6826WAT     H220721   3.469   5.864   6.738
 6827WAT      O20722   4.463   5.830   2.707
 6827WAT     H120723   4.461   5.882   2.621
 6827WAT     H220724   4.426   5.886   2.781
 6828WAT      O20725   9.417   2.599   0.076
 6828WAT     H120726   9.426   2.528   0.006
 6828WAT     H220727   9.506   2.615   0.119
 6829WAT      O20728   3.389   4.071   0.190
 6829WAT     H120729   3.389   4.132   0.112
 6829WAT     H220730   3.387   3.976   0.158
 6830WAT      O20731   3.256   3.001   0.579
 6830WAT     H120732   3.272   3.030   0.673
 6830WAT     H220733   3.181   2.936   0.576
 6831WAT      O20734   8.082   6.416   9.559
 6831WAT     H120735   8.100   6.322   9.588
 6831WAT     H220736   8.153   6.446   9.496
 6832WAT      O20737   4.740   2.144   2.732
 6832WAT     H120738   4.772   2.234   2.703
 6832WAT     H220739   4.642   2.135   2.713
 6833WAT      O20740   3.959   4.378   2.613
 6833WAT     H120741   3.999   4.452   2.559
 6833WAT     H220742   3.990   4.290   2.578
 6834WAT      O20743   0.948   2.909   1.562
 6834WAT     H120744   0.857   2.931   1.597
 6834WAT     H220745   0.953   2.812   1.538
 6835WAT      O20746   8.380   4.400   8.010
 6835WAT     H120747   8.307   4.389   7.943
 6835WAT     H220748   8.442   4.472   7.980
 6836WAT      O20749   6.584   7.452   1.928
 6836WAT     H120750   6.677   7.424   1.907
 6836WAT     H220751   6.520   7.382   1.896
 6837WAT      O20752   0.301   6.459   5.890
 6837WAT     H120753   0.213   6.452   5.843
 6837WAT     H220754   0.304   6.393   5.965
 6838WAT      O20755   0.459   4.867   6.292
 6838WAT     H120756   0.509   4.814   6.223
 6838WAT     H220757   0.366   4.886   6.259
 6839WAT      O20758   8.264   5.721   9.244
 6839WAT     H120759   8.254   5.807   9.293
 6839WAT     H220760   8.174   5.681   9.229
 6840WAT      O20761   7.353   6.404   8.003
 6840WAT     H120762   7.299   6.337   7.952
 6840WAT     H220763   7.302   6.433   8.084
 6841WAT      O20764   7.926   1.001   1.473
 6841WAT     H120765   7.833   0.982   1.442
 6841WAT     H220766   7.989   0.938   1.427
 6842WAT      O20767   7.731   6.203   0.659
 6842WAT     H120768   7.721   6.184   0.562
 6842WAT     H220769   7.673   6.281   0.684
 6843WAT      O20770   7.253   4.486   0.033
 6843WAT     H120771   7.270   4.502  -0.064
 6843WAT     H220772   7.207   4.397   0.045
 6844WAT      O20773   8.512   8.420   2.751
 6844WAT     H120774   8.601   8.376   2.747
 6844WAT     H220775   8.441   8.357   2.719
 6845WAT      O20776   2.002   1.941   8.795
 6845WAT     H120777   2.074   1.947   8.864
 6845WAT     H220778   2.040   1.956   8.704
 6846WAT      O20779   6.861   5.145   5.988
 6846WAT     H120780   6.869   5.117   5.892
 6846WAT     H220781   6.819   5.236   5.993
 6847WAT      O20782   4.162   8.394   5.114
 6847WAT     H120783   4.195   8.463   5.050
 6847WAT     H220784   4.107   8.326   5.065
 6848WAT      O20785   1.254   6.441   5.294
 6848WAT     H120786   1.201   6.483   5.368
 6848WAT     H220787   1.295   6.513   5.237
 6849WAT      O20788   7.457   0.682   5.091
 6849WAT     H120789   7.549   0.650   5.116
 6849WAT     H220790   7.421   0.741   5.163
 6850WAT      O20791   4.094   7.432   0.123
 6850WAT     H120792   4.161   7.503   0.100
 6850WAT     H220793   4.135   7.367   0.187
 6851WAT      O20794   7.502   5.469   6.509
 6851WAT     H120795   7.496   5.568   6.520
 6851WAT     H220796   7.434   5.438   6.443
 6852WAT      O20797   0.761   2.003   7.550
 6852WAT     H120798   0.710   2.042   7.627
 6852WAT     H220799   0.852   1.977   7.581
 6853WAT      O20800   9.305   9.469   8.401
 6853WAT     H120801   9.233   9.404   8.373
 6853WAT     H220802   9.387   9.419   8.425
 6854WAT      O20803   8.433   7.645   6.517
 6854WAT     H120804   8.369   7.720   6.533
 6854WAT     H220805   8.480   7.660   6.430
 6855WAT      O20806   4.723   7.744   5.823
 6855WAT     H120807   4.726   7.718   5.919
 6855WAT     H220808   4.815   7.743   5.785
 6856WAT      O20809   7.331   9.643   2.793
 6856WAT     H120810   7.386   9.586   2.855
 6856WAT     H220811   7.272   9.703   2.847
 6857WAT      O20812   9.024   3.058   9.141
 6857WAT     H120813   9.100   3.118   9.115
 6857WAT     H220814   9.009   2.991   9.069
 6858WAT      O20815   0.534   9.592   8.427
 6858WAT     H120816   0.527   9.586   8.327
 6858WAT     H220817   0.517   9.686   8.456
 6859WAT      O20818   1.310   8.815   6.326
 6859WAT     H120819   1.388   8.849   6.379
 6859WAT     H220820   1.262   8.892   6.284
 6860WAT      O20821   3.366   7.570   8.519
 6860WAT     H120822   3.407   7.563   8.428
 6860WAT     H220823   3.382   7.486   8.570
 6861WAT      O20824   9.621   1.512   3.483
 6861WAT     H120825   9.627   1.611   3.471
 6861WAT     H220826   9.650   1.466   3.400
 6862WAT      O20827   3.375   3.089   8.923
 6862WAT     H120828   3.473   3.106   8.933
 6862WAT     H220829   3.343   3.031   8.997
 6863WAT      O20830   1.321   7.274   6.919
 6863WAT     H120831   1.340   7.190   6.868
 6863WAT     H220832   1.406   7.312   6.955
 6864WAT      O20833   5.913   0.378   5.259
 6864WAT     H120834   5.857   0.461   5.255
 6864WAT     H220835   6.009   0.402   5.244
 6865WAT      O20836   6.024   9.669   9.316
 6865WAT     H120837   6.031   9.684   9.414
 6865WAT     H220838   6.033   9.757   9.269
 6866WAT      O20839   4.772   3.249   4.999
 6866WAT     H120840   4.696   3.202   5.043
 6866WAT     H220841   4.787   3.212   4.908
 6867WAT      O20842   3.539   4.833   2.737
 6867WAT     H120843   3.519   4.737   2.723
 6867WAT     H220844   3.454   4.885   2.746
 6868WAT      O20845   0.486   1.537   2.421
 6868WAT     H120846   0.464   1.511   2.515
 6868WAT     H220847   0.503   1.635   2.417
 6869WAT      O20848   6.463   6.680   2.175
 6869WAT     H120849   6.481   6.601   2.233
 6869WAT     H220850   6.547   6.732   2.160
 6870WAT      O20851   4.550   7.104   8.418
 6870WAT     H120852   4.528   7.013   8.452
 6870WAT     H220853   4.579   7.098   8.322
 6871WAT      O20854   1.449   9.529   3.248
 6871WAT     H120855   1.387   9.456   3.220
 6871WAT     H220856   1.508   9.553   3.171
 6872WAT      O20857   9.384   3.045   0.619
 6872WAT     H120858   9.427   2.956   0.609
 6872WAT     H220859   9.451   3.112   0.652
 6873WAT      O20860   0.131   7.971   4.516
 6873WAT     H120861   0.079   7.976   4.430
 6873WAT     H220862   0.091   7.903   4.576
 6874WAT      O20863   4.220   2.340   6.254
 6874WAT     H120864   4.240   2.436   6.238
 6874WAT     H220865   4.135   2.315   6.209
 6875WAT      O20866   2.186   0.163   0.807
 6875WAT     H120867   2.199   0.239   0.743
 6875WAT     H220868   2.273   0.118   0.823
 6876WAT      O20869   6.413   2.897   3.734
 6876WAT     H120870   6.318   2.869   3.725
 6876WAT     H220871   6.419   2.996   3.733
 6877WAT      O20872   2.865   1.926   5.054
 6877WAT     H120873   2.807   1.967   5.124
 6877WAT     H220874   2.944   1.883   5.098
 6878WAT      O20875   1.794   1.210   7.187
 6878WAT     H120876   1.743   1.291   7.218
 6878WAT     H220877   1.767   1.188   7.093
 6879WAT      O20878   5.302   5.502   3.617
 6879WAT     H120879   5.285   5.435   3.689
 6879WAT     H220880   5.273   5.464   3.529
 6880WAT      O20881   3.668   3.966   2.111
 6880WAT     H120882   3.585   3.911   2.100
 6880WAT     H220883   3.746   3.915   2.074
 6881WAT      O20884   6.973   9.611   8.560
 6881WAT     H120885   7.029   9.625   8.478
 6881WAT     H220886   6.958   9.698   8.606
 6882WAT      O20887   0.647   3.960   4.028
 6882WAT     H120888   0.731   3.929   4.073
 6882WAT     H220889   0.653   3.940   3.930
 6883WAT      O20890   4.379   8.142   5.663
 6883WAT     H120891   4.362   8.212   5.732
 6883WAT     H220892   4.312   8.069   5.673
 6884WAT      O20893   6.194   6.214   0.175
 6884WAT     H120894   6.149   6.209   0.086
 6884WAT     H220895   6.174   6.132   0.228
 6885WAT      O20896   9.315   5.417   1.962
 6885WAT     H120897   9.274   5.342   1.911
 6885WAT     H220898   9.301   5.503   1.911
 6886WAT      O20899   1.155   4.101   2.096
 6886WAT     H120900   1.176   4.122   2.000
 6886WAT     H220901   1.121   4.008   2.103
 6887WAT      O20902   1.597   7.560   4.704
 6887WAT     H120903   1.659   7.550   4.626
 6887WAT     H220904   1.593   7.656   4.732
 6888WAT      O20905   4.135   6.476   9.672
 6888WAT     H120906   4.165   6.477   9.767
 6888WAT     H220907   4.215   6.481   9.612
 6889WAT      O20908   1.731   9.665   2.779
 6889WAT     H120909   1.786   9.582   2.769
 6889WAT     H220910   1.752   9.708   2.867
 6890WAT      O20911   1.899   4.209   7.597
 6890WAT     H120912   1.853   4.193   7.684
 6890WAT     H220913   1.897   4.307   7.576
 6891WAT      O20914   5.468   2.645   7.986
 6891WAT     H120915   5.417   2.732   7.987
 6891WAT     H220916   5.491   2.622   7.891
 6892WAT      O20917   5.349   8.737   9.280
 6892WAT     H120918   5.348   8.825   9.232
 6892WAT     H220919   5.279   8.678   9.240
 6893WAT      O20920   3.557   3.086   7.670
 6893WAT     H120921   3.649   3.100   7.634
 6893WAT     H220922   3.503   3.170   7.657
 6894WAT      O20923   4.079   5.437   4.436
 6894WAT     H120924   4.022   5.507   4.393
 6894WAT     H220925   4.174   5.449   4.407
 6895WAT      O20926   5.497   7.834   1.030
 6895WAT     H120927   5.462   7.771   0.961
 6895WAT     H220928   5.585   7.802   1.064
 6896WAT      O20929   7.613   5.704   3.534
 6896WAT     H120930   7.630   5.781   3.471
 6896WAT     H220931   7.517   5.678   3.530
 6897WAT      O20932   0.484   0.990   4.167
 6897WAT     H120933   0.495   0.895   4.198
 6897WAT     H220934   0.403   1.029   4.210
 6898WAT      O20935   0.269   5.053   6.598
 6898WAT     H120936   0.359   5.034   6.637
 6898WAT     H220937   0.274   5.132   6.537
 6899WAT      O20938   5.219   1.438   5.600
 6899WAT     H120939   5.252   1.453   5.506
 6899WAT     H220940   5.172   1.350   5.605
 6900WAT      O20941   2.304   2.306   6.645
 6900WAT     H120942   2.287   2.293   6.547
 6900WAT     H220943   2.243   2.377   6.680
 6901WAT      O20944   0.011   1.196   3.238
 6901WAT     H120945  -0.067   1.258   3.242
 6901WAT     H220946  -0.021   1.103   3.217
 6902WAT      O20947   8.075   7.154   8.009
 6902WAT     H120948   8.105   7.090   8.079
 6902WAT     H220949   8.148   7.220   7.990
 6903WAT      O20950   4.860   9.164   4.351
 6903WAT     H120951   4.902   9.246   4.390
 6903WAT     H220952   4.893   9.084   4.401
 6904WAT      O20953   5.463   2.994   3.603
 6904WAT     H120954   5.391   2.981   3.671
 6904WAT     H220955   5.463   2.918   3.538
 6905WAT      O20956   7.800   5.014   6.597
 6905WAT     H120957   7.795   5.007   6.497
 6905WAT     H220958   7.813   4.923   6.636
 6906WAT      O20959   3.015   2.629   7.357
 6906WAT     H120960   2.969   2.560   7.411
 6906WAT     H220961   3.102   2.653   7.400
 6907WAT      O20962   3.249   0.076   7.829
 6907WAT     H120963   3.289   0.053   7.740
 6907WAT     H220964   3.199  -0.003   7.864
 6908WAT      O20965   1.450   3.818   1.066
 6908WAT     H120966   1.438   3.903   1.117
 6908WAT     H220967   1.445   3.741   1.129
 6909WAT      O20968   2.715   1.371   6.622
 6909WAT     H120969   2.795   1.378   6.682
 6909WAT     H220970   2.647   1.440   6.651
 6910WAT      O20971   3.342   2.466   5.504
 6910WAT     H120972   3.295   2.554   5.501
 6910WAT     H220973   3.435   2.479   5.537
 6911WAT      O20974   0.729   6.922   2.533
 6911WAT     H120975   0.659   6.903   2.602
 6911WAT     H220976   0.718   7.016   2.500
 6912WAT      O20977   0.434   8.283   5.406
 6912WAT     H120978   0.347   8.331   5.392
 6912WAT     H220979   0.497   8.343   5.456
 6913WAT      O20980   4.604   6.783   0.504
 6913WAT     H120981   4.700   6.811   0.499
 6913WAT     H220982   4.593   6.695   0.458
 6914WAT      O20983   2.824   7.475   2.355
 6914WAT     H120984   2.745   7.434   2.310
 6914WAT     H220985   2.902   7.473   2.292
 6915WAT      O20986   5.580   9.002   0.690
 6915WAT     H120987   5.508   9.035   0.750
 6915WAT     H220988   5.634   8.932   0.737
 6916WAT      O20989   6.037   3.771   1.941
 6916WAT     H120990   6.036   3.853   1.885
 6916WAT     H220991   5.977   3.784   2.020
 6917WAT      O20992   6.587   7.712   9.333
 6917WAT     H120993   6.650   7.786   9.309
 6917WAT     H220994   6.611   7.676   9.423
 6918WAT      O20995   1.392   3.231   2.506
 6918WAT     H120996   1.464   3.299   2.519
 6918WAT     H220997   1.304   3.276   2.496
 6919WAT      O20998   1.942   5.996   1.059
 6919WAT     H120999   1.846   5.999   1.031
 6919WAT     H221000   1.998   5.959   0.985
 6920WAT      O21001   2.822   8.279   6.831
 6920WAT     H121002   2.805   8.205   6.896
 6920WAT     H221003   2.772   8.361   6.858
 6921WAT      O21004   2.275   2.191   4.820
 6921WAT     H121005   2.280   2.092   4.832
 6921WAT     H221006   2.349   2.221   4.760
 6922WAT      O21007   8.465   1.496   4.389
 6922WAT     H121008   8.460   1.402   4.422
 6922WAT     H221009   8.550   1.538   4.422
 6923WAT      O21010   6.647   4.337   7.420
 6923WAT     H121011   6.615   4.405   7.486
 6923WAT     H221012   6.725   4.373   7.370
 6924WAT      O21013   9.371   1.553   3.066
 6924WAT     H121014   9.313   1.556   2.985
 6924WAT     H221015   9.342   1.623   3.131
 6925WAT      O21016   0.773   5.104   0.511
 6925WAT     H121017   0.845   5.167   0.540
 6925WAT     H221018   0.742   5.129   0.419
 6926WAT      O21019   1.908   9.325   0.718
 6926WAT     H121020   1.973   9.352   0.789
 6926WAT     H221021   1.819   9.306   0.760
 6927WAT      O21022   6.246   1.546   4.008
 6927WAT     H121023   6.266   1.501   3.921
 6927WAT     H221024   6.151   1.527   4.034
 6928WAT      O21025   2.563   1.751   7.180
 6928WAT     H121026   2.652   1.761   7.224
 6928WAT     H221027   2.491   1.753   7.249
 6929WAT      O21028   5.409   4.099   0.148
 6929WAT     H121029   5.320   4.138   0.124
 6929WAT     H221030   5.462   4.167   0.199
 6930WAT      O21031   1.110   1.800   9.519
 6930WAT     H121032   1.092   1.710   9.559
 6930WAT     H221033   1.064   1.870   9.574
 6931WAT      O21034   7.857   2.050   8.197
 6931WAT     H121035   7.778   2.110   8.184
 6931WAT     H221036   7.827   1.965   8.241
 6932WAT      O21037   2.648   7.643   8.232
 6932WAT     H121038   2.580   7.694   8.181
 6932WAT     H221039   2.683   7.568   8.176
 6933WAT      O21040   9.877   3.355   4.398
 6933WAT     H121041   9.858   3.429   4.333
 6933WAT     H221042   9.864   3.267   4.353
 6934WAT      O21043   1.863   2.036   9.203
 6934WAT     H121044   1.952   2.059   9.164
 6934WAT     H221045   1.865   1.942   9.238
 6935WAT      O21046   7.844   8.914   9.397
 6935WAT     H121047   7.834   8.938   9.300
 6935WAT     H221048   7.755   8.894   9.436
 6936WAT      O21049   0.435   8.940   0.435
 6936WAT     H121050   0.396   8.990   0.358
 6936WAT     H221051   0.396   8.975   0.520
 6937WAT      O21052   5.350   6.033   1.119
 6937WAT     H121053   5.377   6.045   1.023
 6937WAT     H221054   5.289   5.954   1.127
 6938WAT      O21055   2.980   3.707   8.725
 6938WAT     H121056   2.935   3.795   8.732
 6938WAT     H221057   2.966   3.669   8.633
 6939WAT      O21058   2.030   2.974   6.297
 6939WAT     H121059   1.950   2.915   6.298
 6939WAT     H221060   2.099   2.937   6.360
 6940WAT      O21061   4.531   8.971   3.228
 6940WAT     H121062   4.593   8.934   3.158
 6940WAT     H221063   4.585   9.012   3.301
 6941WAT      O21064   9.282   9.381   8.924
 6941WAT     H121065   9.233   9.365   8.839
 6941WAT     H221066   9.380   9.372   8.909
 6942WAT      O21067   4.294   6.614   9.191
 6942WAT     H121068   4.294   6.665   9.106
 6942WAT     H221069   4.216   6.643   9.247
 6943WAT      O21070   1.147   0.046   4.294
 6943WAT     H121071   1.232   0.054   4.242
 6943WAT     H221072   1.133   0.129   4.348
 6944WAT      O21073   6.866   0.195   3.956
 6944WAT     H121074   6.826   0.104   3.942
 6944WAT     H221075   6.853   0.223   4.051
 6945WAT      O21076   0.891   2.341   0.300
 6945WAT     H121077   0.858   2.321   0.208
 6945WAT     H221078   0.948   2.266   0.332
 6946WAT      O21079   3.697   4.352   8.902
 6946WAT     H121080   3.763   4.398   8.962
 6946WAT     H221081   3.607   4.355   8.944
 6947WAT      O21082   6.758   2.477   1.535
 6947WAT     H121083   6.747   2.429   1.448
 6947WAT     H221084   6.785   2.571   1.517
 6948WAT      O21085   8.285   7.650   2.891
 6948WAT     H121086   8.360   7.635   2.956
 6948WAT     H221087   8.317   7.706   2.815
 6949WAT      O21088   5.693   1.508   3.014
 6949WAT     H121089   5.742   1.567   2.950
 6949WAT     H221090   5.679   1.418   2.972
 6950WAT      O21091   3.042   9.226   8.670
 6950WAT     H121092   2.974   9.296   8.687
 6950WAT     H221093   2.998   9.136   8.669
 6951WAT      O21094   1.420   9.000   5.844
 6951WAT     H121095   1.473   9.006   5.760
 6951WAT     H221096   1.325   8.978   5.822
 6952WAT      O21097   5.735   6.674   0.279
 6952WAT     H121098   5.708   6.655   0.185
 6952WAT     H221099   5.805   6.609   0.308
 6953WAT      O21100   1.920   0.745   9.427
 6953WAT     H121101   1.893   0.693   9.346
 6953WAT     H221102   1.838   0.779   9.473
 6954WAT      O21103   5.427   1.615   7.730
 6954WAT     H121104   5.509   1.653   7.686
 6954WAT     H221105   5.365   1.581   7.659
 6955WAT      O21106   0.581   9.841   1.513
 6955WAT     H121107   0.644   9.773   1.478
 6955WAT     H221108   0.580   9.920   1.452
 6956WAT      O21109   3.373   9.767   1.297
 6956WAT     H121110   3.274   9.778   1.283
 6956WAT     H221111   3.392   9.671   1.317
 6957WAT      O21112   7.929   2.214   4.747
 6957WAT     H121113   7.924   2.120   4.780
 6957WAT     H221114   8.007   2.261   4.790
 6958WAT      O21115   1.703   2.717   5.695
 6958WAT     H121116   1.743   2.680   5.611
 6958WAT     H221117   1.755   2.798   5.723
 6959WAT      O21118   6.784   3.941   1.470
 6959WAT     H121119   6.739   3.941   1.381
 6959WAT     H221120   6.828   3.852   1.484
 6960WAT      O21121   3.624   7.622   4.527
 6960WAT     H121122   3.564   7.683   4.477
 6960WAT     H221123   3.577   7.535   4.544
 6961WAT      O21124   2.353   4.494   0.473
 6961WAT     H121125   2.280   4.562   0.468
 6961WAT     H221126   2.322   4.414   0.523
 6962WAT      O21127   5.375   6.778   0.205
 6962WAT     H121128   5.405   6.800   0.112
 6962WAT     H221129   5.409   6.848   0.268
 6963WAT      O21130   1.338   6.670   7.073
 6963WAT     H121131   1.311   6.755   7.028
 6963WAT     H221132   1.431   6.680   7.108
 6964WAT      O21133   1.612   6.765   3.377
 6964WAT     H121134   1.584   6.780   3.282
 6964WAT     H221135   1.711   6.756   3.381
 6965WAT      O21136   5.497   2.834   1.321
 6965WAT     H121137   5.399   2.824   1.305
 6965WAT     H221138   5.523   2.790   1.406
 6966WAT      O21139   6.333   6.942   8.737
 6966WAT     H121140   6.242   6.983   8.734
 6966WAT     H221141   6.360   6.914   8.644
 6967WAT      O21142   3.338   6.284   2.504
 6967WAT     H121143   3.427   6.327   2.519
 6967WAT     H221144   3.344   6.223   2.425
 6968WAT      O21145   7.490   2.122   3.410
 6968WAT     H121146   7.499   2.165   3.500
 6968WAT     H221147   7.439   2.036   3.420
 6969WAT      O21148   7.377   2.252   8.584
 6969WAT     H121149   7.391   2.160   8.622
 6969WAT     H221150   7.401   2.320   8.653
 6970WAT      O21151   7.744   6.917   8.159
 6970WAT     H121152   7.774   6.999   8.110
 6970WAT     H221153   7.669   6.874   8.108
 6971WAT      O21154   4.519   9.174   0.983
 6971WAT     H121155   4.466   9.202   1.063
 6971WAT     H221156   4.608   9.140   1.012
 6972WAT      O21157   8.174   2.083   0.906
 6972WAT     H121158   8.094   2.063   0.849
 6972WAT     H221159   8.215   1.997   0.936
 6973WAT      O21160   0.647   7.771   6.863
 6973WAT     H121161   0.640   7.811   6.955
 6973WAT     H221162   0.699   7.686   6.868
 6974WAT      O21163   5.306   9.631   4.470
 6974WAT     H121164   5.345   9.598   4.384
 6974WAT     H221165   5.367   9.700   4.510
 6975WAT      O21166   2.903   6.112   2.114
 6975WAT     H121167   2.804   6.101   2.115
 6975WAT     H221168   2.942   6.075   2.197
 6976WAT      O21169   7.987   9.254   4.222
 6976WAT     H121170   8.035   9.341   4.222
 6976WAT     H221171   7.908   9.259   4.161
 6977WAT      O21172   4.006   2.697   0.589
 6977WAT     H121173   4.053   2.739   0.511
 6977WAT     H221174   3.975   2.768   0.652
 6978WAT      O21175   6.136   7.041   1.034
 6978WAT     H121176   6.170   6.958   0.991
 6978WAT     H221177   6.037   7.046   1.024
 6979WAT      O21178   6.302   5.236   8.510
 6979WAT     H121179   6.383   5.294   8.502
 6979WAT     H221180   6.324   5.144   8.479
 6980WAT      O21181   7.304   5.330   6.805
 6980WAT     H121182   7.395   5.291   6.793
 6980WAT     H221183   7.260   5.286   6.884
 6981WAT      O21184   1.579   2.276   7.619
 6981WAT     H121185   1.576   2.206   7.547
 6981WAT     H221186   1.674   2.297   7.641
 6982WAT      O21187   8.928   6.681   7.514
 6982WAT     H121188   8.906   6.688   7.611
 6982WAT     H221189   8.863   6.619   7.470
 6983WAT      O21190   8.124   2.067   8.546
 6983WAT     H121191   8.216   2.078   8.585
 6983WAT     H221192   8.123   1.988   8.486
 6984WAT      O21193   7.608   9.060   7.279
 6984WAT     H121194   7.702   9.096   7.276
 6984WAT     H221195   7.600   8.984   7.215
 6985WAT      O21196   7.048   2.882   1.626
 6985WAT     H121197   7.015   2.797   1.585
 6985WAT     H221198   7.014   2.960   1.573
 6986WAT      O21199   7.414   9.147   8.559
 6986WAT     H121200   7.422   9.246   8.547
 6986WAT     H221201   7.475   9.101   8.494
 6987WAT      O21202   4.268   2.681   8.537
 6987WAT     H121203   4.257   2.773   8.499
 6987WAT     H221204   4.290   2.616   8.464
 6988WAT      O21205   6.246   6.449   4.766
 6988WAT     H121206   6.205   6.522   4.820
 6988WAT     H221207   6.173   6.395   4.724
 6989WAT      O21208   7.189   6.797   2.687
 6989WAT     H121209   7.228   6.799   2.779
 6989WAT     H221210   7.096   6.836   2.690
 6990WAT      O21211   3.124   4.513   8.320
 6990WAT     H121212   3.118   4.555   8.410
 6990WAT     H221213   3.199   4.557   8.269
 6991WAT      O21214   5.751   2.580   6.441
 6991WAT     H121215   5.782   2.485   6.438
 6991WAT     H221216   5.830   2.641   6.443
 6992WAT      O21217   8.947   6.771   8.598
 6992WAT     H121218   9.043   6.761   8.573
 6992WAT     H221219   8.905   6.842   8.542
 6993WAT      O21220   0.060   8.337   9.690
 6993WAT     H121221   0.066   8.432   9.720
 6993WAT     H221222  -0.035   8.307   9.691
 6994WAT      O21223   6.635   2.864   6.301
 6994WAT     H121224   6.568   2.893   6.369
 6994WAT     H221225   6.704   2.936   6.289
 6995WAT      O21226   7.574   3.945   4.403
 6995WAT     H121227   7.665   3.905   4.393
 6995WAT     H221228   7.523   3.933   4.318
 6996WAT      O21229   8.999   2.044   5.390
 6996WAT     H121230   8.905   2.063   5.361
 6996WAT     H221231   8.997   1.988   5.472
 6997WAT      O21232   7.564   2.155   7.851
 6997WAT     H121233   7.600   2.063   7.868
 6997WAT     H221234   7.466   2.150   7.832
 6998WAT      O21235   0.344   6.778   8.462
 6998WAT     H121236   0.260   6.772   8.516
 6998WAT     H221237   0.365   6.688   8.423
 6999WAT      O21238   1.613   8.780   9.478
 6999WAT     H121239   1.638   8.690   9.514
 6999WAT     H221240   1.585   8.772   9.383
 7000WAT      O21241   0.058   2.777   2.748
 7000WAT     H121242   0.003   2.762   2.666
 7000WAT     H221243   0.047   2.872   2.778
 7001WAT      O21244   8.594   0.378   8.074
 7001WAT     H121245   8.632   0.286   8.088
 7001WAT     H221246   8.505   0.384   8.119
 7002WAT      O21247   9.696   0.805   7.063
 7002WAT     H121248   9.629   0.767   6.999
 7002WAT     H221249   9.746   0.731   7.107
 7003WAT      O21250   6.530   5.212   7.914
 7003WAT     H121251   6.498   5.272   7.988
 7003WAT     H221252   6.460   5.142   7.897
 7004WAT      O21253   5.770   7.317   1.142
 7004WAT     H121254   5.710   7.250   1.098
 7004WAT     H221255   5.736   7.409   1.122
 7005WAT      O21256   8.225   1.776   2.373
 7005WAT     H121257   8.146   1.735   2.418
 7005WAT     H221258   8.230   1.874   2.397
 7006WAT      O21259   3.117   4.704   4.165
 7006WAT     H121260   3.074   4.616   4.143
 7006WAT     H221261   3.150   4.702   4.259
 7007WAT      O21262   1.025   5.244   8.817
 7007WAT     H121263   0.968   5.220   8.895
 7007WAT     H221264   0.975   5.225   8.732
 7008WAT      O21265   5.646   7.884   7.560
 7008WAT     H121266   5.732   7.928   7.586
 7008WAT     H221267   5.666   7.796   7.517
 7009WAT      O21268   1.990   6.468   9.101
 7009WAT     H121269   1.942   6.464   9.189
 7009WAT     H221270   1.925   6.490   9.028
 7010WAT      O21271   9.669   5.353   8.158
 7010WAT     H121272   9.678   5.254   8.173
 7010WAT     H221273   9.733   5.401   8.217
 7011WAT      O21274   2.152   4.346   3.770
 7011WAT     H121275   2.181   4.376   3.861
 7011WAT     H221276   2.227   4.297   3.726
 7012WAT      O21277   3.358   7.027   6.920
 7012WAT     H121278   3.341   7.074   7.007
 7012WAT     H221279   3.304   6.943   6.917
 7013WAT      O21280   4.146   4.747   8.646
 7013WAT     H121281   4.122   4.844   8.650
 7013WAT     H221282   4.202   4.730   8.565
 7014WAT      O21283   5.558   9.492   7.184
 7014WAT     H121284   5.628   9.521   7.118
 7014WAT     H221285   5.594   9.503   7.276
 7015WAT      O21286   0.673   0.680   7.473
 7015WAT     H121287   0.655   0.769   7.517
 7015WAT     H221288   0.605   0.614   7.505
 7016WAT      O21289   1.668   5.094   2.278
 7016WAT     H121290   1.603   5.170   2.289
 7016WAT     H221291   1.761   5.130   2.271
 7017WAT      O21292   0.825   7.116   6.564
 7017WAT     H121293   0.856   7.058   6.488
 7017WAT     H221294   0.814   7.059   6.646
 7018WAT      O21295   3.594   3.338   3.014
 7018WAT     H121296   3.542   3.344   3.099
 7018WAT     H221297   3.587   3.245   2.977
 7019WAT      O21298   9.041   3.807   8.365
 7019WAT     H121299   9.077   3.742   8.432
 7019WAT     H221300   8.962   3.854   8.404
 7020WAT      O21301   2.890   2.095   3.224
 7020WAT     H121302   2.861   2.163   3.157
 7020WAT     H221303   2.810   2.061   3.273
 7021WAT      O21304   7.238   6.405   9.847
 7021WAT     H121305   7.178   6.391   9.926
 7021WAT     H221306   7.280   6.318   9.822
 7022WAT      O21307   5.267   9.396   5.254
 7022WAT     H121308   5.333   9.467   5.229
 7022WAT     H221309   5.180   9.414   5.207
 7023WAT      O21310   0.685   8.033   2.788
 7023WAT     H121311   0.677   7.957   2.852
 7023WAT     H221312   0.708   8.116   2.838
 7024WAT      O21313   7.653   6.800   0.789
 7024WAT     H121314   7.731   6.737   0.779
 7024WAT     H221315   7.670   6.861   0.866
 7025WAT      O21316   1.035   7.098   5.905
 7025WAT     H121317   0.942   7.134   5.912
 7025WAT     H221318   1.067   7.107   5.811
 7026WAT      O21319   5.076   3.018   6.910
 7026WAT     H121320   5.090   2.951   6.838
 7026WAT     H221321   5.137   2.997   6.987
 7027WAT      O21322   2.547   2.190   7.906
 7027WAT     H121323   2.466   2.139   7.936
 7027WAT     H221324   2.629   2.145   7.943
 7028WAT      O21325   2.444   1.664   4.236
 7028WAT     H121326   2.525   1.708   4.197
 7028WAT     H221327   2.471   1.585   4.290
 7029WAT      O21328   5.693   5.199   8.599
 7029WAT     H121329   5.635   5.272   8.565
 7029WAT     H221330   5.783   5.204   8.555
 7030WAT      O21331   0.492   5.750   6.969
 7030WAT     H121332   0.549   5.716   7.043
 7030WAT     H221333   0.435   5.825   7.002
 7031WAT      O21334   7.478   9.228   6.540
 7031WAT     H121335   7.391   9.196   6.577
 7031WAT     H221336   7.462   9.306   6.480
 7032WAT      O21337   4.016   0.379   4.447
 7032WAT     H121338   4.024   0.317   4.525
 7032WAT     H221339   4.095   0.366   4.386
 7033WAT      O21340   8.863   0.944   4.280
 7033WAT     H121341   8.868   0.960   4.379
 7033WAT     H221342   8.836   0.849   4.264
 7034WAT      O21343   0.389   0.481   5.504
 7034WAT     H121344   0.399   0.486   5.604
 7034WAT     H221345   0.369   0.387   5.477
 7035WAT      O21346   0.360   8.516   3.753
 7035WAT     H121347   0.392   8.421   3.759
 7035WAT     H221348   0.268   8.522   3.792
 7036WAT      O21349   0.605   5.610   0.766
 7036WAT     H121350   0.580   5.676   0.695
 7036WAT     H221351   0.586   5.517   0.735
 7037WAT      O21352   3.201   3.347   5.836
 7037WAT     H121353   3.152   3.389   5.760
 7037WAT     H221354   3.299   3.352   5.820
 7038WAT      O21355   8.232   7.014   0.573
 7038WAT     H121356   8.134   7.027   0.586
 7038WAT     H221357   8.260   6.928   0.615
 7039WAT      O21358   4.991   5.600   8.473
 7039WAT     H121359   5.068   5.546   8.441
 7039WAT     H221360   5.015   5.648   8.557
 7040WAT      O21361   7.450   0.597   1.800
 7040WAT     H121362   7.402   0.633   1.880
 7040WAT     H221363   7.492   0.672   1.749
 7041WAT      O21364   2.766   2.931   7.595
 7041WAT     H121365   2.817   2.958   7.677
 7041WAT     H221366   2.680   2.982   7.591
 7042WAT      O21367   8.535   9.059   6.754
 7042WAT     H121368   8.621   9.009   6.767
 7042WAT     H221369   8.527   9.087   6.658
 7043WAT      O21370   6.611   7.102   8.238
 7043WAT     H121371   6.550   7.125   8.315
 7043WAT     H221372   6.706   7.117   8.265
 7044WAT      O21373   3.717   2.470   7.379
 7044WAT     H121374   3.791   2.522   7.422
 7044WAT     H221375   3.729   2.373   7.399
 7045WAT      O21376   1.130   1.492   3.051
 7045WAT     H121377   1.113   1.490   2.952
 7045WAT     H221378   1.044   1.480   3.099
 7046WAT      O21379   3.643   0.273   7.927
 7046WAT     H121380   3.566   0.214   7.953
 7046WAT     H221381   3.711   0.273   8.001
 7047WAT      O21382   4.095   1.847   1.447
 7047WAT     H121383   4.085   1.926   1.507
 7047WAT     H221384   4.050   1.767   1.489
 7048WAT      O21385   3.550   3.733   2.823
 7048WAT     H121386   3.518   3.639   2.828
 7048WAT     H221387   3.526   3.772   2.734
 7049WAT      O21388   8.059   3.712   6.625
 7049WAT     H121389   8.093   3.640   6.685
 7049WAT     H221390   8.064   3.682   6.530
 7050WAT      O21391   6.871   3.564   6.742
 7050WAT     H121392   6.951   3.615   6.774
 7050WAT     H221393   6.831   3.611   6.663
 7051WAT      O21394   3.807   1.759   5.853
 7051WAT     H121395   3.807   1.663   5.825
 7051WAT     H221396   3.734   1.808   5.805
 7052WAT      O21397   7.889   0.383   9.657
 7052WAT     H121398   7.824   0.390   9.580
 7052WAT     H221399   7.982   0.381   9.621
 7053WAT      O21400   9.482   5.936   6.227
 7053WAT     H121401   9.549   6.007   6.247
 7053WAT     H221402   9.479   5.870   6.302
 7054WAT      O21403   4.236   4.830   9.730
 7054WAT     H121404   4.233   4.899   9.658
 7054WAT     H221405   4.330   4.798   9.742
 7055WAT      O21406   5.684   3.042   0.369
 7055WAT     H121407   5.663   2.947   0.391
 7055WAT     H221408   5.625   3.073   0.295
 7056WAT      O21409   9.763   3.753   5.201
 7056WAT     H121410   9.739   3.674   5.258
 7056WAT     H221411   9.839   3.803   5.244
 7057WAT      O21412   7.553   4.331   5.451
 7057WAT     H121413   7.457   4.356   5.461
 7057WAT     H221414   7.582   4.344   5.356
 7058WAT      O21415   8.685   3.832   8.679
 7058WAT     H121416   8.604   3.838   8.737
 7058WAT     H221417   8.716   3.924   8.655
 7059WAT      O21418   0.644   3.235   6.163
 7059WAT     H121419   0.726   3.248   6.108
 7059WAT     H221420   0.644   3.299   6.240
 7060WAT      O21421   6.896   0.182   1.949
 7060WAT     H121422   6.947   0.267   1.936
 7060WAT     H221423   6.817   0.199   2.008
 7061WAT      O21424   2.244   8.061   0.554
 7061WAT     H121425   2.247   8.081   0.456
 7061WAT     H221426   2.318   8.111   0.600
 7062WAT      O21427   6.409   0.765   7.701
 7062WAT     H121428   6.379   0.779   7.607
 7062WAT     H221429   6.334   0.786   7.764
 7063WAT      O21430   2.678   1.634   8.469
 7063WAT     H121431   2.584   1.664   8.453
 7063WAT     H221432   2.721   1.696   8.536
 7064WAT      O21433   8.109   8.872   5.047
 7064WAT     H121434   8.118   8.774   5.028
 7064WAT     H221435   8.060   8.916   4.971
 7065WAT      O21436   1.374   8.761   5.256
 7065WAT     H121437   1.361   8.671   5.213
 7065WAT     H221438   1.377   8.749   5.356
 7066WAT      O21439   3.108   3.575   9.293
 7066WAT     H121440   3.034   3.561   9.228
 7066WAT     H221441   3.189   3.523   9.265
 7067WAT      O21442   2.378   3.990   5.709
 7067WAT     H121443   2.381   4.086   5.682
 7067WAT     H221444   2.389   3.933   5.628
 7068WAT      O21445   6.712   1.688   4.065
 7068WAT     H121446   6.670   1.602   4.094
 7068WAT     H221447   6.705   1.696   3.965
 7069WAT      O21448   1.095   3.293   9.779
 7069WAT     H121449   1.045   3.375   9.751
 7069WAT     H221450   1.126   3.244   9.697
 7070WAT      O21451   0.333   7.261   2.929
 7070WAT     H121452   0.289   7.319   2.997
 7070WAT     H221453   0.313   7.295   2.837
 7071WAT      O21454   9.709   1.696   3.174
 7071WAT     H121455   9.809   1.696   3.166
 7071WAT     H221456   9.668   1.734   3.091
 7072WAT      O21457   2.561   1.788   2.992
 7072WAT     H121458   2.470   1.828   3.004
 7072WAT     H221459   2.609   1.836   2.919
 7073WAT      O21460   6.893   8.915   7.032
 7073WAT     H121461   6.909   8.990   6.968
 7073WAT     H221462   6.962   8.917   7.104
 7074WAT      O21463   1.636   2.357   8.404
 7074WAT     H121464   1.658   2.453   8.386
 7074WAT     H221465   1.710   2.299   8.372
 7075WAT      O21466   6.740   1.696   2.337
 7075WAT     H121467   6.776   1.752   2.411
 7075WAT     H221468   6.723   1.603   2.370
 7076WAT      O21469   4.767   9.648   6.645
 7076WAT     H121470   4.813   9.675   6.730
 7076WAT     H221471   4.781   9.550   6.629
 7077WAT      O21472   8.259   2.018   9.732
 7077WAT     H121473   8.223   2.100   9.777
 7077WAT     H221474   8.218   2.008   9.641
 7078WAT      O21475   5.037   7.899   6.912
 7078WAT     H121476   5.000   7.965   6.846
 7078WAT     H221477   5.127   7.930   6.943
 7079WAT      O21478   5.610   6.886   0.358
 7079WAT     H121479   5.539   6.849   0.419
 7079WAT     H221480   5.670   6.813   0.327
 7080WAT      O21481   1.819   7.510   3.978
 7080WAT     H121482   1.884   7.513   3.902
 7080WAT     H221483   1.752   7.438   3.963
 7081WAT      O21484   6.587   7.893   1.419
 7081WAT     H121485   6.562   7.952   1.496
 7081WAT     H221486   6.668   7.931   1.374
 7082WAT      O21487   1.131   0.883   6.446
 7082WAT     H121488   1.229   0.894   6.463
 7082WAT     H221489   1.096   0.807   6.500
 7083WAT      O21490   6.709   2.522   2.427
 7083WAT     H121491   6.773   2.589   2.464
 7083WAT     H221492   6.743   2.430   2.446
 7084WAT      O21493   4.319   7.047   2.320
 7084WAT     H121494   4.410   7.077   2.291
 7084WAT     H221495   4.309   6.949   2.303
 7085WAT      O21496   4.244   0.252   0.997
 7085WAT     H121497   4.149   0.279   0.981
 7085WAT     H221498   4.304   0.304   0.936
 7086WAT      O21499   7.042   8.470   9.387
 7086WAT     H121500   7.080   8.379   9.402
 7086WAT     H221501   6.942   8.466   9.387
 7087WAT      O21502   8.348   5.730   9.688
 7087WAT     H121503   8.435   5.756   9.730
 7087WAT     H221504   8.283   5.704   9.760
 7088WAT      O21505   3.881   7.946   2.284
 7088WAT     H121506   3.798   7.988   2.248
 7088WAT     H221507   3.955   8.013   2.284
 7089WAT      O21508   5.825   0.581   4.027
 7089WAT     H121509   5.779   0.497   4.053
 7089WAT     H221510   5.778   0.659   4.068
 7090WAT      O21511   3.533   0.043   1.686
 7090WAT     H121512   3.596   0.098   1.740
 7090WAT     H221513   3.442   0.045   1.728
 7091WAT      O21514   2.063   6.010   4.659
 7091WAT     H121515   2.154   6.039   4.687
 7091WAT     H221516   2.020   6.081   4.604
 7092WAT      O21517   9.437   0.119   2.717
 7092WAT     H121518   9.337   0.120   2.721
 7092WAT     H221519   9.471   0.210   2.740
 7093WAT      O21520   0.872   1.126   6.295
 7093WAT     H121521   0.773   1.116   6.303
 7093WAT     H221522   0.906   1.065   6.223
 7094WAT      O21523   6.371   3.817   9.732
 7094WAT     H121524   6.426   3.758   9.791
 7094WAT     H221525   6.348   3.901   9.781
 7095WAT      O21526   6.748   2.864   4.526
 7095WAT     H121527   6.698   2.789   4.483
 7095WAT     H221528   6.827   2.828   4.574
 7096WAT      O21529   1.768   3.987   9.507
 7096WAT     H121530   1.688   4.002   9.449
 7096WAT     H221531   1.794   3.890   9.502
 7097WAT      O21532   9.160   8.216   1.381
 7097WAT     H121533   9.209   8.267   1.452
 7097WAT     H221534   9.185   8.120   1.386
 7098WAT      O21535   6.028   6.733   6.080
 7098WAT     H121536   6.074   6.687   6.004
 7098WAT     H221537   6.061   6.828   6.086
 7099WAT      O21538   7.421   9.516   4.809
 7099WAT     H121539   7.352   9.580   4.776
 7099WAT     H221540   7.512   9.553   4.790
 7100WAT      O21541   6.525   4.937   7.318
 7100WAT     H121542   6.451   4.919   7.253
 7100WAT     H221543   6.487   4.974   7.403
 7101WAT      O21544   0.933   6.345   9.620
 7101WAT     H121545   0.891   6.300   9.699
 7101WAT     H221546   1.001   6.284   9.579
 7102WAT      O21547   9.232   1.729   8.933
 7102WAT     H121548   9.245   1.687   9.022
 7102WAT     H221549   9.144   1.776   8.931
 7103WAT      O21550   0.277   8.478   1.362
 7103WAT     H121551   0.252   8.476   1.459
 7103WAT     H221552   0.286   8.573   1.333
 7104WAT      O21553   2.152   6.067   6.782
 7104WAT     H121554   2.209   5.986   6.768
 7104WAT     H221555   2.123   6.071   6.877
 7105WAT      O21556   3.134   4.450   0.401
 7105WAT     H121557   3.227   4.440   0.364
 7105WAT     H221558   3.137   4.450   0.500
 7106WAT      O21559   3.219   1.273   6.030
 7106WAT     H121560   3.287   1.328   6.078
 7106WAT     H221561   3.170   1.330   5.964
 7107WAT      O21562   1.301   4.442   9.338
 7107WAT     H121563   1.328   4.481   9.250
 7107WAT     H221564   1.252   4.356   9.322
 7108WAT      O21565   2.279   9.802   2.100
 7108WAT     H121566   2.261   9.800   2.199
 7108WAT     H221567   2.193   9.791   2.051
 7109WAT      O21568   1.394   6.137   1.330
 7109WAT     H121569   1.365   6.063   1.391
 7109WAT     H221570   1.360   6.118   1.238
 7110WAT      O21571   5.066   9.406   2.377
 7110WAT     H121572   5.037   9.346   2.303
 7110WAT     H221573   5.005   9.485   2.382
 7111WAT      O21574   7.775   5.941   2.528
 7111WAT     H121575   7.713   5.873   2.569
 7111WAT     H221576   7.866   5.932   2.570
 7112WAT      O21577   0.686   1.989   6.002
 7112WAT     H121578   0.683   1.900   5.956
 7112WAT     H221579   0.734   2.054   5.944
 7113WAT      O21580   8.464   2.367   3.464
 7113WAT     H121581   8.372   2.404   3.450
 7113WAT     H221582   8.531   2.441   3.452
 7114WAT      O21583   2.813   5.934   5.044
 7114WAT     H121584   2.748   5.896   4.978
 7114WAT     H221585   2.906   5.912   5.015
 7115WAT      O21586   5.778   9.401   6.406
 7115WAT     H121587   5.859   9.457   6.426
 7115WAT     H221588   5.698   9.441   6.449
 7116WAT      O21589   3.414   9.300   3.686
 7116WAT     H121590   3.381   9.315   3.779
 7116WAT     H221591   3.352   9.343   3.621
 7117WAT      O21592   5.334   5.608   0.149
 7117WAT     H121593   5.416   5.655   0.182
 7117WAT     H221594   5.262   5.613   0.219
 7118WAT      O21595   4.555   4.649   2.087
 7118WAT     H121596   4.482   4.586   2.117
 7118WAT     H221597   4.631   4.596   2.049
 7119WAT      O21598   2.226   5.622   4.523
 7119WAT     H121599   2.201   5.638   4.427
 7119WAT     H221600   2.296   5.688   4.550
 7120WAT      O21601   3.234   2.018   8.894
 7120WAT     H121602   3.322   2.065   8.881
 7120WAT     H221603   3.249   1.932   8.942
 7121WAT      O21604   2.332   0.569   7.636
 7121WAT     H121605   2.355   0.554   7.540
 7121WAT     H221606   2.246   0.522   7.657
 7122WAT      O21607   5.710   4.300   0.562
 7122WAT     H121608   5.628   4.357   0.574
 7122WAT     H221609   5.775   4.348   0.503
 7123WAT      O21610   0.211   5.478   8.327
 7123WAT     H121611   0.260   5.391   8.323
 7123WAT     H221612   0.240   5.536   8.251
 7124WAT      O21613   7.962   3.650   6.931
 7124WAT     H121614   7.982   3.644   7.029
 7124WAT     H221615   8.029   3.595   6.880
 7125WAT      O21616   1.848   5.454   0.121
 7125WAT     H121617   1.776   5.500   0.069
 7125WAT     H221618   1.853   5.495   0.213
 7126WAT      O21619   4.689   1.247   4.637
 7126WAT     H121620   4.659   1.217   4.727
 7126WAT     H221621   4.743   1.330   4.646
 7127WAT      O21622   3.483   8.913   4.044
 7127WAT     H121623   3.465   8.882   3.950
 7127WAT     H221624   3.551   8.854   4.086
 7128WAT      O21625   2.690   5.986   3.564
 7128WAT     H121626   2.664   5.897   3.526
 7128WAT     H221627   2.633   6.006   3.644
 7129WAT      O21628   2.583   8.486   2.460
 7129WAT     H121629   2.555   8.559   2.524
 7129WAT     H221630   2.511   8.472   2.393
 7130WAT      O21631   1.033   5.963   2.803
 7130WAT     H121632   0.981   5.878   2.794
 7130WAT     H221633   1.068   5.971   2.896
 7131WAT      O21634   8.966   0.947   9.739
 7131WAT     H121635   8.899   0.882   9.775
 7131WAT     H221636   8.981   1.020   9.805
 7132WAT      O21637   6.683   4.839   9.455
 7132WAT     H121638   6.737   4.791   9.524
 7132WAT     H221639   6.620   4.903   9.499
 7133WAT      O21640   7.715   5.708   5.011
 7133WAT     H121641   7.699   5.753   4.923
 7133WAT     H221642   7.627   5.689   5.056
 7134WAT      O21643   1.550   6.992   5.980
 7134WAT     H121644   1.492   7.056   6.031
 7134WAT     H221645   1.497   6.911   5.955
 7135WAT      O21646   1.071   0.809   3.000
 7135WAT     H121647   1.099   0.732   2.943
 7135WAT     H221648   0.997   0.780   3.061
 7136WAT      O21649   7.937   8.859   5.757
 7136WAT     H121650   7.931   8.822   5.664
 7136WAT     H221651   7.854   8.912   5.777
 7137WAT      O21652   2.537   2.355   4.747
 7137WAT     H121653   2.457   2.413   4.731
 7137WAT     H221654   2.581   2.334   4.660
 7138WAT      O21655   5.088   7.597   6.020
 7138WAT     H121656   5.072   7.691   6.047
 7138WAT     H221657   5.186   7.578   6.016
 7139WAT      O21658   6.778   4.455   6.832
 7139WAT     H121659   6.848   4.421   6.769
 7139WAT     H221660   6.814   4.533   6.882
 7140WAT      O21661   3.670   2.133   7.195
 7140WAT     H121662   3.652   2.077   7.113
 7140WAT     H221663   3.714   2.218   7.168
 7141WAT      O21664   4.666   6.627   7.529
 7141WAT     H121665   4.683   6.657   7.623
 7141WAT     H221666   4.687   6.701   7.465
 7142WAT      O21667   8.004   3.365   7.041
 7142WAT     H121668   8.014   3.272   7.008
 7142WAT     H221669   7.912   3.399   7.018
 7143WAT      O21670   1.535   2.971   0.855
 7143WAT     H121671   1.444   3.012   0.850
 7143WAT     H221672   1.547   2.906   0.780
 7144WAT      O21673   1.137   6.853   6.000
 7144WAT     H121674   1.121   6.943   5.960
 7144WAT     H221675   1.107   6.853   6.095
 7145WAT      O21676   3.311   5.173   6.345
 7145WAT     H121677   3.213   5.171   6.363
 7145WAT     H221678   3.338   5.265   6.318
 7146WAT      O21679   6.055   1.563   6.838
 7146WAT     H121680   5.973   1.508   6.850
 7146WAT     H221681   6.133   1.504   6.818
 7147WAT      O21682   4.829   4.730   8.901
 7147WAT     H121683   4.832   4.830   8.911
 7147WAT     H221684   4.849   4.706   8.806
 7148WAT      O21685   5.404   0.552   2.802
 7148WAT     H121686   5.460   0.533   2.883
 7148WAT     H221687   5.319   0.598   2.831
 7149WAT      O21688   6.319   2.404   5.732
 7149WAT     H121689   6.236   2.459   5.726
 7149WAT     H221690   6.391   2.446   5.675
 7150WAT      O21691   1.655   3.523   1.430
 7150WAT     H121692   1.581   3.460   1.454
 7150WAT     H221693   1.646   3.608   1.481
 7151WAT      O21694   6.255   3.196   9.442
 7151WAT     H121695   6.231   3.289   9.472
 7151WAT     H221696   6.331   3.201   9.376
 7152WAT      O21697   3.310   9.597   7.109
 7152WAT     H121698   3.378   9.524   7.109
 7152WAT     H221699   3.350   9.680   7.147
 7153WAT      O21700   0.792   0.922   0.087
 7153WAT     H121701   0.822   1.007   0.044
 7153WAT     H221702   0.785   0.936   0.186
 7154WAT      O21703   7.938   6.554   8.449
 7154WAT     H121704   8.001   6.548   8.526
 7154WAT     H221705   7.848   6.520   8.477
 7155WAT      O21706   8.826   3.983   9.734
 7155WAT     H121707   8.854   4.066   9.782
 7155WAT     H221708   8.747   4.003   9.676
 7156WAT      O21709   5.067   4.363   0.899
 7156WAT     H121710   5.002   4.295   0.863
 7156WAT     H221711   5.058   4.367   0.999
 7157WAT      O21712   4.501   9.255   0.482
 7157WAT     H121713   4.540   9.212   0.564
 7157WAT     H221714   4.445   9.333   0.509
 7158WAT      O21715   2.011   4.854   0.576
 7158WAT     H121716   2.067   4.933   0.599
 7158WAT     H221717   1.941   4.880   0.510
 7159WAT      O21718   7.722   3.738   9.781
 7159WAT     H121719   7.803   3.717   9.834
 7159WAT     H221720   7.695   3.834   9.797
 7160WAT      O21721   0.137   1.870   0.737
 7160WAT     H121722   0.197   1.878   0.658
 7160WAT     H221723   0.052   1.920   0.721
 7161WAT      O21724   5.831   4.247   2.294
 7161WAT     H121725   5.868   4.339   2.302
 7161WAT     H221726   5.735   4.247   2.320
 7162WAT      O21727   4.455   9.591   8.291
 7162WAT     H121728   4.479   9.541   8.375
 7162WAT     H221729   4.372   9.644   8.306
 7163WAT      O21730   0.706   4.384   5.596
 7163WAT     H121731   0.742   4.293   5.615
 7163WAT     H221732   0.782   4.447   5.579
 7164WAT      O21733   0.437   2.621   4.758
 7164WAT     H121734   0.382   2.614   4.842
 7164WAT     H221735   0.391   2.573   4.684
 7165WAT      O21736   6.941   4.324   6.628
 7165WAT     H121737   7.016   4.375   6.585
 7165WAT     H221738   6.865   4.317   6.564
 7166WAT      O21739   6.517   0.388   0.901
 7166WAT     H121740   6.550   0.400   0.995
 7166WAT     H221741   6.558   0.307   0.861
 7167WAT      O21742   2.133   1.086   1.038
 7167WAT     H121743   2.052   1.077   0.980
 7167WAT     H221744   2.182   1.170   1.014
 7168WAT      O21745   0.562   9.350   7.129
 7168WAT     H121746   0.548   9.447   7.107
 7168WAT     H221747   0.501   9.324   7.204
 7169WAT      O21748   6.276   2.390   9.181
 7169WAT     H121749   6.190   2.413   9.136
 7169WAT     H221750   6.317   2.311   9.136
 7170WAT      O21751   6.421   8.967   4.573
 7170WAT     H121752   6.476   9.016   4.641
 7170WAT     H221753   6.354   8.910   4.620
 7171WAT      O21754   7.821   4.644   4.067
 7171WAT     H121755   7.900   4.653   4.006
 7171WAT     H221756   7.787   4.734   4.093
 7172WAT      O21757   8.495   5.397   8.956
 7172WAT     H121758   8.573   5.398   8.894
 7172WAT     H221759   8.514   5.458   9.034
 7173WAT      O21760   2.327   5.880   3.588
 7173WAT     H121761   2.279   5.861   3.674
 7173WAT     H221762   2.261   5.880   3.513
 7174WAT      O21763   9.743   0.550   4.317
 7174WAT     H121764   9.819   0.511   4.264
 7174WAT     H221765   9.780   0.597   4.398
 7175WAT      O21766   3.243   0.747   8.842
 7175WAT     H121767   3.338   0.716   8.835
 7175WAT     H221768   3.198   0.700   8.917
 7176WAT      O21769   5.382   3.348   9.313
 7176WAT     H121770   5.325   3.345   9.231
 7176WAT     H221771   5.434   3.434   9.315
 7177WAT      O21772   5.336   6.343   1.018
 7177WAT     H121773   5.357   6.250   0.987
 7177WAT     H221774   5.419   6.397   1.020
 7178WAT      O21775   4.531   0.688   4.968
 7178WAT     H121776   4.591   0.733   4.902
 7178WAT     H221777   4.460   0.752   4.997
 7179WAT      O21778   8.385   7.497   6.950
 7179WAT     H121779   8.313   7.499   6.882
 7179WAT     H221780   8.391   7.586   6.996
 7180WAT      O21781   1.613   4.505   5.196
 7180WAT     H121782   1.516   4.495   5.215
 7180WAT     H221783   1.665   4.499   5.281
 7181WAT      O21784   2.706   7.241   0.309
 7181WAT     H121785   2.717   7.142   0.298
 7181WAT     H221786   2.753   7.288   0.233
 7182WAT      O21787   3.925   5.861   4.536
 7182WAT     H121788   3.860   5.931   4.504
 7182WAT     H221789   3.926   5.785   4.471
 7183WAT      O21790   0.059   9.610   7.826
 7183WAT     H121791   0.016   9.641   7.742
 7183WAT     H221792   0.111   9.527   7.809
 7184WAT      O21793   3.946   2.810   2.768
 7184WAT     H121794   4.005   2.857   2.835
 7184WAT     H221795   3.995   2.732   2.730
 7185WAT      O21796   2.874   4.800   1.585
 7185WAT     H121797   2.868   4.810   1.485
 7185WAT     H221798   2.815   4.868   1.629
 7186WAT      O21799   5.997   9.116   8.044
 7186WAT     H121800   5.945   9.051   8.099
 7186WAT     H221801   6.052   9.066   7.977
 7187WAT      O21802   8.270   1.533   8.866
 7187WAT     H121803   8.215   1.461   8.824
 7187WAT     H221804   8.258   1.618   8.814
 7188WAT      O21805   6.541   2.446   8.720
 7188WAT     H121806   6.544   2.502   8.803
 7188WAT     H221807   6.457   2.392   8.719
 7189WAT      O21808   6.434   7.642   8.139
 7189WAT     H121809   6.395   7.690   8.217
 7189WAT     H221810   6.391   7.676   8.055
 7190WAT      O21811   4.597   8.106   4.810
 7190WAT     H121812   4.515   8.048   4.811
 7190WAT     H221813   4.678   8.050   4.794
 7191WAT      O21814   9.439   4.990   5.557
 7191WAT     H121815   9.493   4.948   5.630
 7191WAT     H221816   9.374   4.924   5.522
 7192WAT      O21817   9.849   3.378   8.917
 7192WAT     H121818   9.774   3.372   8.852
 7192WAT     H221819   9.936   3.370   8.868
 7193WAT      O21820   7.645   7.671   6.916
 7193WAT     H121821   7.622   7.629   6.828
 7193WAT     H221822   7.598   7.622   6.989
 7194WAT      O21823   9.075   5.131   5.105
 7194WAT     H121824   9.029   5.045   5.080
 7194WAT     H221825   9.113   5.173   5.022
 7195WAT      O21826   0.575   7.456   0.187
 7195WAT     H121827   0.642   7.460   0.261
 7195WAT     H221828   0.551   7.361   0.170
 7196WAT      O21829   5.940   1.393   0.181
 7196WAT     H121830   5.912   1.299   0.167
 7196WAT     H221831   5.874   1.455   0.140
 7197WAT      O21832   1.880   0.548   8.371
 7197WAT     H121833   1.819   0.531   8.293
 7197WAT     H221834   1.868   0.642   8.402
 7198WAT      O21835   3.148   4.659   1.321
 7198WAT     H121836   3.053   4.641   1.345
 7198WAT     H221837   3.201   4.574   1.327
 7199WAT      O21838   9.213   3.016   1.580
 7199WAT     H121839   9.167   3.022   1.491
 7199WAT     H221840   9.200   3.101   1.631
 7200WAT      O21841   8.352   9.557   4.198
 7200WAT     H121842   8.411   9.482   4.228
 7200WAT     H221843   8.380   9.642   4.242
 7201WAT      O21844   0.171   8.869   8.206
 7201WAT     H121845   0.240   8.938   8.187
 7201WAT     H221846   0.095   8.879   8.142
 7202WAT      O21847   5.811   7.300   8.059
 7202WAT     H121848   5.880   7.319   7.989
 7202WAT     H221849   5.768   7.212   8.040
 7203WAT      O21850   2.365   7.174   6.292
 7203WAT     H121851   2.446   7.180   6.233
 7203WAT     H221852   2.384   7.217   6.380
 7204WAT      O21853   4.593   6.744   3.836
 7204WAT     H121854   4.584   6.651   3.800
 7204WAT     H221855   4.670   6.790   3.790
 7205WAT      O21856   4.363   4.632   7.497
 7205WAT     H121857   4.282   4.683   7.527
 7205WAT     H221858   4.368   4.546   7.548
 7206WAT      O21859   4.088   2.683   8.837
 7206WAT     H121860   4.013   2.673   8.902
 7206WAT     H221861   4.111   2.780   8.827
 7207WAT      O21862   7.374   1.281   4.105
 7207WAT     H121863   7.434   1.202   4.117
 7207WAT     H221864   7.336   1.281   4.013
 7208WAT      O21865   3.029   1.831   6.511
 7208WAT     H121866   3.099   1.796   6.574
 7208WAT     H221867   2.968   1.757   6.484
 7209WAT      O21868   0.233   0.101   2.479
 7209WAT     H121869   0.180   0.145   2.552
 7209WAT     H221870   0.328   0.133   2.483
 7210WAT      O21871   1.274   4.134   7.303
 7210WAT     H121872   1.204   4.127   7.231
 7210WAT     H221873   1.361   4.098   7.269
 7211WAT      O21874   6.921   9.420   4.933
 7211WAT     H121875   6.986   9.470   4.991
 7211WAT     H221876   6.845   9.387   4.990
 7212WAT      O21877   5.197   8.572   8.370
 7212WAT     H121878   5.106   8.534   8.357
 7212WAT     H221879   5.229   8.552   8.463
 7213WAT      O21880   6.553   8.464   8.404
 7213WAT     H121881   6.608   8.386   8.433
 7213WAT     H221882   6.513   8.508   8.485
 7214WAT      O21883   9.857   7.790   6.582
 7214WAT     H121884   9.890   7.777   6.489
 7214WAT     H221885   9.928   7.835   6.636
 7215WAT      O21886   5.067   0.755   2.697
 7215WAT     H121887   5.086   0.694   2.621
 7215WAT     H221888   4.971   0.783   2.694
 7216WAT      O21889   4.970   6.373   5.364
 7216WAT     H121890   4.943   6.449   5.422
 7216WAT     H221891   4.895   6.307   5.359
 7217WAT      O21892   0.013   5.248   5.183
 7217WAT     H121893   0.107   5.237   5.153
 7217WAT     H221894  -0.049   5.203   5.119
 7218WAT      O21895   1.554   1.471   8.440
 7218WAT     H121896   1.535   1.491   8.536
 7218WAT     H221897   1.507   1.537   8.382
 7219WAT      O21898   2.032   2.341   7.367
 7219WAT     H121899   2.070   2.315   7.278
 7219WAT     H221900   2.040   2.440   7.379
 7220WAT      O21901   3.483   7.400   4.596
 7220WAT     H121902   3.459   7.338   4.521
 7220WAT     H221903   3.469   7.353   4.684
 7221WAT      O21904   0.025   8.898   8.569
 7221WAT     H121905  -0.030   8.978   8.593
 7221WAT     H221906   0.119   8.927   8.552
 7222WAT      O21907   8.901   2.828   4.911
 7222WAT     H121908   8.981   2.852   4.966
 7222WAT     H221909   8.916   2.738   4.869
 7223WAT      O21910   0.014   4.674   5.576
 7223WAT     H121911   0.114   4.670   5.578
 7223WAT     H221912  -0.015   4.762   5.539
 7224WAT      O21913   4.758   7.968   5.611
 7224WAT     H121914   4.764   7.918   5.525
 7224WAT     H221915   4.726   7.907   5.684
 7225WAT      O21916   3.035   7.429   5.086
 7225WAT     H121917   2.936   7.439   5.080
 7225WAT     H221918   3.057   7.350   5.143
 7226WAT      O21919   9.282   7.518   2.540
 7226WAT     H121920   9.188   7.539   2.564
 7226WAT     H221921   9.344   7.574   2.595
 7227WAT      O21922   6.903   6.787   2.289
 7227WAT     H121923   6.958   6.732   2.226
 7227WAT     H221924   6.894   6.879   2.253
 7228WAT      O21925   6.824   6.494   8.358
 7228WAT     H121926   6.741   6.487   8.302
 7228WAT     H221927   6.902   6.464   8.304
 7229WAT      O21928   6.437   8.412   3.075
 7229WAT     H121929   6.467   8.438   3.167
 7229WAT     H221930   6.337   8.408   3.073
 7230WAT      O21931   1.123   6.782   5.025
 7230WAT     H121932   1.037   6.793   5.074
 7230WAT     H221933   1.110   6.718   4.949
 7231WAT      O21934   4.389   0.926   0.016
 7231WAT     H121935   4.441   0.841   0.020
 7231WAT     H221936   4.449   1.003   0.040
 7232WAT      O21937   6.211   2.649   8.319
 7232WAT     H121938   6.231   2.567   8.372
 7232WAT     H221939   6.132   2.633   8.260
 7233WAT      O21940   0.105   9.628   9.838
 7233WAT     H121941   0.190   9.602   9.883
 7233WAT     H221942   0.122   9.643   9.741
 7234WAT      O21943   3.829   2.673   6.180
 7234WAT     H121944   3.818   2.666   6.081
 7234WAT     H221945   3.873   2.760   6.202
 7235WAT      O21946   5.032   6.110   7.334
 7235WAT     H121947   5.006   6.203   7.361
 7235WAT     H221948   4.957   6.068   7.283
 7236WAT      O21949   5.483   1.851   4.567
 7236WAT     H121950   5.393   1.893   4.554
 7236WAT     H221951   5.483   1.800   4.653
 7237WAT      O21952   5.338   5.113   0.064
 7237WAT     H121953   5.323   5.211   0.054
 7237WAT     H221954   5.436   5.094   0.067
 7238WAT      O21955   2.976   6.500   8.320
 7238WAT     H121956   2.885   6.536   8.336
 7238WAT     H221957   3.041   6.544   8.383
 7239WAT      O21958   4.728   9.670   9.017
 7239WAT     H121959   4.685   9.686   9.106
 7239WAT     H221960   4.662   9.629   8.954
 7240WAT      O21961   8.829   5.765   4.811
 7240WAT     H121962   8.788   5.817   4.886
 7240WAT     H221963   8.844   5.671   4.841
 7241WAT      O21964   6.650   4.384   9.284
 7241WAT     H121965   6.571   4.368   9.225
 7241WAT     H221966   6.621   4.427   9.369
 7242WAT      O21967   2.054   3.422   0.399
 7242WAT     H121968   2.014   3.358   0.333
 7242WAT     H221969   2.053   3.514   0.361
 7243WAT      O21970   9.246   7.442   0.162
 7243WAT     H121971   9.240   7.541   0.145
 7243WAT     H221972   9.304   7.426   0.242
 7244WAT      O21973   3.419   7.287   6.069
 7244WAT     H121974   3.355   7.300   6.145
 7244WAT     H221975   3.370   7.257   5.988
 7245WAT      O21976   0.645   3.659   6.920
 7245WAT     H121977   0.561   3.607   6.932
 7245WAT     H221978   0.715   3.625   6.982
 7246WAT      O21979   8.397   3.744   8.000
 7246WAT     H121980   8.371   3.682   8.074
 7246WAT     H221981   8.435   3.828   8.039
 7247WAT      O21982   1.214   4.397   7.338
 7247WAT     H121983   1.198   4.299   7.343
 7247WAT     H221984   1.274   4.417   7.260
 7248WAT      O21985   7.003   4.779   1.105
 7248WAT     H121986   7.032   4.866   1.147
 7248WAT     H221987   7.061   4.705   1.140
 7249WAT      O21988   3.681   3.852   9.873
 7249WAT     H121989   3.602   3.791   9.874
 7249WAT     H221990   3.718   3.855   9.780
 7250WAT      O21991   6.659   6.786   9.127
 7250WAT     H121992   6.593   6.800   9.053
 7250WAT     H221993   6.689   6.874   9.162
 7251WAT      O21994   8.894   4.506   3.115
 7251WAT     H121995   8.962   4.519   3.044
 7251WAT     H221996   8.869   4.594   3.155
 7252WAT      O21997   2.500   2.261   2.685
 7252WAT     H121998   2.538   2.329   2.749
 7252WAT     H221999   2.417   2.297   2.644
 7253WAT      O22000   6.001   5.493   8.367
 7253WAT     H122001   6.007   5.471   8.270
 7253WAT     H222002   6.005   5.409   8.421
 7254WAT      O22003   7.166   3.203   5.771
 7254WAT     H122004   7.104   3.129   5.797
 7254WAT     H222005   7.246   3.166   5.724
 7255WAT      O22006   0.732   1.977   4.823
 7255WAT     H122007   0.653   1.968   4.884
 7255WAT     H222008   0.725   1.911   4.749
 7256WAT      O22009   3.264   7.705   3.887
 7256WAT     H122010   3.290   7.790   3.932
 7256WAT     H222011   3.341   7.641   3.888
 7257WAT      O22012   9.839   8.543   5.261
 7257WAT     H122013   9.812   8.625   5.310
 7257WAT     H222014   9.779   8.467   5.286
 7258WAT      O22015   9.158   8.211   1.993
 7258WAT     H122016   9.179   8.139   2.058
 7258WAT     H222017   9.083   8.267   2.028
 7259WAT      O22018   3.349   6.255   2.098
 7259WAT     H122019   3.268   6.304   2.065
 7259WAT     H222020   3.322   6.165   2.133
 7260WAT      O22021   6.761   0.671   8.716
 7260WAT     H122022   6.762   0.631   8.808
 7260WAT     H222023   6.680   0.730   8.706
 7261WAT      O22024   7.269   6.606   5.528
 7261WAT     H122025   7.210   6.680   5.497
 7261WAT     H222026   7.319   6.635   5.610
 7262WAT      O22027   5.546   5.944   7.662
 7262WAT     H122028   5.511   5.945   7.568
 7262WAT     H222029   5.487   5.886   7.718
 7263WAT      O22030   2.838   5.804   1.771
 7263WAT     H122031   2.796   5.792   1.860
 7263WAT     H222032   2.906   5.878   1.775
 7264WAT      O22033   9.155   1.323   9.700
 7264WAT     H122034   9.240   1.338   9.751
 7264WAT     H222035   9.176   1.289   9.608
 7265WAT      O22036   3.627   7.665   5.314
 7265WAT     H122037   3.671   7.642   5.400
 7265WAT     H222038   3.696   7.691   5.247
 7266WAT      O22039   4.880   3.249   3.750
 7266WAT     H122040   4.792   3.294   3.762
 7266WAT     H222041   4.878   3.160   3.796
 7267WAT      O22042   2.604   6.065   1.429
 7267WAT     H122043   2.643   6.143   1.478
 7267WAT     H222044   2.563   6.097   1.343
 7268WAT      O22045   3.535   7.087   8.905
 7268WAT     H122046   3.611   7.103   8.843
 7268WAT     H222047   3.511   7.173   8.951
 7269WAT      O22048   9.454   1.610   3.709
 7269WAT     H122049   9.511   1.555   3.649
 7269WAT     H222050   9.391   1.550   3.760
 7270WAT      O22051   4.895   4.857   1.260
 7270WAT     H122052   4.981   4.900   1.287
 7270WAT     H222053   4.820   4.924   1.267
 7271WAT      O22054   6.925   4.272   6.255
 7271WAT     H122055   7.018   4.252   6.284
 7271WAT     H222056   6.868   4.291   6.335
 7272WAT      O22057   1.411   2.175   4.018
 7272WAT     H122058   1.341   2.149   4.084
 7272WAT     H222059   1.497   2.129   4.041
 7273WAT      O22060   2.535   8.019   3.405
 7273WAT     H122061   2.524   8.110   3.445
 7273WAT     H222062   2.633   7.997   3.397
 7274WAT      O22063   2.254   3.817   4.609
 7274WAT     H122064   2.311   3.817   4.526
 7274WAT     H222065   2.159   3.800   4.584
 7275WAT      O22066   6.105   2.058   7.422
 7275WAT     H122067   6.084   1.973   7.469
 7275WAT     H222068   6.140   2.039   7.330
 7276WAT      O22069   7.785   0.163   3.475
 7276WAT     H122070   7.742   0.166   3.566
 7276WAT     H222071   7.718   0.130   3.408
 7277WAT      O22072   3.080   7.010   7.788
 7277WAT     H122073   3.176   6.983   7.790
 7277WAT     H222074   3.048   7.011   7.693
 7278WAT      O22075   7.200   3.622   0.130
 7278WAT     H122076   7.175   3.629   0.226
 7278WAT     H222077   7.194   3.712   0.087
 7279WAT      O22078   5.531   2.296   8.423
 7279WAT     H122079   5.451   2.353   8.405
 7279WAT     H222080   5.571   2.267   8.337
 7280WAT      O22081   6.417   3.435   3.618
 7280WAT     H122082   6.480   3.441   3.541
 7280WAT     H222083   6.466   3.457   3.702
 7281WAT      O22084   2.044   8.166   6.029
 7281WAT     H122085   2.117   8.207   6.083
 7281WAT     H222086   1.956   8.183   6.073
 7282WAT      O22087   7.284   0.655   4.905
 7282WAT     H122088   7.233   0.573   4.932
 7282WAT     H222089   7.342   0.685   4.981
 7283WAT      O22090   9.136   2.214   2.552
 7283WAT     H122091   9.159   2.125   2.514
 7283WAT     H222092   9.049   2.209   2.600
 7284WAT      O22093   1.928   5.874   3.182
 7284WAT     H122094   2.006   5.835   3.230
 7284WAT     H222095   1.960   5.930   3.106
 7285WAT      O22096   5.972   4.291   5.656
 7285WAT     H122097   5.926   4.334   5.733
 7285WAT     H222098   5.910   4.287   5.578
 7286WAT      O22099   2.094   4.059   9.040
 7286WAT     H122100   2.125   4.017   9.125
 7286WAT     H222101   2.018   4.121   9.059
 7287WAT      O22102   2.218   4.078   8.019
 7287WAT     H122103   2.198   4.165   7.974
 7287WAT     H222104   2.256   4.094   8.110
 7288WAT      O22105   6.214   1.974   1.896
 7288WAT     H122106   6.225   1.978   1.797
 7288WAT     H222107   6.277   2.038   1.939
 7289WAT      O22108   4.606   3.359   3.541
 7289WAT     H122109   4.599   3.372   3.640
 7289WAT     H222110   4.670   3.425   3.502
 7290WAT      O22111   4.949   1.501   5.867
 7290WAT     H122112   4.912   1.410   5.847
 7290WAT     H222113   4.887   1.549   5.930
 7291WAT      O22114   8.303   7.714   7.572
 7291WAT     H122115   8.204   7.704   7.558
 7291WAT     H222116   8.348   7.723   7.483
 7292WAT      O22117   8.646   9.171   8.163
 7292WAT     H122118   8.552   9.161   8.129
 7292WAT     H222119   8.646   9.227   8.245
 7293WAT      O22120   1.425   6.044   0.771
 7293WAT     H122121   1.406   6.141   0.755
 7293WAT     H222122   1.349   5.990   0.736
 7294WAT      O22123   1.309   4.371   9.778
 7294WAT     H122124   1.301   4.461   9.735
 7294WAT     H222125   1.344   4.382   9.871
 7295WAT      O22126   6.447   3.038   7.729
 7295WAT     H122127   6.503   2.981   7.669
 7295WAT     H222128   6.409   2.981   7.802
 7296WAT      O22129   2.661   2.134   6.473
 7296WAT     H122130   2.581   2.110   6.527
 7296WAT     H222131   2.647   2.222   6.428
 7297WAT      O22132   8.814   5.370   0.998
 7297WAT     H122133   8.902   5.363   0.951
 7297WAT     H222134   8.825   5.341   1.093
 7298WAT      O22135   7.462   3.383   7.451
 7298WAT     H122136   7.373   3.424   7.472
 7298WAT     H222137   7.531   3.420   7.512
 7299WAT      O22138   3.160   3.261   8.338
 7299WAT     H122139   3.138   3.359   8.347
 7299WAT     H222140   3.254   3.245   8.366
 7300WAT      O22141   8.141   3.906   8.040
 7300WAT     H122142   8.201   3.985   8.046
 7300WAT     H222143   8.194   3.824   8.019
 7301WAT      O22144   8.994   5.380   7.570
 7301WAT     H122145   9.014   5.349   7.478
 7301WAT     H222146   8.897   5.365   7.591
 7302WAT      O22147   2.671   9.557   7.180
 7302WAT     H122148   2.765   9.527   7.166
 7302WAT     H222149   2.657   9.646   7.138
 7303WAT      O22150   9.844   2.883   2.282
 7303WAT     H122151   9.834   2.835   2.369
 7303WAT     H222152   9.754   2.909   2.248
 7304WAT      O22153   6.841   7.437   7.964
 7304WAT     H122154   6.786   7.477   8.037
 7304WAT     H222155   6.788   7.435   7.879
 7305WAT      O22156   0.230   1.199   0.636
 7305WAT     H122157   0.273   1.215   0.726
 7305WAT     H222158   0.176   1.279   0.611
 7306WAT      O22159   7.392   5.615   6.726
 7306WAT     H122160   7.293   5.615   6.743
 7306WAT     H222161   7.415   5.542   6.662
 7307WAT      O22162   1.793   9.790   3.007
 7307WAT     H122163   1.876   9.824   2.962
 7307WAT     H222164   1.756   9.862   3.066
 7308WAT      O22165   4.667   5.579   7.367
 7308WAT     H122166   4.581   5.630   7.359
 7308WAT     H222167   4.680   5.551   7.462
 7309WAT      O22168   3.115   0.912   1.050
 7309WAT     H122169   3.176   0.833   1.053
 7309WAT     H222170   3.025   0.884   1.016
 7310WAT      O22171   1.416   1.914   7.350
 7310WAT     H122172   1.379   1.937   7.260
 7310WAT     H222173   1.454   1.996   7.392
 7311WAT      O22174   9.895   5.741   3.215
 7311WAT     H122175   9.817   5.750   3.154
 7311WAT     H222176   9.863   5.726   3.309
 7312WAT      O22177   5.941   1.531   8.926
 7312WAT     H122178   5.880   1.600   8.966
 7312WAT     H222179   5.899   1.441   8.934
 7313WAT      O22180   4.843   1.336   6.117
 7313WAT     H122181   4.891   1.250   6.100
 7313WAT     H222182   4.849   1.359   6.214
 7314WAT      O22183   0.495   6.145   5.052
 7314WAT     H122184   0.549   6.223   5.022
 7314WAT     H222185   0.451   6.103   4.973
 7315WAT      O22186   7.293   7.441   0.808
 7315WAT     H122187   7.371   7.504   0.819
 7315WAT     H222188   7.308   7.359   0.864
 7316WAT      O22189   2.082   0.682   8.601
 7316WAT     H122190   2.074   0.617   8.676
 7316WAT     H222191   2.156   0.654   8.540
 7317WAT      O22192   7.989   6.471   3.936
 7317WAT     H122193   7.939   6.554   3.910
 7317WAT     H222194   7.962   6.395   3.877
 7318WAT      O22195   6.324   2.836   2.854
 7318WAT     H122196   6.386   2.793   2.788
 7318WAT     H222197   6.296   2.768   2.922
 7319WAT      O22198   7.500   8.554   8.392
 7319WAT     H122199   7.574   8.524   8.333
 7319WAT     H222200   7.412   8.535   8.348
 7320WAT      O22201   2.670   5.945   8.732
 7320WAT     H122202   2.730   6.009   8.685
 7320WAT     H222203   2.639   5.985   8.818
 7321WAT      O22204   8.665   4.219   3.586
 7321WAT     H122205   8.737   4.252   3.648
 7321WAT     H222206   8.705   4.157   3.519
 7322WAT      O22207   9.488   4.711   5.688
 7322WAT     H122208   9.534   4.772   5.752
 7322WAT     H222209   9.392   4.739   5.678
 7323WAT      O22210   7.423   9.460   2.375
 7323WAT     H122211   7.454   9.367   2.355
 7323WAT     H222212   7.478   9.525   2.322
 7324WAT      O22213   9.510   4.778   4.455
 7324WAT     H122214   9.418   4.814   4.463
 7324WAT     H222215   9.574   4.852   4.438
 7325WAT      O22216   3.066   1.493   9.834
 7325WAT     H122217   3.141   1.467   9.774
 7325WAT     H222218   3.063   1.593   9.842
 7326WAT      O22219   4.334   3.619   9.400
 7326WAT     H122220   4.411   3.678   9.375
 7326WAT     H222221   4.286   3.658   9.479
 7327WAT      O22222   4.244   3.801   5.977
 7327WAT     H122223   4.296   3.811   6.062
 7327WAT     H222224   4.203   3.888   5.952
 7328WAT      O22225   7.831   5.227   9.584
 7328WAT     H122226   7.915   5.199   9.630
 7328WAT     H222227   7.809   5.161   9.511
 7329WAT      O22228   7.772   8.703   4.963
 7329WAT     H122229   7.765   8.614   5.008
 7329WAT     H222230   7.806   8.691   4.869
 7330WAT      O22231   7.571   7.753   4.949
 7330WAT     H122232   7.528   7.673   4.907
 7330WAT     H222233   7.599   7.731   5.042
 7331WAT      O22234   1.853   9.274   5.384
 7331WAT     H122235   1.849   9.298   5.481
 7331WAT     H222236   1.774   9.217   5.360
 7332WAT      O22237   1.629   7.747   6.827
 7332WAT     H122238   1.727   7.731   6.815
 7332WAT     H222239   1.593   7.685   6.897
 7333WAT      O22240   8.375   6.479   7.851
 7333WAT     H122241   8.289   6.524   7.828
 7333WAT     H222242   8.364   6.380   7.842
 7334WAT      O22243   8.346   1.594   9.158
 7334WAT     H122244   8.346   1.566   9.062
 7334WAT     H222245   8.274   1.661   9.174
 7335WAT      O22246   6.820   7.348   3.679
 7335WAT     H122247   6.844   7.418   3.611
 7335WAT     H222248   6.720   7.339   3.683
 7336WAT      O22249   7.641   0.472   1.967
 7336WAT     H122250   7.612   0.514   2.054
 7336WAT     H222251   7.583   0.506   1.893
 7337WAT      O22252   5.734   4.928   2.958
 7337WAT     H122253   5.708   4.849   3.014
 7337WAT     H222254   5.655   4.988   2.946
 7338WAT      O22255   3.094   1.092   9.060
 7338WAT     H122256   3.031   1.053   9.127
 7338WAT     H222257   3.091   1.037   8.976
 7339WAT      O22258   8.917   2.441   5.566
 7339WAT     H122259   8.826   2.402   5.579
 7339WAT     H222260   8.909   2.531   5.522
 7340WAT      O22261   1.065   3.029   7.878
 7340WAT     H122262   1.151   3.066   7.843
 7340WAT     H222263   1.057   2.933   7.853
 7341WAT      O22264   0.623   6.731   3.259
 7341WAT     H122265   0.596   6.797   3.329
 7341WAT     H222266   0.615   6.638   3.297
 7342WAT      O22267   4.387   4.369   7.596
 7342WAT     H122268   4.321   4.362   7.522
 7342WAT     H222269   4.399   4.280   7.639
 7343WAT      O22270   8.286   4.515   7.612
 7343WAT     H122271   8.232   4.495   7.531
 7343WAT     H222272   8.284   4.613   7.630
 7344WAT      O22273   6.003   0.887   9.700
 7344WAT     H122274   5.906   0.911   9.695
 7344WAT     H222275   6.053   0.935   9.627
 7345WAT      O22276   1.961   2.001   6.408
 7345WAT     H122277   1.894   2.073   6.393
 7345WAT     H222278   2.004   1.976   6.321
 7346WAT      O22279   8.863   9.836   2.474
 7346WAT     H122280   8.831   9.888   2.395
 7346WAT     H222281   8.963   9.839   2.477
 7347WAT      O22282   6.407   3.470   0.662
 7347WAT     H122283   6.402   3.428   0.572
 7347WAT     H222284   6.388   3.568   0.655
 7348WAT      O22285   5.442   5.812   7.065
 7348WAT     H122286   5.467   5.898   7.022
 7348WAT     H222287   5.413   5.830   7.159
 7349WAT      O22288   8.883   5.072   7.363
 7349WAT     H122289   8.952   5.000   7.356
 7349WAT     H222290   8.927   5.162   7.355
 7350WAT      O22291   3.918   5.125   1.351
 7350WAT     H122292   3.830   5.077   1.345
 7350WAT     H222293   3.971   5.088   1.428
 7351WAT      O22294   6.675   8.897   7.428
 7351WAT     H122295   6.685   8.942   7.339
 7351WAT     H222296   6.741   8.936   7.492
 7352WAT      O22297   6.460   5.155   6.428
 7352WAT     H122298   6.513   5.189   6.505
 7352WAT     H222299   6.433   5.232   6.369
 7353WAT      O22300   0.112   4.232   1.880
 7353WAT     H122301   0.059   4.250   1.796
 7353WAT     H222302   0.174   4.309   1.896
 7354WAT      O22303   4.086   6.165   7.214
 7354WAT     H122304   4.051   6.172   7.308
 7354WAT     H222305   4.012   6.181   7.149
 7355WAT      O22306   5.935   4.060   1.094
 7355WAT     H122307   5.964   3.982   1.151
 7355WAT     H222308   5.987   4.059   1.009
 7356WAT      O22309   1.434   0.728   1.840
 7356WAT     H122310   1.503   0.695   1.776
 7356WAT     H222311   1.369   0.786   1.791
 7357WAT      O22312   8.224   6.964   8.161
 7357WAT     H122313   8.201   6.910   8.242
 7357WAT     H222314   8.322   6.956   8.142
 7358WAT      O22315   3.771   8.997   9.179
 7358WAT     H122316   3.676   8.976   9.200
 7358WAT     H222317   3.790   8.973   9.084
 7359WAT      O22318   2.493   6.808   0.512
 7359WAT     H122319   2.430   6.882   0.534
 7359WAT     H222320   2.447   6.741   0.454
 7360WAT      O22321   7.913   4.862   8.077
 7360WAT     H122322   7.938   4.947   8.124
 7360WAT     H222323   7.815   4.846   8.088
 7361WAT      O22324   5.347   3.994   4.073
 7361WAT     H122325   5.407   4.073   4.083
 7361WAT     H222326   5.332   3.952   4.163
 7362WAT      O22327   0.453   5.580   7.321
 7362WAT     H122328   0.524   5.621   7.379
 7362WAT     H222329   0.405   5.510   7.373
 7363WAT      O22330   2.495   5.291   9.014
 7363WAT     H122331   2.472   5.313   9.108
 7363WAT     H222332   2.411   5.277   8.961
 7364WAT      O22333   3.443   0.366   8.431
 7364WAT     H122334   3.427   0.280   8.479
 7364WAT     H222335   3.443   0.350   8.332
 7365WAT      O22336   0.467   4.208   8.535
 7365WAT     H122337   0.542   4.241   8.592
 7365WAT     H222338   0.387   4.267   8.546
 7366WAT      O22339   4.936   0.268   9.830
 7366WAT     H122340   4.914   0.258   9.732
 7366WAT     H222341   4.989   0.351   9.844
 7367WAT      O22342   2.121   5.269   3.199
 7367WAT     H122343   2.093   5.324   3.278
 7367WAT     H222344   2.053   5.197   3.182
 7368WAT      O22345   1.356   7.692   8.636
 7368WAT     H122346   1.380   7.784   8.605
 7368WAT     H222347   1.295   7.697   8.714
 7369WAT      O22348   2.111   4.972   1.786
 7369WAT     H122349   2.115   4.894   1.849
 7369WAT     H222350   2.187   4.967   1.722
 7370WAT      O22351   0.673   7.646   8.087
 7370WAT     H122352   0.739   7.588   8.136
 7370WAT     H222353   0.691   7.742   8.107
 7371WAT      O22354   3.500   9.637   8.771
 7371WAT     H122355   3.427   9.599   8.828
 7371WAT     H222356   3.491   9.600   8.678
 7372WAT      O22357   4.987   8.285   3.250
 7372WAT     H122358   4.963   8.274   3.154
 7372WAT     H222359   5.087   8.293   3.259
 7373WAT      O22360   3.441   1.195   2.770
 7373WAT     H122361   3.412   1.107   2.732
 7373WAT     H222362   3.530   1.183   2.815
 7374WAT      O22363   3.624   8.757   7.200
 7374WAT     H122364   3.680   8.680   7.233
 7374WAT     H222365   3.539   8.761   7.252
 7375WAT      O22366   6.250   6.484   7.449
 7375WAT     H122367   6.209   6.567   7.411
 7375WAT     H222368   6.185   6.408   7.441
 7376WAT      O22369   5.036   1.120   6.076
 7376WAT     H122370   5.055   1.038   6.130
 7376WAT     H222371   5.008   1.093   5.983
 7377WAT      O22372   9.779   5.229   1.141
 7377WAT     H122373   9.871   5.240   1.103
 7377WAT     H222374   9.723   5.308   1.118
 7378WAT      O22375   3.215   5.243   1.922
 7378WAT     H122376   3.212   5.236   1.822
 7378WAT     H222377   3.168   5.165   1.963
 7379WAT      O22378   7.274   9.819   7.046
 7379WAT     H122379   7.351   9.783   6.993
 7379WAT     H222380   7.210   9.863   6.984
 7380WAT      O22381   9.279   8.956   7.557
 7380WAT     H122382   9.264   9.048   7.595
 7380WAT     H222383   9.231   8.948   7.469
 7381WAT      O22384   9.741   3.257   2.363
 7381WAT     H122385   9.782   3.240   2.453
 7381WAT     H222386   9.810   3.243   2.293
 7382WAT      O22387   9.173   3.789   6.581
 7382WAT     H122388   9.164   3.800   6.482
 7382WAT     H222389   9.157   3.693   6.604
 7383WAT      O22390   6.576   9.821   1.495
 7383WAT     H122391   6.549   9.903   1.444
 7383WAT     H222392   6.551   9.739   1.444
 7384WAT      O22393   2.061   5.212   0.468
 7384WAT     H122394   2.096   5.144   0.533
 7384WAT     H222395   1.966   5.191   0.446
 7385WAT      O22396   3.741   8.664   8.697
 7385WAT     H122397   3.814   8.647   8.764
 7385WAT     H222398   3.690   8.579   8.682
 7386WAT      O22399   7.330   0.458   8.181
 7386WAT     H122400   7.379   0.509   8.111
 7386WAT     H222401   7.286   0.522   8.244
 7387WAT      O22402   4.014   0.290   0.278
 7387WAT     H122403   3.960   0.236   0.212
 7387WAT     H222404   4.075   0.351   0.229
 7388WAT      O22405   1.096   8.203   0.370
 7388WAT     H122406   1.160   8.263   0.418
 7388WAT     H222407   1.010   8.252   0.356
 7389WAT      O22408   8.849   6.548   8.690
 7389WAT     H122409   8.888   6.630   8.648
 7389WAT     H222410   8.923   6.483   8.710
 7390WAT      O22411   9.888   6.368   3.015
 7390WAT     H122412   9.933   6.427   2.949
 7390WAT     H222413   9.828   6.304   2.967
 7391WAT      O22414   7.779   1.863   9.361
 7391WAT     H122415   7.697   1.884   9.414
 7391WAT     H222416   7.850   1.827   9.422
 7392WAT      O22417   9.870   8.813   4.461
 7392WAT     H122418   9.811   8.786   4.385
 7392WAT     H222419   9.856   8.909   4.482
 7393WAT      O22420   1.849   7.168   8.819
 7393WAT     H122421   1.774   7.189   8.881
 7393WAT     H222422   1.878   7.073   8.832
 7394WAT      O22423   8.489   4.492   3.936
 7394WAT     H122424   8.542   4.568   3.975
 7394WAT     H222425   8.393   4.505   3.959
 7395WAT      O22426   8.590   6.034   3.957
 7395WAT     H122427   8.561   6.030   4.053
 7395WAT     H222428   8.577   6.127   3.922
 7396WAT      O22429   0.512   0.268   0.473
 7396WAT     H122430   0.480   0.353   0.515
 7396WAT     H222431   0.604   0.283   0.436
 7397WAT      O22432   0.434   1.628   1.715
 7397WAT     H122433   0.436   1.728   1.710
 7397WAT     H222434   0.518   1.591   1.676
 7398WAT      O22435   7.398   5.716   6.403
 7398WAT     H122436   7.343   5.752   6.478
 7398WAT     H222437   7.344   5.650   6.351
 7399WAT      O22438   5.412   7.632   1.915
 7399WAT     H122439   5.461   7.699   1.971
 7399WAT     H222440   5.391   7.671   1.826
 7400WAT      O22441   2.491   6.347   0.695
 7400WAT     H122442   2.393   6.364   0.681
 7400WAT     H222443   2.538   6.352   0.607
 7401WAT      O22444   3.518   5.807   8.506
 7401WAT     H122445   3.441   5.762   8.461
 7401WAT     H222446   3.541   5.759   8.591
 7402WAT      O22447   8.179   1.662   7.182
 7402WAT     H122448   8.192   1.696   7.089
 7402WAT     H222449   8.090   1.615   7.188
 7403WAT      O22450   1.980   8.622   4.222
 7403WAT     H122451   2.023   8.563   4.153
 7403WAT     H222452   2.022   8.713   4.219
 7404WAT      O22453   3.443   2.780   2.636
 7404WAT     H122454   3.541   2.797   2.625
 7404WAT     H222455   3.392   2.863   2.615
 7405WAT      O22456   4.169   6.561   6.415
 7405WAT     H122457   4.128   6.645   6.377
 7405WAT     H222458   4.241   6.529   6.353
 7406WAT      O22459   7.652   1.070   8.746
 7406WAT     H122460   7.613   1.087   8.655
 7406WAT     H222461   7.616   1.137   8.811
 7407WAT      O22462   8.712   8.405   4.433
 7407WAT     H122463   8.665   8.471   4.491
 7407WAT     H222464   8.792   8.448   4.392
 7408WAT      O22465   7.926   8.035   7.059
 7408WAT     H122466   7.894   8.044   7.153
 7408WAT     H222467   7.854   7.993   7.003
 7409WAT      O22468   4.077   0.839   8.213
 7409WAT     H122469   4.114   0.888   8.292
 7409WAT     H222470   4.005   0.894   8.170
 7410WAT      O22471   7.325   7.173   0.877
 7410WAT     H122472   7.346   7.076   0.878
 7410WAT     H222473   7.230   7.187   0.904
 7411WAT      O22474   0.482   1.075   2.011
 7411WAT     H122475   0.386   1.105   2.016
 7411WAT     H222476   0.496   1.002   2.077
 7412WAT      O22477   0.356   9.478   1.645
 7412WAT     H122478   0.297   9.531   1.707
 7412WAT     H222479   0.366   9.528   1.559
 7413WAT      O22480   1.336   5.136   5.868
 7413WAT     H122481   1.273   5.060   5.852
 7413WAT     H222482   1.368   5.173   5.781
 7414WAT      O22483   0.963   2.154   8.379
 7414WAT     H122484   0.979   2.077   8.318
 7414WAT     H222485   1.034   2.157   8.449
 7415WAT      O22486   4.145   2.722   9.243
 7415WAT     H122487   4.135   2.789   9.316
 7415WAT     H222488   4.092   2.640   9.265
 7416WAT      O22489   4.244   6.587   4.008
 7416WAT     H122490   4.258   6.497   3.967
 7416WAT     H222491   4.218   6.652   3.937
 7417WAT      O22492   4.207   4.794   7.900
 7417WAT     H122493   4.247   4.762   7.814
 7417WAT     H222494   4.152   4.876   7.883
 7418WAT      O22495   3.010   4.479   8.667
 7418WAT     H122496   3.042   4.385   8.678
 7418WAT     H222497   2.910   4.480   8.661
 7419WAT      O22498   1.109   5.013   6.723
 7419WAT     H122499   1.198   5.042   6.756
 7419WAT     H222500   1.085   5.065   6.641
 7420WAT      O22501   3.899   0.681   0.081
 7420WAT     H122502   3.988   0.666   0.038
 7420WAT     H222503   3.889   0.621   0.160
 7421WAT      O22504   7.244   9.456   1.091
 7421WAT     H122505   7.231   9.536   1.150
 7421WAT     H222506   7.287   9.485   1.005
 7422WAT      O22507   7.582   6.840   9.427
 7422WAT     H122508   7.669   6.834   9.477
 7422WAT     H222509   7.519   6.772   9.464
 7423WAT      O22510   7.126   9.331   0.745
 7423WAT     H122511   7.153   9.335   0.649
 7423WAT     H222512   7.191   9.382   0.801
 7424WAT      O22513   2.571   6.535   7.744
 7424WAT     H122514   2.587   6.446   7.702
 7424WAT     H222515   2.658   6.573   7.775
 7425WAT      O22516   3.634   2.463   0.763
 7425WAT     H122517   3.652   2.428   0.855
 7425WAT     H222518   3.715   2.453   0.706
 7426WAT      O22519  -0.002   2.926   3.041
 7426WAT     H122520   0.031   2.834   3.019
 7426WAT     H222521   0.045   2.993   2.984
 7427WAT      O22522   6.904   5.938   0.212
 7427WAT     H122523   6.942   5.895   0.294
 7427WAT     H222524   6.830   6.000   0.239
 7428WAT      O22525   2.383   6.960   1.046
 7428WAT     H122526   2.356   7.008   1.129
 7428WAT     H222527   2.461   7.007   1.004
 7429WAT      O22528   4.828   5.827   1.056
 7429WAT     H122529   4.749   5.873   1.098
 7429WAT     H222530   4.804   5.732   1.036
 7430WAT      O22531   6.224   2.986   2.249
 7430WAT     H122532   6.129   2.970   2.224
 7430WAT     H222533   6.254   2.918   2.315
 7431WAT      O22534   5.377   8.196   5.971
 7431WAT     H122535   5.316   8.119   5.952
 7431WAT     H222536   5.471   8.162   5.982
 7432WAT      O22537   5.148   8.760   8.992
 7432WAT     H122538   5.103   8.698   8.928
 7432WAT     H222539   5.146   8.720   9.084
 7433WAT      O22540   6.088   0.939   9.435
 7433WAT     H122541   6.101   0.851   9.388
 7433WAT     H222542   6.016   0.991   9.389
 7434WAT      O22543   8.357   9.626   5.597
 7434WAT     H122544   8.360   9.698   5.667
 7434WAT     H222545   8.263   9.613   5.566
 7435WAT      O22546   3.698   9.846   5.116
 7435WAT     H122547   3.628   9.774   5.115
 7435WAT     H222548   3.743   9.850   5.026
 7436WAT      O22549   7.882   6.520   5.950
 7436WAT     H122550   7.796   6.572   5.951
 7436WAT     H222551   7.871   6.436   6.002
 7437WAT      O22552   3.346   9.484   8.959
 7437WAT     H122553   3.328   9.391   8.929
 7437WAT     H222554   3.276   9.512   9.025
 7438WAT      O22555   7.074   7.246   8.269
 7438WAT     H122556   7.145   7.192   8.313
 7438WAT     H222557   7.097   7.343   8.274
 7439WAT      O22558   8.739   6.007   4.379
 7439WAT     H122559   8.641   5.988   4.376
 7439WAT     H222560   8.755   6.102   4.352
 7440WAT      O22561   1.185   5.283   1.947
 7440WAT     H122562   1.189   5.371   1.993
 7440WAT     H222563   1.225   5.213   2.006
 7441WAT      O22564   3.562   6.617   8.918
 7441WAT     H122565   3.511   6.703   8.918
 7441WAT     H222566   3.521   6.554   8.984
 7442WAT      O22567   3.051   7.251   2.067
 7442WAT     H122568   3.139   7.206   2.051
 7442WAT     H222569   3.066   7.343   2.102
 7443WAT      O22570   5.665   4.953   0.793
 7443WAT     H122571   5.603   4.876   0.799
 7443WAT     H222572   5.760   4.920   0.791
 7444WAT      O22573   8.774   1.364   8.861
 7444WAT     H122574   8.825   1.325   8.937
 7444WAT     H222575   8.676   1.359   8.881
 7445WAT      O22576   4.448   7.792   5.337
 7445WAT     H122577   4.369   7.852   5.347
 7445WAT     H222578   4.526   7.830   5.387
 7446WAT      O22579   9.240   2.599   9.398
 7446WAT     H122580   9.328   2.578   9.439
 7446WAT     H222581   9.178   2.634   9.468
 7447WAT      O22582   0.274   9.524   1.042
 7447WAT     H122583   0.243   9.440   0.998
 7447WAT     H222584   0.339   9.502   1.114
 7448WAT      O22585   6.129   5.683   9.794
 7448WAT     H122586   6.223   5.713   9.775
 7448WAT     H222587   6.100   5.719   9.883
 7449WAT      O22588   6.404   1.246   0.542
 7449WAT     H122589   6.389   1.164   0.487
 7449WAT     H222590   6.414   1.325   0.482
 7450WAT      O22591   8.206   3.016   9.697
 7450WAT     H122592   8.125   2.959   9.679
 7450WAT     H222593   8.200   3.099   9.641
 7451WAT      O22594   8.093   2.468   1.346
 7451WAT     H122595   8.080   2.400   1.273
 7451WAT     H222596   8.144   2.426   1.421
 7452WAT      O22597   3.757   5.390   8.799
 7452WAT     H122598   3.767   5.412   8.896
 7452WAT     H222599   3.793   5.298   8.782
 7453WAT      O22600   1.626   9.498   7.197
 7453WAT     H122601   1.529   9.523   7.205
 7453WAT     H222602   1.633   9.408   7.155
 7454WAT      O22603   5.780   3.196   2.992
 7454WAT     H122604   5.694   3.241   2.966
 7454WAT     H222605   5.842   3.264   3.032
 7455WAT      O22606   7.318   0.787   1.950
 7455WAT     H122607   7.219   0.795   1.935
 7455WAT     H222608   7.339   0.818   2.043
 7456WAT      O22609   0.581   5.581   4.102
 7456WAT     H122610   0.596   5.680   4.108
 7456WAT     H222611   0.605   5.549   4.010
 7457WAT      O22612   8.660   4.337   0.132
 7457WAT     H122613   8.702   4.267   0.190
 7457WAT     H222614   8.590   4.295   0.074
 7458WAT      O22615   6.709   2.757   3.967
 7458WAT     H122616   6.759   2.758   4.053
 7458WAT     H222617   6.730   2.841   3.915
 7459WAT      O22618   4.624   0.620   2.313
 7459WAT     H122619   4.615   0.520   2.316
 7459WAT     H222620   4.719   0.645   2.332
 7460WAT      O22621   5.243   3.044   2.759
 7460WAT     H122622   5.174   3.027   2.829
 7460WAT     H222623   5.334   3.041   2.800
 7461WAT      O22624   7.847   5.776   4.558
 7461WAT     H122625   7.883   5.700   4.504
 7461WAT     H222626   7.820   5.850   4.496
 7462WAT      O22627   8.614   1.502   1.169
 7462WAT     H122628   8.645   1.594   1.195
 7462WAT     H222629   8.527   1.509   1.120
 7463WAT      O22630   9.768   1.114   0.766
 7463WAT     H122631   9.862   1.110   0.733
 7463WAT     H222632   9.768   1.140   0.863
 7464WAT      O22633   0.917   1.747   2.462
 7464WAT     H122634   0.866   1.692   2.397
 7464WAT     H222635   0.980   1.807   2.413
 7465WAT      O22636   8.873   0.157   4.072
 7465WAT     H122637   8.833   0.201   4.152
 7465WAT     H222638   8.874   0.058   4.086
 7466WAT      O22639   9.331   8.635   8.535
 7466WAT     H122640   9.401   8.634   8.606
 7466WAT     H222641   9.311   8.542   8.505
 7467WAT      O22642   6.885   6.639   6.186
 7467WAT     H122643   6.981   6.625   6.162
 7467WAT     H222644   6.845   6.554   6.220
 7468WAT      O22645   1.345   1.793   1.134
 7468WAT     H122646   1.426   1.752   1.092
 7468WAT     H222647   1.279   1.722   1.157
 7469WAT      O22648   7.258   1.192   6.694
 7469WAT     H122649   7.201   1.215   6.614
 7469WAT     H222650   7.200   1.184   6.774
 7470WAT      O22651   2.834   2.609   5.426
 7470WAT     H122652   2.881   2.697   5.430
 7470WAT     H222653   2.848   2.559   5.512
 7471WAT      O22654   3.011   3.545   1.144
 7471WAT     H122655   3.066   3.540   1.061
 7471WAT     H222656   3.065   3.515   1.222
 7472WAT      O22657   7.914   0.899   0.861
 7472WAT     H122658   7.880   0.826   0.802
 7472WAT     H222659   7.864   0.984   0.842
 7473WAT      O22660   4.934   6.602   2.758
 7473WAT     H122661   4.942   6.574   2.663
 7473WAT     H222662   4.838   6.608   2.783
 7474WAT      O22663   1.257   3.434   4.073
 7474WAT     H122664   1.206   3.348   4.070
 7474WAT     H222665   1.348   3.421   4.034
 7475WAT      O22666   0.318   2.701   7.030
 7475WAT     H122667   0.292   2.608   7.055
 7475WAT     H222668   0.384   2.698   6.955
 7476WAT      O22669   7.934   1.440   0.512
 7476WAT     H122670   7.886   1.420   0.597
 7476WAT     H222671   7.991   1.362   0.487
 7477WAT      O22672   1.801   0.581   9.230
 7477WAT     H122673   1.831   0.644   9.158
 7477WAT     H222674   1.792   0.489   9.193
 7478WAT      O22675   1.632   9.300   9.490
 7478WAT     H122676   1.559   9.366   9.472
 7478WAT     H222677   1.592   9.210   9.511
 7479WAT      O22678   5.066   0.463   4.247
 7479WAT     H122679   5.079   0.376   4.294
 7479WAT     H222680   5.069   0.448   4.148
 7480WAT      O22681   1.152   4.119   6.502
 7480WAT     H122682   1.090   4.101   6.425
 7480WAT     H222683   1.103   4.167   6.574
 7481WAT      O22684   4.126   3.030   1.850
 7481WAT     H122685   4.160   3.001   1.761
 7481WAT     H222686   4.191   3.002   1.921
 7482WAT      O22687   8.394   9.558   2.858
 7482WAT     H122688   8.416   9.592   2.766
 7482WAT     H222689   8.395   9.634   2.923
 7483WAT      O22690   7.755   1.993   7.479
 7483WAT     H122691   7.819   1.986   7.403
 7483WAT     H222692   7.671   2.038   7.448
 7484WAT      O22693   7.924   5.169   6.792
 7484WAT     H122694   7.912   5.115   6.875
 7484WAT     H222695   7.873   5.126   6.717
 7485WAT      O22696   2.253   0.455   2.733
 7485WAT     H122697   2.259   0.385   2.663
 7485WAT     H222698   2.224   0.541   2.692
 7486WAT      O22699   2.191   0.734   0.528
 7486WAT     H122700   2.118   0.778   0.582
 7486WAT     H222701   2.242   0.804   0.478
 7487WAT      O22702   1.245   2.904   6.730
 7487WAT     H122703   1.185   2.979   6.759
 7487WAT     H222704   1.190   2.821   6.715
 7488WAT      O22705   0.775   9.575   2.040
 7488WAT     H122706   0.768   9.486   2.083
 7488WAT     H222707   0.728   9.643   2.095
 7489WAT      O22708   7.855   0.908   4.895
 7489WAT     H122709   7.795   0.841   4.851
 7489WAT     H222710   7.932   0.861   4.937
 7490WAT      O22711   6.317   6.855   0.913
 7490WAT     H122712   6.334   6.854   0.815
 7490WAT     H222713   6.293   6.763   0.944
 7491WAT      O22714   7.645   6.407   3.188
 7491WAT     H122715   7.712   6.482   3.193
 7491WAT     H222716   7.553   6.446   3.184
 7492WAT      O22717   9.729   3.395   0.261
 7492WAT     H122718   9.783   3.352   0.333
 7492WAT     H222719   9.667   3.328   0.221
 7493WAT      O22720   0.617   7.558   7.809
 7493WAT     H122721   0.518   7.544   7.799
 7493WAT     H222722   0.635   7.615   7.890
 7494WAT      O22723   2.307   3.265   3.063
 7494WAT     H122724   2.329   3.276   2.966
 7494WAT     H222725   2.255   3.180   3.076
 7495WAT      O22726   8.740   3.678   0.097
 7495WAT     H122727   8.798   3.663   0.017
 7495WAT     H222728   8.794   3.719   0.170
 7496WAT      O22729   9.112   3.878   0.501
 7496WAT     H122730   9.177   3.836   0.438
 7496WAT     H222731   9.060   3.950   0.454
 7497WAT      O22732   5.935   5.140   8.246
 7497WAT     H122733   5.954   5.079   8.169
 7497WAT     H222734   5.931   5.234   8.213
 7498WAT      O22735   2.310   8.993   9.185
 7498WAT     H122736   2.316   9.085   9.223
 7498WAT     H222737   2.363   8.930   9.241
 7499WAT      O22738   0.642   3.671   7.829
 7499WAT     H122739   0.698   3.591   7.805
 7499WAT     H222740   0.545   3.648   7.821
 7500WAT      O22741   1.754   0.638   0.503
 7500WAT     H122742   1.772   0.583   0.421
 7500WAT     H222743   1.655   0.637   0.522
 7501WAT      O22744   3.981   1.703   7.202
 7501WAT     H122745   3.947   1.616   7.239
 7501WAT     H222746   3.915   1.775   7.222
 7502WAT      O22747   2.806   7.570   3.708
 7502WAT     H122748   2.782   7.475   3.728
 7502WAT     H222749   2.898   7.589   3.742
 7503WAT      O22750   2.102   1.404   7.617
 7503WAT     H122751   2.085   1.442   7.526
 7503WAT     H222752   2.028   1.429   7.679
 7504WAT      O22753   2.792   6.370   5.653
 7504WAT     H122754   2.804   6.464   5.684
 7504WAT     H222755   2.768   6.369   5.556
 7505WAT      O22756   5.274   8.967   1.334
 7505WAT     H122757   5.316   8.876   1.337
 7505WAT     H222758   5.174   8.957   1.337
 7506WAT      O22759   4.726   6.777   5.632
 7506WAT     H122760   4.778   6.853   5.593
 7506WAT     H222761   4.767   6.751   5.720
 7507WAT      O22762   8.066   2.436   5.256
 7507WAT     H122763   8.052   2.337   5.261
 7507WAT     H222764   8.009   2.481   5.325
 7508WAT      O22765   1.076   3.459   0.427
 7508WAT     H122766   1.102   3.511   0.346
 7508WAT     H222767   1.154   3.404   0.458
 7509WAT      O22768   2.145   2.257   3.262
 7509WAT     H122769   2.220   2.191   3.263
 7509WAT     H222770   2.058   2.209   3.265
 7510WAT      O22771   6.923   5.289   2.281
 7510WAT     H122772   6.829   5.320   2.289
 7510WAT     H222773   6.957   5.260   2.371
 7511WAT      O22774   5.777   6.173   2.452
 7511WAT     H122775   5.729   6.100   2.500
 7511WAT     H222776   5.815   6.238   2.518
 7512WAT      O22777   2.880   9.467   8.517
 7512WAT     H122778   2.955   9.534   8.519
 7512WAT     H222779   2.903   9.394   8.453
 7513WAT      O22780   8.625   2.076   4.166
 7513WAT     H122781   8.542   2.073   4.110
 7513WAT     H222782   8.640   2.170   4.197
 7514WAT      O22783   4.469   4.987   4.621
 7514WAT     H122784   4.407   5.048   4.571
 7514WAT     H222785   4.503   4.916   4.559
 7515WAT      O22786   1.432   5.989   0.007
 7515WAT     H122787   1.450   6.052   0.083
 7515WAT     H222788   1.358   5.926   0.033
 7516WAT      O22789   7.878   8.281   6.353
 7516WAT     H122790   7.843   8.285   6.446
 7516WAT     H222791   7.815   8.330   6.292
 7517WAT      O22792   4.037   0.677   7.136
 7517WAT     H122793   4.122   0.630   7.112
 7517WAT     H222794   4.031   0.763   7.085
 7518WAT      O22795   8.655   7.297   9.707
 7518WAT     H122796   8.720   7.360   9.749
 7518WAT     H222797   8.570   7.296   9.761
 7519WAT      O22798   7.081   1.644   1.613
 7519WAT     H122799   7.003   1.593   1.649
 7519WAT     H222800   7.054   1.739   1.595
 7520WAT      O22801   8.359   6.749   8.744
 7520WAT     H122802   8.428   6.685   8.712
 7520WAT     H222803   8.310   6.710   8.821
 7521WAT      O22804   0.982   2.479   5.418
 7521WAT     H122805   0.939   2.491   5.328
 7521WAT     H222806   1.076   2.448   5.406
 7522WAT      O22807   9.514   6.911   3.374
 7522WAT     H122808   9.556   6.835   3.422
 7522WAT     H222809   9.550   6.916   3.281
 7523WAT      O22810   9.678   9.182   9.740
 7523WAT     H122811   9.676   9.095   9.691
 7523WAT     H222812   9.673   9.164   9.839
 7524WAT      O22813   2.689   7.490   3.458
 7524WAT     H122814   2.739   7.537   3.531
 7524WAT     H222815   2.602   7.457   3.493
 7525WAT      O22816   3.821   0.416   7.784
 7525WAT     H122817   3.749   0.367   7.833
 7525WAT     H222818   3.781   0.462   7.704
 7526WAT      O22819   1.707   7.040   3.422
 7526WAT     H122820   1.761   6.978   3.365
 7526WAT     H222821   1.689   6.997   3.510
 7527WAT      O22822   6.875   2.330   3.509
 7527WAT     H122823   6.874   2.232   3.490
 7527WAT     H222824   6.781   2.363   3.522
 7528WAT      O22825   6.206   5.461   4.798
 7528WAT     H122826   6.219   5.475   4.700
 7528WAT     H222827   6.255   5.378   4.826
 7529WAT      O22828   1.986   8.359   5.355
 7529WAT     H122829   1.990   8.315   5.266
 7529WAT     H222830   2.067   8.335   5.409
 7530WAT      O22831   1.666   3.544   1.997
 7530WAT     H122832   1.717   3.482   1.937
 7530WAT     H222833   1.617   3.492   2.066
 7531WAT      O22834   5.445   1.461   1.259
 7531WAT     H122835   5.417   1.516   1.338
 7531WAT     H222836   5.536   1.490   1.230
 7532WAT      O22837   2.768   3.685   6.444
 7532WAT     H122838   2.867   3.682   6.438
 7532WAT     H222839   2.731   3.595   6.418
 7533WAT      O22840   0.976   3.388   7.434
 7533WAT     H122841   1.027   3.309   7.469
 7533WAT     H222842   1.010   3.472   7.478
 7534WAT      O22843   3.030   9.110   6.757
 7534WAT     H122844   2.938   9.124   6.722
 7534WAT     H222845   3.027   9.096   6.856
 7535WAT      O22846   9.532   5.876   4.179
 7535WAT     H122847   9.616   5.925   4.204
 7535WAT     H222848   9.455   5.915   4.229
 7536WAT      O22849   0.846   2.739   2.578
 7536WAT     H122850   0.772   2.687   2.621
 7536WAT     H222851   0.806   2.813   2.523
 7537WAT      O22852   7.340   4.920   5.369
 7537WAT     H122853   7.250   4.885   5.342
 7537WAT     H222854   7.405   4.903   5.296
 7538WAT      O22855   0.107   1.148   1.453
 7538WAT     H122856   0.095   1.174   1.357
 7538WAT     H222857   0.081   1.052   1.464
 7539WAT      O22858   9.777   6.639   1.485
 7539WAT     H122859   9.777   6.544   1.454
 7539WAT     H222860   9.789   6.642   1.584
 7540WAT      O22861   9.869   5.060   3.565
 7540WAT     H122862   9.825   5.023   3.483
 7540WAT     H222863   9.930   4.992   3.604
 7541WAT      O22864   8.163   6.904   3.210
 7541WAT     H122865   8.121   6.890   3.300
 7541WAT     H222866   8.248   6.851   3.204
 7542WAT      O22867   9.880   9.118   9.290
 7542WAT     H122868   9.786   9.143   9.312
 7542WAT     H222869   9.912   9.173   9.214
 7543WAT      O22870   4.270   0.020   5.147
 7543WAT     H122871   4.185   0.002   5.197
 7543WAT     H222872   4.332   0.075   5.204
 7544WAT      O22873   2.097   2.460   8.630
 7544WAT     H122874   2.035   2.505   8.565
 7544WAT     H222875   2.089   2.504   8.719
 7545WAT      O22876   9.577   5.587   3.365
 7545WAT     H122877   9.660   5.534   3.347
 7545WAT     H222878   9.600   5.665   3.423
 7546WAT      O22879   5.591   7.264   8.421
 7546WAT     H122880   5.523   7.192   8.414
 7546WAT     H222881   5.669   7.231   8.476
 7547WAT      O22882   3.427   1.882   6.516
 7547WAT     H122883   3.410   1.903   6.612
 7547WAT     H222884   3.420   1.965   6.462
 7548WAT      O22885   5.250   2.630   0.363
 7548WAT     H122886   5.211   2.545   0.329
 7548WAT     H222887   5.199   2.708   0.326
 7549WAT      O22888   2.550   5.312   1.411
 7549WAT     H122889   2.508   5.222   1.403
 7549WAT     H222890   2.553   5.356   1.322
 7550WAT      O22891   1.853   9.251   3.408
 7550WAT     H122892   1.774   9.309   3.393
 7550WAT     H222893   1.839   9.163   3.362
 7551WAT      O22894   8.343   3.684   2.330
 7551WAT     H122895   8.248   3.708   2.350
 7551WAT     H222896   8.368   3.601   2.380
 7552WAT      O22897   0.397   3.450   4.921
 7552WAT     H122898   0.306   3.456   4.962
 7552WAT     H222899   0.461   3.413   4.988
 7553WAT      O22900   2.469   9.664   7.646
 7553WAT     H122901   2.476   9.678   7.745
 7553WAT     H222902   2.554   9.622   7.612
 7554WAT      O22903   4.550   3.107   9.676
 7554WAT     H122904   4.594   3.197   9.678
 7554WAT     H222905   4.495   3.098   9.594
 7555WAT      O22906   0.941   8.706   0.085
 7555WAT     H122907   1.025   8.688   0.032
 7555WAT     H222908   0.961   8.772   0.157
 7556WAT      O22909   9.216   0.952   4.861
 7556WAT     H122910   9.234   0.863   4.819
 7556WAT     H222911   9.263   0.957   4.949
 7557WAT      O22912   2.928   3.100   9.601
 7557WAT     H122913   2.931   3.054   9.513
 7557WAT     H222914   2.847   3.159   9.605
 7558WAT      O22915   9.303   5.185   0.204
 7558WAT     H122916   9.368   5.212   0.275
 7558WAT     H222917   9.255   5.102   0.233
 7559WAT      O22918   3.976   8.732   7.832
 7559WAT     H122919   3.946   8.665   7.764
 7559WAT     H222920   3.896   8.777   7.871
 7560WAT      O22921   8.110   2.806   3.687
 7560WAT     H122922   8.106   2.739   3.612
 7560WAT     H222923   8.190   2.864   3.675
 7561WAT      O22924   8.461   3.512   3.704
 7561WAT     H122925   8.378   3.460   3.681
 7561WAT     H222926   8.449   3.607   3.677
 7562WAT      O22927   9.560   8.342   9.571
 7562WAT     H122928   9.530   8.328   9.476
 7562WAT     H222929   9.611   8.261   9.601
 7563WAT      O22930   7.185   8.135   1.582
 7563WAT     H122931   7.087   8.146   1.601
 7563WAT     H222932   7.197   8.095   1.491
 7564WAT      O22933   0.219   4.978   6.208
 7564WAT     H122934   0.126   4.983   6.244
 7564WAT     H222935   0.218   4.935   6.117
 7565WAT      O22936   1.983   3.724   1.042
 7565WAT     H122937   1.990   3.665   1.122
 7565WAT     H222938   1.952   3.815   1.070
 7566WAT      O22939   7.216   2.663   3.863
 7566WAT     H122940   7.183   2.686   3.954
 7566WAT     H222941   7.197   2.566   3.844
 7567WAT      O22942   7.681   9.770   8.380
 7567WAT     H122943   7.609   9.735   8.319
 7567WAT     H222944   7.641   9.838   8.441
 7568WAT      O22945   8.911   4.687   4.807
 7568WAT     H122946   8.878   4.620   4.874
 7568WAT     H222947   8.939   4.640   4.724
 7569WAT      O22948   4.506   5.916   4.352
 7569WAT     H122949   4.542   5.886   4.440
 7569WAT     H222950   4.581   5.943   4.292
 7570WAT      O22951   1.868   7.066   2.554
 7570WAT     H122952   1.809   6.986   2.543
 7570WAT     H222953   1.953   7.051   2.502
 7571WAT      O22954   8.202   1.046   5.555
 7571WAT     H122955   8.263   1.034   5.633
 7571WAT     H222956   8.142   0.966   5.547
 7572WAT      O22957   0.891   2.242   3.172
 7572WAT     H122958   0.813   2.236   3.110
 7572WAT     H222959   0.931   2.334   3.166
 7573WAT      O22960   6.621   8.259   1.751
 7573WAT     H122961   6.650   8.214   1.836
 7573WAT     H222962   6.675   8.342   1.738
 7574WAT      O22963   5.083   2.798   0.722
 7574WAT     H122964   5.075   2.855   0.641
 7574WAT     H222965   5.034   2.840   0.798
 7575WAT      O22966   6.425   4.472   6.018
 7575WAT     H122967   6.326   4.482   6.010
 7575WAT     H222968   6.470   4.557   5.989
 7576WAT      O22969   2.624   4.586   5.821
 7576WAT     H122970   2.680   4.504   5.813
 7576WAT     H222971   2.648   4.650   5.749
 7577WAT      O22972   1.294   4.972   8.880
 7577WAT     H122973   1.373   4.913   8.895
 7577WAT     H222974   1.313   5.035   8.805
 7578WAT      O22975   9.192   1.733   6.930
 7578WAT     H122976   9.172   1.653   6.986
 7578WAT     H222977   9.289   1.732   6.904
 7579WAT      O22978   2.450   3.446   7.774
 7579WAT     H122979   2.472   3.349   7.787
 7579WAT     H222980   2.433   3.488   7.863
 7580WAT      O22981   5.450   9.404   6.746
 7580WAT     H122982   5.505   9.425   6.665
 7580WAT     H222983   5.417   9.490   6.786
 7581WAT      O22984   5.888   2.912   9.686
 7581WAT     H122985   5.866   2.964   9.768
 7581WAT     H222986   5.965   2.954   9.639
 7582WAT      O22987   4.195   8.998   9.258
 7582WAT     H122988   4.140   9.038   9.332
 7582WAT     H222989   4.150   8.916   9.224
 7583WAT      O22990   6.528   9.479   9.180
 7583WAT     H122991   6.518   9.546   9.107
 7583WAT     H222992   6.602   9.416   9.158
 7584WAT      O22993   4.267   5.227   5.235
 7584WAT     H122994   4.331   5.234   5.159
 7584WAT     H222995   4.281   5.303   5.298
 7585WAT      O22996   2.472   4.673   0.192
 7585WAT     H122997   2.415   4.600   0.229
 7585WAT     H222998   2.455   4.682   0.094
 7586WAT      O22999   1.630   9.031   6.405
 7586WAT     H123000   1.630   8.938   6.440
 7586WAT     H223001   1.541   9.051   6.363
 7587WAT      O23002   4.461   2.832   0.805
 7587WAT     H123003   4.551   2.818   0.764
 7587WAT     H223004   4.409   2.746   0.805
 7588WAT      O23005   3.496   6.853   0.631
 7588WAT     H123006   3.518   6.785   0.560
 7588WAT     H223007   3.397   6.857   0.644
 7589WAT      O23008   0.374   7.881   0.216
 7589WAT     H123009   0.446   7.886   0.146
 7589WAT     H223010   0.372   7.789   0.255
 7590WAT      O23011   6.200   1.485   4.432
 7590WAT     H123012   6.250   1.419   4.377
 7590WAT     H223013   6.114   1.508   4.387
 7591WAT      O23014   1.891   5.290   2.567
 7591WAT     H123015   1.915   5.375   2.614
 7591WAT     H223016   1.795   5.291   2.542
 7592WAT      O23017   8.990   0.962   0.287
 7592WAT     H123018   8.984   0.863   0.287
 7592WAT     H223019   9.052   0.992   0.360
 7593WAT      O23020   6.716   0.677   7.191
 7593WAT     H123021   6.785   0.603   7.190
 7593WAT     H223022   6.733   0.738   7.114
 7594WAT      O23023   2.703   7.902   4.050
 7594WAT     H123024   2.633   7.832   4.040
 7594WAT     H223025   2.704   7.961   3.969
 7595WAT      O23026   2.229   8.187   4.014
 7595WAT     H123027   2.295   8.113   4.023
 7595WAT     H223028   2.214   8.209   3.918
 7596WAT      O23029   2.924   8.290   2.449
 7596WAT     H123030   2.963   8.376   2.482
 7596WAT     H223031   2.962   8.213   2.500
 7597WAT      O23032   5.045   4.861   5.861
 7597WAT     H123033   5.086   4.813   5.939
 7597WAT     H223034   5.029   4.796   5.787
 7598WAT      O23035   6.013   7.660   1.516
 7598WAT     H123036   5.983   7.600   1.441
 7598WAT     H223037   6.012   7.755   1.484
 7599WAT      O23038   0.542   7.425   0.665
 7599WAT     H123039   0.555   7.344   0.608
 7599WAT     H223040   0.455   7.468   0.641
 7600WAT      O23041   7.682   6.283   9.259
 7600WAT     H123042   7.697   6.376   9.293
 7600WAT     H223043   7.760   6.226   9.283
 7601WAT      O23044   1.673   4.487   6.707
 7601WAT     H123045   1.663   4.552   6.632
 7601WAT     H223046   1.738   4.416   6.680
 7602WAT      O23047   5.382   6.634   5.823
 7602WAT     H123048   5.415   6.584   5.903
 7602WAT     H223049   5.331   6.571   5.764
 7603WAT      O23050   2.165   4.343   9.200
 7603WAT     H123051   2.185   4.272   9.268
 7603WAT     H223052   2.175   4.305   9.108
 7604WAT      O23053   5.430   6.474   2.184
 7604WAT     H123054   5.501   6.457   2.253
 7604WAT     H223055   5.401   6.570   2.189
 7605WAT      O23056   9.061   6.731   4.850
 7605WAT     H123057   8.968   6.733   4.887
 7605WAT     H223058   9.118   6.797   4.899
 7606WAT      O23059   0.971   7.360   4.673
 7606WAT     H123060   0.893   7.338   4.732
 7606WAT     H223061   1.054   7.369   4.728
 7607WAT      O23062   9.866   5.470   6.306
 7607WAT     H123063   9.844   5.374   6.324
 7607WAT     H223064   9.790   5.513   6.258
 7608WAT      O23065   3.749   0.410   2.912
 7608WAT     H123066   3.670   0.383   2.966
 7608WAT     H223067   3.780   0.331   2.858
 7609WAT      O23068   0.084   1.706   3.126
 7609WAT     H123069   0.096   1.714   3.027
 7609WAT     H223070   0.154   1.645   3.163
 7610WAT      O23071   6.897   5.501   3.801
 7610WAT     H123072   6.875   5.404   3.809
 7610WAT     H223073   6.982   5.520   3.851
 7611WAT      O23074   8.026   3.134   6.904
 7611WAT     H123075   8.080   3.052   6.919
 7611WAT     H223076   7.929   3.112   6.909
 7612WAT      O23077   2.058   2.460   1.171
 7612WAT     H123078   2.144   2.455   1.120
 7612WAT     H223079   1.999   2.384   1.143
 7613WAT      O23080   7.942   3.331   2.355
 7613WAT     H123081   7.975   3.259   2.294
 7613WAT     H223082   7.969   3.310   2.449
 7614WAT      O23083   6.404   5.709   9.767
 7614WAT     H123084   6.435   5.650   9.842
 7614WAT     H223085   6.448   5.799   9.775
 7615WAT      O23086   6.291   2.670   1.711
 7615WAT     H123087   6.380   2.683   1.754
 7615WAT     H223088   6.251   2.759   1.688
 7616WAT      O23089   2.845   2.944   4.278
 7616WAT     H123090   2.840   2.849   4.246
 7616WAT     H223091   2.763   2.993   4.250
 7617WAT      O23092   4.354   5.171   2.808
 7617WAT     H123093   4.293   5.147   2.883
 7617WAT     H223094   4.352   5.097   2.740
 7618WAT      O23095   5.493   9.436   4.802
 7618WAT     H123096   5.458   9.391   4.884
 7618WAT     H223097   5.495   9.371   4.726
 7619WAT      O23098   1.370   8.243   2.969
 7619WAT     H123099   1.318   8.182   2.910
 7619WAT     H223100   1.316   8.267   3.050
 7620WAT      O23101   8.266   5.747   6.885
 7620WAT     H123102   8.176   5.787   6.901
 7620WAT     H223103   8.336   5.805   6.926
 7621WAT      O23104   7.274   9.476   3.925
 7621WAT     H123105   7.255   9.539   4.000
 7621WAT     H223106   7.194   9.469   3.866
 7622WAT      O23107   7.696   8.973   5.737
 7622WAT     H123108   7.682   8.950   5.641
 7622WAT     H223109   7.625   8.928   5.792
 7623WAT      O23110   9.785   9.668   3.149
 7623WAT     H123111   9.829   9.717   3.224
 7623WAT     H223112   9.786   9.570   3.167
 7624WAT      O23113   7.733   9.305   6.438
 7624WAT     H123114   7.677   9.384   6.414
 7624WAT     H223115   7.673   9.227   6.458
 7625WAT      O23116   4.627   1.969   5.271
 7625WAT     H123117   4.536   2.009   5.281
 7625WAT     H223118   4.694   2.042   5.256
 7626WAT      O23119   6.919   0.509   7.194
 7626WAT     H123120   7.003   0.484   7.145
 7626WAT     H223121   6.943   0.568   7.272
 7627WAT      O23122   2.465   2.366   5.835
 7627WAT     H123123   2.368   2.381   5.817
 7627WAT     H223124   2.509   2.327   5.754
 7628WAT      O23125   9.445   7.589   5.213
 7628WAT     H123126   9.401   7.636   5.136
 7628WAT     H223127   9.384   7.518   5.247
 7629WAT      O23128   9.107   3.390   7.958
 7629WAT     H123129   9.160   3.322   7.908
 7629WAT     H223130   9.028   3.417   7.903
 7630WAT      O23131   0.295   4.372   0.016
 7630WAT     H123132   0.199   4.347   0.029
 7630WAT     H223133   0.332   4.412   0.100
 7631WAT      O23134   6.721   3.997   8.723
 7631WAT     H123135   6.754   3.915   8.770
 7631WAT     H223136   6.691   3.973   8.631
 7632WAT      O23137   1.368   5.930   2.763
 7632WAT     H123138   1.358   6.011   2.822
 7632WAT     H223139   1.454   5.883   2.786
 7633WAT      O23140   8.034   2.068   5.780
 7633WAT     H123141   7.971   2.038   5.851
 7633WAT     H223142   8.016   2.016   5.696
 7634WAT      O23143   8.126   1.787   9.450
 7634WAT     H123144   8.114   1.720   9.377
 7634WAT     H223145   8.205   1.761   9.506
 7635WAT      O23146   6.353   3.046   6.047
 7635WAT     H123147   6.258   3.023   6.024
 7635WAT     H223148   6.373   3.139   6.016
 7636WAT      O23149   6.639   2.261   9.437
 7636WAT     H123150   6.735   2.285   9.450
 7636WAT     H223151   6.625   2.165   9.459
 7637WAT      O23152   2.838   6.996   5.886
 7637WAT     H123153   2.773   7.013   5.812
 7637WAT     H223154   2.788   6.975   5.970
 7638WAT      O23155   2.602   6.046   5.960
 7638WAT     H123156   2.509   6.021   5.987
 7638WAT     H223157   2.664   6.033   6.038
 7639WAT      O23158   4.599   8.065   6.114
 7639WAT     H123159   4.662   8.006   6.166
 7639WAT     H223160   4.553   8.010   6.043
 7640WAT      O23161   1.384   5.187   3.224
 7640WAT     H123162   1.375   5.187   3.324
 7640WAT     H223163   1.302   5.148   3.183
 7641WAT      O23164   5.033   7.261   1.021
 7641WAT     H123165   4.962   7.213   1.072
 7641WAT     H223166   5.078   7.328   1.081
 7642WAT      O23167   3.101   6.986   3.257
 7642WAT     H123168   3.144   6.958   3.171
 7642WAT     H223169   3.050   6.910   3.296
 7643WAT      O23170   4.195   3.709   1.216
 7643WAT     H123171   4.235   3.626   1.177
 7643WAT     H223172   4.106   3.687   1.257
 7644WAT      O23173   5.986   5.034   0.002
 7644WAT     H123174   5.918   5.098  -0.034
 7644WAT     H223175   5.943   4.975   0.070
 7645WAT      O23176   1.551   2.663   7.976
 7645WAT     H123177   1.612   2.725   7.927
 7645WAT     H223178   1.531   2.700   8.066
 7646WAT      O23179   7.907   2.264   6.045
 7646WAT     H123180   7.936   2.171   6.069
 7646WAT     H223181   7.930   2.282   5.950
 7647WAT      O23182   2.560   3.557   4.007
 7647WAT     H123183   2.532   3.624   4.076
 7647WAT     H223184   2.649   3.519   4.032
 7648WAT      O23185   3.645   9.671   6.133
 7648WAT     H123186   3.593   9.598   6.089
 7648WAT     H223187   3.582   9.742   6.165
 7649WAT      O23188   9.307   4.400   8.346
 7649WAT     H123189   9.378   4.421   8.413
 7649WAT     H223190   9.316   4.306   8.315
 7650WAT      O23191   4.363   1.232   2.444
 7650WAT     H123192   4.444   1.177   2.424
 7650WAT     H223193   4.391   1.321   2.480
 7651WAT      O23194   3.175   5.521   8.630
 7651WAT     H123195   3.254   5.535   8.690
 7651WAT     H223196   3.091   5.534   8.682
 7652WAT      O23197   4.718   8.420   2.347
 7652WAT     H123198   4.625   8.385   2.336
 7652WAT     H223199   4.782   8.360   2.298
 7653WAT      O23200   6.101   5.869   3.841
 7653WAT     H123201   6.080   5.771   3.843
 7653WAT     H223202   6.016   5.922   3.845
 7654WAT      O23203   8.697   4.952   5.116
 7654WAT     H123204   8.683   5.050   5.100
 7654WAT     H223205   8.752   4.939   5.198
 7655WAT      O23206   3.165   8.308   0.335
 7655WAT     H123207   3.123   8.397   0.350
 7655WAT     H223208   3.260   8.320   0.304
 7656WAT      O23209   7.165   1.903   5.137
 7656WAT     H123210   7.202   1.920   5.045
 7656WAT     H223211   7.236   1.921   5.205
 7657WAT      O23212   5.680   3.068   2.531
 7657WAT     H123213   5.591   3.092   2.491
 7657WAT     H223214   5.704   3.133   2.602
 7658WAT      O23215   6.509   7.228   1.549
 7658WAT     H123216   6.469   7.150   1.501
 7658WAT     H223217   6.494   7.311   1.496
 7659WAT      O23218   5.699   4.235   2.970
 7659WAT     H123219   5.779   4.179   2.994
 7659WAT     H223220   5.651   4.193   2.894
 7660WAT      O23221   8.768   5.391   1.470
 7660WAT     H123222   8.837   5.350   1.410
 7660WAT     H223223   8.684   5.338   1.465
 7661WAT      O23224   2.876   9.063   3.181
 7661WAT     H123225   2.866   9.126   3.258
 7661WAT     H223226   2.893   9.115   3.098
 7662WAT      O23227   8.779   2.270   0.747
 7662WAT     H123228   8.750   2.350   0.800
 7662WAT     H223229   8.700   2.229   0.703
 7663WAT      O23230   0.259   3.081   4.848
 7663WAT     H123231   0.315   3.027   4.785
 7663WAT     H223232   0.229   3.023   4.924
 7664WAT      O23233   2.676   2.857   3.821
 7664WAT     H123234   2.633   2.875   3.733
 7664WAT     H223235   2.764   2.905   3.825
 7665WAT      O23236   1.171   9.639   0.428
 7665WAT     H123237   1.136   9.545   0.418
 7665WAT     H223238   1.246   9.639   0.494
 7666WAT      O23239   9.287   5.765   4.553
 7666WAT     H123240   9.381   5.769   4.588
 7666WAT     H223241   9.226   5.812   4.617
 7667WAT      O23242   7.642   3.292   9.393
 7667WAT     H123243   7.623   3.221   9.460
 7667WAT     H223244   7.733   3.330   9.409
 7668WAT      O23245   8.947   3.019   2.884
 7668WAT     H123246   9.013   3.093   2.897
 7668WAT     H223247   8.984   2.934   2.920
 7669WAT      O23248   0.960   2.760   7.206
 7669WAT     H123249   0.873   2.773   7.254
 7669WAT     H223250   0.999   2.671   7.231
 7670WAT      O23251   5.387   7.312   5.570
 7670WAT     H123252   5.345   7.229   5.606
 7670WAT     H223253   5.338   7.392   5.602
 7671WAT      O23254   5.580   7.439   9.261
 7671WAT     H123255   5.653   7.370   9.261
 7671WAT     H223256   5.605   7.513   9.198
 7672WAT      O23257   5.799   4.091   4.137
 7672WAT     H123258   5.800   4.144   4.052
 7672WAT     H223259   5.705   4.081   4.170
 7673WAT      O23260   5.329   7.397   1.803
 7673WAT     H123261   5.230   7.391   1.810
 7673WAT     H223262   5.361   7.479   1.851
 7674WAT      O23263   4.258   7.652   6.610
 7674WAT     H123264   4.276   7.746   6.580
 7674WAT     H223265   4.343   7.599   6.606
 7675WAT      O23266   1.646   1.953   1.469
 7675WAT     H123267   1.652   2.000   1.557
 7675WAT     H223268   1.553   1.961   1.433
 7676WAT      O23269   8.151   1.243   2.715
 7676WAT     H123270   8.194   1.320   2.667
 7676WAT     H223271   8.059   1.228   2.678
 7677WAT      O23272   8.194   5.976   3.248
 7677WAT     H123273   8.268   6.043   3.252
 7677WAT     H223274   8.223   5.898   3.191
 7678WAT      O23275   9.854   6.377   3.970
 7678WAT     H123276   9.949   6.347   3.960
 7678WAT     H223277   9.834   6.397   4.066
 7679WAT      O23278   5.981   0.027   7.273
 7679WAT     H123279   6.001   0.053   7.178
 7679WAT     H223280   6.041  -0.047   7.301
 7680WAT      O23281   9.714   4.625   8.173
 7680WAT     H123282   9.705   4.706   8.230
 7680WAT     H223283   9.751   4.550   8.227
 7681WAT      O23284   4.611   2.874   8.535
 7681WAT     H123285   4.579   2.965   8.508
 7681WAT     H223286   4.710   2.876   8.547
 7682WAT      O23287   4.942   7.376   3.926
 7682WAT     H123288   4.849   7.383   3.891
 7682WAT     H223289   4.960   7.281   3.953
 7683WAT      O23290   0.508   3.753   1.135
 7683WAT     H123291   0.594   3.802   1.123
 7683WAT     H223292   0.524   3.671   1.191
 7684WAT      O23293   0.941   1.069   2.318
 7684WAT     H123294   0.872   1.112   2.260
 7684WAT     H223295   0.901   0.993   2.369
 7685WAT      O23296   9.480   6.610   6.393
 7685WAT     H123297   9.456   6.514   6.412
 7685WAT     H223298   9.433   6.669   6.459
 7686WAT      O23299   6.089   0.605   0.395
 7686WAT     H123300   6.129   0.687   0.435
 7686WAT     H223301   6.118   0.597   0.299
 7687WAT      O23302   5.471   9.099   0.011
 7687WAT     H123303   5.382   9.052   0.015
 7687WAT     H223304   5.507   9.094  -0.082
 7688WAT      O23305   0.963   7.609   0.689
 7688WAT     H123306   0.944   7.701   0.654
 7688WAT     H223307   0.881   7.573   0.734
 7689WAT      O23308   6.532   4.367   4.407
 7689WAT     H123309   6.476   4.357   4.325
 7689WAT     H223310   6.492   4.313   4.482
 7690WAT      O23311   1.911   7.475   4.582
 7690WAT     H123312   2.007   7.501   4.597
 7690WAT     H223313   1.898   7.379   4.608
 7691WAT      O23314   3.363   0.116   3.693
 7691WAT     H123315   3.414   0.030   3.690
 7691WAT     H223316   3.427   0.193   3.687
 7692WAT      O23317   9.291   1.292   2.504
 7692WAT     H123318   9.379   1.258   2.536
 7692WAT     H223319   9.220   1.223   2.521
 7693WAT      O23320   5.416   0.634   4.874
 7693WAT     H123321   5.380   0.639   4.967
 7693WAT     H223322   5.473   0.552   4.864
 7694WAT      O23323   5.793   6.434   3.249
 7694WAT     H123324   5.710   6.444   3.304
 7694WAT     H223325   5.825   6.524   3.220
 7695WAT      O23326   5.669   3.793   8.914
 7695WAT     H123327   5.688   3.861   8.844
 7695WAT     H223328   5.755   3.752   8.944
 7696WAT      O23329   9.461   7.457   1.996
 7696WAT     H123330   9.368   7.472   2.029
 7696WAT     H223331   9.518   7.424   2.071
 7697WAT      O23332   7.579   2.480   0.866
 7697WAT     H123333   7.528   2.403   0.825
 7697WAT     H223334   7.627   2.530   0.794
 7698WAT      O23335   2.670   3.772   3.343
 7698WAT     H123336   2.635   3.842   3.406
 7698WAT     H223337   2.745   3.723   3.387
 7699WAT      O23338   1.466   3.583   2.692
 7699WAT     H123339   1.510   3.505   2.649
 7699WAT     H223340   1.534   3.654   2.711
 7700WAT      O23341   8.811   3.461   8.127
 7700WAT     H123342   8.831   3.444   8.031
 7700WAT     H223343   8.744   3.535   8.135
 7701WAT      O23344   8.240   1.306   6.774
 7701WAT     H123345   8.225   1.349   6.864
 7701WAT     H223346   8.323   1.344   6.733
 7702WAT      O23347   7.915   3.861   1.056
 7702WAT     H123348   7.976   3.794   1.099
 7702WAT     H223349   7.828   3.817   1.034
 7703WAT      O23350   9.187   8.926   6.697
 7703WAT     H123351   9.241   8.967   6.624
 7703WAT     H223352   9.199   8.826   6.696
 7704WAT      O23353   1.103   1.423   5.909
 7704WAT     H123354   1.064   1.403   5.819
 7704WAT     H223355   1.182   1.365   5.925
 7705WAT      O23356   7.159   5.291   0.313
 7705WAT     H123357   7.114   5.378   0.292
 7705WAT     H223358   7.099   5.215   0.289
 7706WAT      O23359   7.801   4.704   9.276
 7706WAT     H123360   7.871   4.747   9.333
 7706WAT     H223361   7.792   4.754   9.190
 7707WAT      O23362   2.619   0.865   8.416
 7707WAT     H123363   2.611   0.773   8.377
 7707WAT     H223364   2.693   0.915   8.370
 7708WAT      O23365   8.593   2.183   6.117
 7708WAT     H123366   8.543   2.145   6.194
 7708WAT     H223367   8.564   2.278   6.103
 7709WAT      O23368   1.510   3.773   8.604
 7709WAT     H123369   1.466   3.772   8.694
 7709WAT     H223370   1.609   3.777   8.616
 7710WAT      O23371   1.092   5.764   1.842
 7710WAT     H123372   1.084   5.771   1.941
 7710WAT     H223373   1.035   5.833   1.798
 7711WAT      O23374   6.190   2.952   9.348
 7711WAT     H123375   6.213   2.945   9.251
 7711WAT     H223376   6.227   3.036   9.386
 7712WAT      O23377   1.892   4.382   8.213
 7712WAT     H123378   1.976   4.367   8.160
 7712WAT     H223379   1.888   4.477   8.244
 7713WAT      O23380   6.138   4.743   8.654
 7713WAT     H123381   6.118   4.779   8.563
 7713WAT     H223382   6.053   4.738   8.707
 7714WAT      O23383   0.263   7.387   2.689
 7714WAT     H123384   0.303   7.313   2.635
 7714WAT     H223385   0.194   7.435   2.634
 7715WAT      O23386   2.251   4.763   4.271
 7715WAT     H123387   2.253   4.863   4.273
 7715WAT     H223388   2.158   4.731   4.290
 7716WAT      O23389   6.692   3.205   0.796
 7716WAT     H123390   6.740   3.152   0.866
 7716WAT     H223391   6.596   3.180   0.794
 7717WAT      O23392   9.613   5.376   4.205
 7717WAT     H123393   9.551   5.453   4.221
 7717WAT     H223394   9.593   5.336   4.115
 7718WAT      O23395   3.714   2.062  -0.001
 7718WAT     H123396   3.764   2.147   0.009
 7718WAT     H223397   3.710   2.015   0.087
 7719WAT      O23398   2.449   3.945   6.264
 7719WAT     H123399   2.398   3.883   6.324
 7719WAT     H223400   2.547   3.927   6.273
 7720WAT      O23401   2.151   0.861   3.422
 7720WAT     H123402   2.060   0.819   3.428
 7720WAT     H223403   2.219   0.790   3.405
 7721WAT      O23404   3.817   5.485   5.115
 7721WAT     H123405   3.832   5.567   5.060
 7721WAT     H223406   3.887   5.417   5.093
 7722WAT      O23407   4.819   4.244   2.226
 7722WAT     H123408   4.769   4.277   2.146
 7722WAT     H223409   4.839   4.146   2.214
 7723WAT      O23410   6.620   1.213   7.867
 7723WAT     H123411   6.632   1.114   7.859
 7723WAT     H223412   6.560   1.233   7.944
 7724WAT      O23413   5.657   2.051   5.608
 7724WAT     H123414   5.657   2.022   5.512
 7724WAT     H223415   5.565   2.040   5.646
 7725WAT      O23416   1.615   0.418   4.854
 7725WAT     H123417   1.582   0.443   4.763
 7725WAT     H223418   1.552   0.452   4.924
 7726WAT      O23419   3.862   0.247   7.349
 7726WAT     H123420   3.846   0.161   7.300
 7726WAT     H223421   3.778   0.273   7.398
 7727WAT      O23422   9.500   3.037   6.693
 7727WAT     H123423   9.465   2.982   6.768
 7727WAT     H223424   9.549   3.116   6.729
 7728WAT      O23425   3.666   9.224   4.255
 7728WAT     H123426   3.659   9.324   4.257
 7728WAT     H223427   3.630   9.190   4.168
 7729WAT      O23428   6.775   5.571   1.938
 7729WAT     H123429   6.692   5.524   1.908
 7729WAT     H223430   6.855   5.529   1.894
 7730WAT      O23431   2.706   6.689   8.658
 7730WAT     H123432   2.670   6.770   8.610
 7730WAT     H223433   2.804   6.682   8.642
 7731WAT      O23434   4.716   2.423   8.137
 7731WAT     H123435   4.745   2.342   8.087
 7731WAT     H223436   4.742   2.415   8.233
 7732WAT      O23437   2.100   0.216   2.333
 7732WAT     H123438   2.038   0.162   2.277
 7732WAT     H223439   2.093   0.312   2.307
 7733WAT      O23440   7.274   4.218   5.209
 7733WAT     H123441   7.326   4.246   5.289
 7733WAT     H223442   7.201   4.156   5.237
 7734WAT      O23443   4.958   7.578   4.948
 7734WAT     H123444   4.970   7.509   5.019
 7734WAT     H223445   4.975   7.669   4.988
 7735WAT      O23446   9.672   0.344   1.284
 7735WAT     H123447   9.628   0.298   1.206
 7735WAT     H223448   9.766   0.368   1.259
 7736WAT      O23449   9.215   3.438   2.261
 7736WAT     H123450   9.179   3.344   2.260
 7736WAT     H223451   9.165   3.493   2.194
 7737WAT      O23452   5.654   0.041   3.803
 7737WAT     H123453   5.719   0.115   3.787
 7737WAT     H223454   5.699  -0.034   3.852
 7738WAT      O23455   4.756   8.306   1.612
 7738WAT     H123456   4.694   8.338   1.684
 7738WAT     H223457   4.828   8.373   1.598
 7739WAT      O23458   3.158   6.486   7.995
 7739WAT     H123459   3.068   6.446   7.983
 7739WAT     H223460   3.211   6.432   8.060
 7740WAT      O23461   9.163   7.240   4.664
 7740WAT     H123462   9.201   7.157   4.705
 7740WAT     H223463   9.206   7.320   4.705
 7741WAT      O23464   2.266   3.438   4.109
 7741WAT     H123465   2.246   3.422   4.013
 7741WAT     H223466   2.199   3.501   4.148
 7742WAT      O23467   0.813   2.411   1.114
 7742WAT     H123468   0.883   2.468   1.156
 7742WAT     H223469   0.851   2.366   1.033
 7743WAT      O23470   3.105   7.295   0.000
 7743WAT     H123471   3.033   7.235  -0.036
 7743WAT     H223472   3.106   7.289   0.100
 7744WAT      O23473   9.585   9.579   9.732
 7744WAT     H123474   9.664   9.606   9.678
 7744WAT     H223475   9.525   9.658   9.746
 7745WAT      O23476   3.332   0.909   4.424
 7745WAT     H123477   3.416   0.895   4.371
 7745WAT     H223478   3.277   0.980   4.381
 7746WAT      O23479   7.815   1.544   9.320
 7746WAT     H123480   7.839   1.608   9.247
 7746WAT     H223481   7.891   1.535   9.383
 7747WAT      O23482   2.655   5.319   0.019
 7747WAT     H123483   2.598   5.253   0.068
 7747WAT     H223484   2.613   5.409   0.022
 7748WAT      O23485   2.817   6.436   2.882
 7748WAT     H123486   2.779   6.404   2.969
 7748WAT     H223487   2.822   6.360   2.817
 7749WAT      O23488   7.023   2.004   5.919
 7749WAT     H123489   6.952   1.945   5.880
 7749WAT     H223490   7.038   1.978   6.015
 7750WAT      O23491   1.177   5.373   0.238
 7750WAT     H123492   1.148   5.355   0.144
 7750WAT     H223493   1.238   5.452   0.240
 7751WAT      O23494   5.301   7.525   5.034
 7751WAT     H123495   5.203   7.527   5.017
 7751WAT     H223496   5.335   7.431   5.029
 7752WAT      O23497   1.462   0.790   6.000
 7752WAT     H123498   1.455   0.856   6.075
 7752WAT     H223499   1.540   0.814   5.942
 7753WAT      O23500   2.564   1.398   9.219
 7753WAT     H123501   2.531   1.445   9.138
 7753WAT     H223502   2.492   1.340   9.256
 7754WAT      O23503   0.951   2.424   3.671
 7754WAT     H123504   0.918   2.416   3.765
 7754WAT     H223505   0.942   2.336   3.625
 7755WAT      O23506   6.469   3.025   6.472
 7755WAT     H123507   6.410   3.098   6.437
 7755WAT     H223508   6.417   2.969   6.536
 7756WAT      O23509   9.077   3.901   5.363
 7756WAT     H123510   9.101   3.855   5.448
 7756WAT     H223511   9.040   3.833   5.299
 7757WAT      O23512   6.191   7.558   5.164
 7757WAT     H123513   6.207   7.654   5.186
 7757WAT     H223514   6.250   7.532   5.087
 7758WAT      O23515   2.913   0.559   1.899
 7758WAT     H123516   2.995   0.515   1.934
 7758WAT     H223517   2.884   0.514   1.814
 7759WAT      O23518   1.499   5.465   5.549
 7759WAT     H123519   1.472   5.552   5.591
 7759WAT     H223520   1.586   5.477   5.502
 7760WAT      O23521   0.482   2.902   0.718
 7760WAT     H123522   0.421   2.910   0.639
 7760WAT     H223523   0.549   2.829   0.701
 7761WAT      O23524   8.750   7.314   6.218
 7761WAT     H123525   8.732   7.239   6.282
 7761WAT     H223526   8.759   7.400   6.269
 7762WAT      O23527   8.940   9.659   7.130
 7762WAT     H123528   8.860   9.608   7.163
 7762WAT     H223529   8.934   9.754   7.161
 7763WAT      O23530   5.402   3.488   8.618
 7763WAT     H123531   5.423   3.559   8.685
 7763WAT     H223532   5.313   3.448   8.639
 7764WAT      O23533   5.880   0.583   1.508
 7764WAT     H123534   5.955   0.540   1.558
 7764WAT     H223535   5.877   0.680   1.529
 7765WAT      O23536   7.864   6.961   2.844
 7765WAT     H123537   7.946   7.018   2.831
 7765WAT     H223538   7.805   6.968   2.763
 7766WAT      O23539   3.328   5.974   6.165
 7766WAT     H123540   3.237   6.014   6.154
 7766WAT     H223541   3.351   5.971   6.262
 7767WAT      O23542   9.790   9.600   4.943
 7767WAT     H123543   9.756   9.674   4.886
 7767WAT     H223544   9.865   9.633   5.000
 7768WAT      O23545   0.109   1.405   5.552
 7768WAT     H123546   0.053   1.462   5.611
 7768WAT     H223547   0.189   1.374   5.602
 7769WAT      O23548   3.837   3.122   0.848
 7769WAT     H123549   3.763   3.079   0.796
 7769WAT     H223550   3.803   3.148   0.938
 7770WAT      O23551   2.708   5.534   5.739
 7770WAT     H123552   2.679   5.503   5.830
 7770WAT     H223553   2.633   5.583   5.695
 7771WAT      O23554   8.491   8.460   5.352
 7771WAT     H123555   8.394   8.485   5.357
 7771WAT     H223556   8.542   8.535   5.310
 7772WAT      O23557   6.730   6.154   0.280
 7772WAT     H123558   6.750   6.212   0.358
 7772WAT     H223559   6.734   6.208   0.196
 7773WAT      O23560   3.177   9.143   0.625
 7773WAT     H123561   3.264   9.093   0.624
 7773WAT     H223562   3.110   9.090   0.678
 7774WAT      O23563   4.807   8.132   1.965
 7774WAT     H123564   4.768   8.105   1.877
 7774WAT     H223565   4.790   8.060   2.032
 7775WAT      O23566   7.162   0.773   3.681
 7775WAT     H123567   7.145   0.714   3.603
 7775WAT     H223568   7.258   0.799   3.683
 7776WAT      O23569   2.366   7.506   4.450
 7776WAT     H123570   2.436   7.576   4.440
 7776WAT     H223571   2.281   7.548   4.483
 7777WAT      O23572   1.681   2.969   5.302
 7777WAT     H123573   1.616   2.896   5.321
 7777WAT     H223574   1.697   3.021   5.386
 7778WAT      O23575   9.730   8.647   4.274
 7778WAT     H123576   9.704   8.648   4.178
 7778WAT     H223577   9.809   8.586   4.287
 7779WAT      O23578   8.548   6.039   8.909
 7779WAT     H123579   8.579   6.070   8.999
 7779WAT     H223580   8.467   6.091   8.882
 7780WAT      O23581   0.174   2.302   3.081
 7780WAT     H123582   0.232   2.334   3.156
 7780WAT     H223583   0.120   2.224   3.112
 7781WAT      O23584   4.076   5.066   8.032
 7781WAT     H123585   4.173   5.078   8.015
 7781WAT     H223586   4.032   5.026   7.952
 7782WAT      O23587   2.258   3.942   4.059
 7782WAT     H123588   2.259   4.040   4.079
 7782WAT     H223589   2.352   3.909   4.052
 7783WAT      O23590   3.849   2.403   5.640
 7783WAT     H123591   3.928   2.342   5.634
 7783WAT     H223592   3.844   2.459   5.558
 7784WAT      O23593   3.171   2.721   5.292
 7784WAT     H123594   3.172   2.629   5.253
 7784WAT     H223595   3.115   2.781   5.234
 7785WAT      O23596   2.141   1.139   7.050
 7785WAT     H123597   2.201   1.065   7.081
 7785WAT     H223598   2.099   1.183   7.130
 7786WAT      O23599   4.064   2.053   1.095
 7786WAT     H123600   3.971   2.089   1.101
 7786WAT     H223601   4.126   2.111   1.146
 7787WAT      O23602   0.151   7.689   1.656
 7787WAT     H123603   0.243   7.702   1.693
 7787WAT     H223604   0.145   7.732   1.566
 7788WAT      O23605   8.495   5.746   8.922
 7788WAT     H123606   8.531   5.834   8.953
 7788WAT     H223607   8.488   5.683   8.999
 7789WAT      O23608   2.309   1.406   2.167
 7789WAT     H123609   2.268   1.473   2.228
 7789WAT     H223610   2.288   1.430   2.072
 7790WAT      O23611   7.941   3.577   1.514
 7790WAT     H123612   7.881   3.559   1.592
 7790WAT     H223613   7.939   3.498   1.452
 7791WAT      O23614   9.350   1.135   8.483
 7791WAT     H123615   9.324   1.040   8.463
 7791WAT     H223616   9.271   1.183   8.522
 7792WAT      O23617   7.001   7.477   2.442
 7792WAT     H123618   6.964   7.464   2.350
 7792WAT     H223619   6.926   7.476   2.508
 7793WAT      O23620   9.571   8.337   4.992
 7793WAT     H123621   9.489   8.330   4.935
 7793WAT     H223622   9.645   8.381   4.939
 7794WAT      O23623   3.093   9.549   6.144
 7794WAT     H123624   3.081   9.587   6.236
 7794WAT     H223625   3.036   9.600   6.079
 7795WAT      O23626   7.542   0.867   0.981
 7795WAT     H123627   7.588   0.949   1.015
 7795WAT     H223628   7.501   0.887   0.892
 7796WAT      O23629   0.311   1.721   8.237
 7796WAT     H123630   0.286   1.668   8.156
 7796WAT     H223631   0.308   1.818   8.216
 7797WAT      O23632   8.231   2.268   9.774
 7797WAT     H123633   8.203   2.352   9.821
 7797WAT     H223634   8.231   2.284   9.675
 7798WAT      O23635   9.626   7.055   7.328
 7798WAT     H123636   9.639   6.956   7.338
 7798WAT     H223637   9.560   7.072   7.254
 7799WAT      O23638   7.818   8.261   0.691
 7799WAT     H123639   7.719   8.257   0.705
 7799WAT     H223640   7.840   8.340   0.632
 7800WAT      O23641   4.777   3.635   8.023
 7800WAT     H123642   4.795   3.593   7.933
 7800WAT     H223643   4.690   3.601   8.058
 7801WAT      O23644   2.544   8.888   6.602
 7801WAT     H123645   2.445   8.907   6.597
 7801WAT     H223646   2.565   8.806   6.549
 7802WAT      O23647   5.674   3.790   2.869
 7802WAT     H123648   5.663   3.889   2.863
 7802WAT     H223649   5.667   3.751   2.777
 7803WAT      O23650   2.505   9.443   2.890
 7803WAT     H123651   2.497   9.511   2.817
 7803WAT     H223652   2.423   9.446   2.947
 7804WAT      O23653   0.961   1.245   3.409
 7804WAT     H123654   0.979   1.149   3.431
 7804WAT     H223655   1.046   1.297   3.414
 7805WAT      O23656   3.097   7.601   6.656
 7805WAT     H123657   3.168   7.542   6.617
 7805WAT     H223658   3.089   7.684   6.601
 7806WAT      O23659   1.862   1.930   5.104
 7806WAT     H123660   1.858   1.830   5.098
 7806WAT     H223661   1.772   1.967   5.085
 7807WAT      O23662   5.939   6.484   0.270
 7807WAT     H123663   5.946   6.385   0.255
 7807WAT     H223664   5.993   6.532   0.201
 7808WAT      O23665   4.456   7.062   6.321
 7808WAT     H123666   4.385   7.013   6.372
 7808WAT     H223667   4.529   6.998   6.296
 7809WAT      O23668   2.453   5.026   7.168
 7809WAT     H123669   2.356   5.003   7.173
 7809WAT     H223670   2.492   4.990   7.083
 7810WAT      O23671   0.396   8.618   7.438
 7810WAT     H123672   0.403   8.693   7.373
 7810WAT     H223673   0.413   8.652   7.531
 7811WAT      O23674   6.617   4.433   8.339
 7811WAT     H123675   6.649   4.399   8.428
 7811WAT     H223676   6.679   4.402   8.267
 7812WAT      O23677   9.151   0.705   8.067
 7812WAT     H123678   9.137   0.767   7.989
 7812WAT     H223679   9.245   0.669   8.065
 7813WAT      O23680   4.924   4.524   6.458
 7813WAT     H123681   5.011   4.533   6.409
 7813WAT     H223682   4.857   4.586   6.417
 7814WAT      O23683   0.587   3.229   0.475
 7814WAT     H123684   0.626   3.138   0.495
 7814WAT     H223685   0.661   3.291   0.450
 7815WAT      O23686   8.465   8.448   7.802
 7815WAT     H123687   8.469   8.416   7.707
 7815WAT     H223688   8.502   8.541   7.807
 7816WAT      O23689   1.850   1.667   1.762
 7816WAT     H123690   1.815   1.692   1.671
 7816WAT     H223691   1.942   1.706   1.774
 7817WAT      O23692   4.022   0.989   7.942
 7817WAT     H123693   3.943   1.008   8.001
 7817WAT     H223694   3.991   0.941   7.859
 7818WAT      O23695   5.289   7.896   2.168
 7818WAT     H123696   5.237   7.977   2.140
 7818WAT     H223697   5.231   7.837   2.226
 7819WAT      O23698   8.474   3.239   4.663
 7819WAT     H123699   8.525   3.236   4.749
 7819WAT     H223700   8.376   3.234   4.681
 7820WAT      O23701   9.271   0.195   9.650
 7820WAT     H123702   9.371   0.191   9.638
 7820WAT     H223703   9.227   0.133   9.586
 7821WAT      O23704   8.537   5.410   9.720
 7821WAT     H123705   8.462   5.428   9.783
 7821WAT     H223706   8.601   5.487   9.721
 7822WAT      O23707   5.059   0.373   6.450
 7822WAT     H123708   5.138   0.408   6.500
 7822WAT     H223709   5.030   0.286   6.489
 7823WAT      O23710   1.129   5.505   1.749
 7823WAT     H123711   1.106   5.598   1.775
 7823WAT     H223712   1.052   5.444   1.771
 7824WAT      O23713   7.019   8.613   7.088
 7824WAT     H123714   7.023   8.701   7.135
 7824WAT     H223715   6.946   8.557   7.128
 7825WAT      O23716   8.157   5.786   1.032
 7825WAT     H123717   8.099   5.743   1.101
 7825WAT     H223718   8.221   5.849   1.076
 7826WAT      O23719   0.240   7.806   3.510
 7826WAT     H123720   0.252   7.805   3.411
 7826WAT     H223721   0.213   7.897   3.540
 7827WAT      O23722   2.021   7.626   1.765
 7827WAT     H123723   1.970   7.539   1.763
 7827WAT     H223724   2.099   7.620   1.704
 7828WAT      O23725   4.782   4.777   1.614
 7828WAT     H123726   4.780   4.853   1.549
 7828WAT     H223727   4.701   4.720   1.602
 7829WAT      O23728   4.590   9.786   1.203
 7829WAT     H123729   4.659   9.743   1.143
 7829WAT     H223730   4.593   9.743   1.293
 7830WAT      O23731   1.314   1.824   7.855
 7830WAT     H123732   1.279   1.816   7.762
 7830WAT     H223733   1.369   1.907   7.863
 7831WAT      O23734   3.491   3.012   1.477
 7831WAT     H123735   3.514   2.940   1.411
 7831WAT     H223736   3.549   3.002   1.558
 7832WAT      O23737   5.339   4.318   3.752
 7832WAT     H123738   5.439   4.310   3.750
 7832WAT     H223739   5.300   4.234   3.790
 7833WAT      O23740   3.235   3.426   0.226
 7833WAT     H123741   3.241   3.525   0.213
 7833WAT     H223742   3.326   3.390   0.247
 7834WAT      O23743   7.039   0.925   3.029
 7834WAT     H123744   7.128   0.902   2.989
 7834WAT     H223745   6.974   0.947   2.956
 7835WAT      O23746   7.759   3.861   4.133
 7835WAT     H123747   7.795   3.842   4.224
 7835WAT     H223748   7.660   3.872   4.138
 7836WAT      O23749   9.141   0.423   5.835
 7836WAT     H123750   9.143   0.450   5.739
 7836WAT     H223751   9.048   0.433   5.871
 7837WAT      O23752   6.566   5.259   6.650
 7837WAT     H123753   6.480   5.310   6.648
 7837WAT     H223754   6.643   5.323   6.637
 7838WAT      O23755   5.293   3.840   4.337
 7838WAT     H123756   5.238   3.766   4.298
 7838WAT     H223757   5.295   3.830   4.436
 7839WAT      O23758   4.781   3.220   5.617
 7839WAT     H123759   4.799   3.272   5.700
 7839WAT     H223760   4.687   3.233   5.588
 7840WAT      O23761   5.566   1.869   9.625
 7840WAT     H123762   5.640   1.935   9.640
 7840WAT     H223763   5.565   1.803   9.701
 7841WAT      O23764   6.058   6.362   3.545
 7841WAT     H123765   6.068   6.322   3.636
 7841WAT     H223766   6.124   6.437   3.534
 7842WAT      O23767   8.935   4.989   0.080
 7842WAT     H123768   8.938   4.906   0.135
 7842WAT     H223769   8.848   4.994   0.032
 7843WAT      O23770   9.656   8.182   2.797
 7843WAT     H123771   9.750   8.161   2.770
 7843WAT     H223772   9.645   8.163   2.895
 7844WAT      O23773   7.475   3.421   0.326
 7844WAT     H123774   7.453   3.360   0.249
 7844WAT     H223775   7.492   3.513   0.291
 7845WAT      O23776   8.449   5.809   4.865
 7845WAT     H123777   8.539   5.832   4.902
 7845WAT     H223778   8.412   5.888   4.816
 7846WAT      O23779   5.953   8.311   3.487
 7846WAT     H123780   5.871   8.364   3.509
 7846WAT     H223781   5.927   8.225   3.442
 7847WAT      O23782   8.972   8.975   4.721
 7847WAT     H123783   8.901   8.905   4.733
 7847WAT     H223784   9.018   8.962   4.634
 7848WAT      O23785   2.671   5.783   1.117
 7848WAT     H123786   2.670   5.793   1.216
 7848WAT     H223787   2.587   5.737   1.087
 7849WAT      O23788   6.857   4.400   7.856
 7849WAT     H123789   6.887   4.425   7.764
 7849WAT     H223790   6.875   4.303   7.871
 7850WAT      O23791   4.366   9.644   0.310
 7850WAT     H123792   4.452   9.658   0.359
 7850WAT     H223793   4.319   9.732   0.301
 7851WAT      O23794   6.992   4.778   2.758
 7851WAT     H123795   6.916   4.828   2.717
 7851WAT     H223796   7.006   4.692   2.709
 7852WAT      O23797   3.889   9.399   6.000
 7852WAT     H123798   3.954   9.391   6.075
 7852WAT     H223799   3.827   9.321   6.001
 7853WAT      O23800   9.811   3.513   5.693
 7853WAT     H123801   9.813   3.573   5.772
 7853WAT     H223802   9.879   3.542   5.626
 7854WAT      O23803   0.021   7.749   5.671
 7854WAT     H123804  -0.060   7.734   5.615
 7854WAT     H223805   0.103   7.719   5.621
 7855WAT      O23806   7.416   7.453   1.532
 7855WAT     H123807   7.406   7.430   1.628
 7855WAT     H223808   7.337   7.506   1.502
 7856WAT      O23809   1.442   6.619   8.831
 7856WAT     H123810   1.504   6.688   8.868
 7856WAT     H223811   1.378   6.662   8.768
 7857WAT      O23812   0.594   0.623   6.257
 7857WAT     H123813   0.654   0.600   6.334
 7857WAT     H223814   0.640   0.687   6.196
 7858WAT      O23815   5.783   3.088   8.173
 7858WAT     H123816   5.814   3.166   8.227
 7858WAT     H223817   5.718   3.034   8.227
 7859WAT      O23818   7.093   2.308   5.433
 7859WAT     H123819   7.061   2.227   5.482
 7859WAT     H223820   7.024   2.335   5.365
 7860WAT      O23821   0.869   0.466   8.321
 7860WAT     H123822   0.857   0.565   8.331
 7860WAT     H223823   0.832   0.436   8.233
 7861WAT      O23824   3.403   0.542   5.392
 7861WAT     H123825   3.342   0.621   5.400
 7861WAT     H223826   3.497   0.574   5.381
 7862WAT      O23827   9.618   6.105   9.450
 7862WAT     H123828   9.619   6.186   9.510
 7862WAT     H223829   9.688   6.041   9.479
 7863WAT      O23830   4.900   7.139   0.529
 7863WAT     H123831   4.908   7.127   0.430
 7863WAT     H223832   4.857   7.226   0.549
 7864WAT      O23833   5.962   6.584   8.355
 7864WAT     H123834   5.864   6.597   8.340
 7864WAT     H223835   5.978   6.556   8.450
 7865WAT      O23836   9.070   5.839   4.716
 7865WAT     H123837   8.976   5.828   4.749
 7865WAT     H223838   9.134   5.826   4.791
 7866WAT      O23839   3.519   6.010   4.610
 7866WAT     H123840   3.458   6.088   4.594
 7866WAT     H223841   3.610   6.030   4.574
 7867WAT      O23842   0.231   7.186   9.680
 7867WAT     H123843   0.221   7.109   9.618
 7867WAT     H223844   0.156   7.185   9.747
 7868WAT      O23845   3.876   6.198   2.317
 7868WAT     H123846   3.917   6.113   2.351
 7868WAT     H223847   3.820   6.178   2.237
 7869WAT      O23848   9.289   9.778   2.161
 7869WAT     H123849   9.267   9.749   2.068
 7869WAT     H223850   9.337   9.866   2.158
 7870WAT      O23851   5.007   4.367   8.677
 7870WAT     H123852   5.082   4.338   8.617
 7870WAT     H223853   5.040   4.369   8.771
 7871WAT      O23854   4.730   9.241   2.449
 7871WAT     H123855   4.801   9.190   2.499
 7871WAT     H223856   4.715   9.329   2.494
 7872WAT      O23857   8.687   6.561   2.235
 7872WAT     H123858   8.645   6.651   2.233
 7872WAT     H223859   8.696   6.527   2.141
 7873WAT      O23860   7.816   1.565   8.311
 7873WAT     H123861   7.792   1.659   8.332
 7873WAT     H223862   7.818   1.511   8.396
 7874WAT      O23863   1.687   7.135   2.792
 7874WAT     H123864   1.690   7.120   2.693
 7874WAT     H223865   1.780   7.149   2.827
 7875WAT      O23866   4.312   3.086   2.536
 7875WAT     H123867   4.332   3.002   2.486
 7875WAT     H223868   4.216   3.087   2.564
 7876WAT      O23869   6.625   9.339   5.792
 7876WAT     H123870   6.640   9.266   5.859
 7876WAT     H223871   6.585   9.300   5.709
 7877WAT      O23872   6.183   7.960   8.767
 7877WAT     H123873   6.282   7.965   8.779
 7877WAT     H223874   6.153   8.037   8.711
 7878WAT      O23875   2.473   6.931   8.262
 7878WAT     H123876   2.481   6.870   8.341
 7878WAT     H223877   2.378   6.932   8.231
 7879WAT      O23878   8.400   1.214   5.415
 7879WAT     H123879   8.344   1.188   5.493
 7879WAT     H223880   8.471   1.279   5.444
 7880WAT      O23881   1.411   1.499   3.369
 7880WAT     H123882   1.355   1.435   3.317
 7880WAT     H223883   1.508   1.475   3.358
 7881WAT      O23884   0.296   5.776   9.265
 7881WAT     H123885   0.256   5.866   9.251
 7881WAT     H223886   0.224   5.707   9.266
 7882WAT      O23887   7.742   2.690   5.883
 7882WAT     H123888   7.759   2.599   5.846
 7882WAT     H223889   7.826   2.743   5.883
 7883WAT      O23890   6.019   0.063   6.978
 7883WAT     H123891   6.041   0.043   6.882
 7883WAT     H223892   5.943   0.128   6.981
 7884WAT      O23893   7.639   9.235   6.138
 7884WAT     H123894   7.717   9.287   6.171
 7884WAT     H223895   7.634   9.240   6.039
 7885WAT      O23896   4.189   7.249   9.001
 7885WAT     H123897   4.227   7.168   9.045
 7885WAT     H223898   4.192   7.237   8.901
 7886WAT      O23899   6.621   9.522   7.173
 7886WAT     H123900   6.643   9.591   7.105
 7886WAT     H223901   6.543   9.468   7.142
 7887WAT      O23902   7.006   8.171   3.444
 7887WAT     H123903   6.917   8.212   3.467
 7887WAT     H223904   7.057   8.234   3.385
 7888WAT      O23905   9.106   8.705   8.181
 7888WAT     H123906   9.204   8.684   8.181
 7888WAT     H223907   9.090   8.791   8.132
 7889WAT      O23908   6.827   1.155   4.905
 7889WAT     H123909   6.888   1.235   4.908
 7889WAT     H223910   6.805   1.134   4.810
 7890WAT      O23911   2.115   1.855   8.013
 7890WAT     H123912   2.037   1.796   8.032
 7890WAT     H223913   2.198   1.799   8.009
 7891WAT      O23914   3.381   7.511   5.703
 7891WAT     H123915   3.289   7.481   5.680
 7891WAT     H223916   3.405   7.592   5.649
 7892WAT      O23917   0.533   7.738   2.096
 7892WAT     H123918   0.610   7.799   2.076
 7892WAT     H223919   0.566   7.643   2.100
 7893WAT      O23920   2.637   9.517   8.902
 7893WAT     H123921   2.669   9.591   8.963
 7893WAT     H223922   2.541   9.533   8.878
 7894WAT      O23923   6.280   0.229   4.986
 7894WAT     H123924   6.239   0.147   4.946
 7894WAT     H223925   6.300   0.295   4.914
 7895WAT      O23926   3.694   7.584   9.766
 7895WAT     H123927   3.787   7.550   9.778
 7895WAT     H223928   3.650   7.534   9.691
 7896WAT      O23929   0.109   6.977   7.907
 7896WAT     H123930   0.155   7.013   7.988
 7896WAT     H223931   0.112   6.877   7.909
 7897WAT      O23932   9.575   7.626   0.977
 7897WAT     H123933   9.520   7.675   0.909
 7897WAT     H223934   9.645   7.572   0.931
 7898WAT      O23935   7.486   6.166   3.356
 7898WAT     H123936   7.532   6.252   3.374
 7898WAT     H223937   7.393   6.185   3.322
 7899WAT      O23938   5.862   3.666   3.358
 7899WAT     H123939   5.787   3.637   3.417
 7899WAT     H223940   5.829   3.737   3.296
 7900WAT      O23941   3.793   1.045   8.068
 7900WAT     H123942   3.764   1.046   8.164
 7900WAT     H223943   3.714   1.061   8.009
 7901WAT      O23944   6.002   5.280   0.931
 7901WAT     H123945   6.024   5.333   1.012
 7901WAT     H223946   5.929   5.214   0.953
 7902WAT      O23947   3.346   6.677   7.870
 7902WAT     H123948   3.426   6.618   7.879
 7902WAT     H223949   3.268   6.635   7.917
 7903WAT      O23950   8.731   8.852   6.731
 7903WAT     H123951   8.675   8.771   6.746
 7903WAT     H223952   8.772   8.848   6.639
 7904WAT      O23953   8.915   2.059   5.813
 7904WAT     H123954   8.884   2.038   5.905
 7904WAT     H223955   8.941   2.156   5.808
 7905WAT      O23956   7.565   9.403   0.756
 7905WAT     H123957   7.618   9.428   0.837
 7905WAT     H223958   7.575   9.306   0.737
 7906WAT      O23959   8.268   6.550   3.921
 7906WAT     H123960   8.187   6.511   3.876
 7906WAT     H223961   8.306   6.623   3.864
 7907WAT      O23962   7.567   5.939   4.323
 7907WAT     H123963   7.574   6.000   4.403
 7907WAT     H223964   7.578   5.845   4.353
 7908WAT      O23965   9.753   9.223   2.628
 7908WAT     H123966   9.709   9.169   2.556
 7908WAT     H223967   9.749   9.320   2.604
 7909WAT      O23968   3.907   6.427   3.247
 7909WAT     H123969   3.921   6.517   3.206
 7909WAT     H223970   3.982   6.367   3.221
 7910WAT      O23971   0.581   1.581   2.070
 7910WAT     H123972   0.499   1.637   2.061
 7910WAT     H223973   0.561   1.487   2.041
 7911WAT      O23974   2.039   6.247   1.094
 7911WAT     H123975   2.000   6.165   1.052
 7911WAT     H223976   2.002   6.258   1.187
 7912WAT      O23977   2.515   7.794   5.526
 7912WAT     H123978   2.462   7.806   5.610
 7912WAT     H223979   2.599   7.744   5.547
 7913WAT      O23980   1.127   9.012   6.217
 7913WAT     H123981   1.153   9.108   6.226
 7913WAT     H223982   1.028   9.003   6.222
 7914WAT      O23983   1.732   7.544   8.199
 7914WAT     H123984   1.693   7.565   8.110
 7914WAT     H223985   1.789   7.462   8.193
 7915WAT      O23986   8.970   4.184   5.874
 7915WAT     H123987   9.068   4.195   5.891
 7915WAT     H223988   8.930   4.131   5.949
 7916WAT      O23989   6.189   1.039   6.301
 7916WAT     H123990   6.264   1.102   6.317
 7916WAT     H223991   6.144   1.062   6.214
 7917WAT      O23992   0.772   8.327   6.334
 7917WAT     H123993   0.790   8.254   6.269
 7917WAT     H223994   0.794   8.415   6.292
 7918WAT      O23995   8.471   3.343   5.426
 7918WAT     H123996   8.471   3.270   5.358
 7918WAT     H223997   8.485   3.431   5.381
 7919WAT      O23998   4.609   3.585   1.962
 7919WAT     H123999   4.672   3.508   1.948
 7919WAT     H224000   4.661   3.671   1.958
 7920WAT      O24001   4.111   6.184   0.819
 7920WAT     H124002   4.140   6.136   0.901
 7920WAT     H224003   4.021   6.224   0.834
 7921WAT      O24004   6.355   0.594   3.067
 7921WAT     H124005   6.440   0.543   3.081
 7921WAT     H224006   6.288   0.566   3.136
 7922WAT      O24007   9.581   0.565   7.469
 7922WAT     H124008   9.550   0.547   7.376
 7922WAT     H224009   9.516   0.624   7.515
 7923WAT      O24010   1.984   7.046   5.481
 7923WAT     H124011   2.065   7.087   5.439
 7923WAT     H224012   1.983   7.069   5.579
 7924WAT      O24013   1.157   5.168   1.418
 7924WAT     H124014   1.127   5.072   1.428
 7924WAT     H224015   1.080   5.228   1.438
 7925WAT      O24016   3.904   6.979   9.462
 7925WAT     H124017   4.003   6.967   9.469
 7925WAT     H224018   3.872   6.940   9.376
 7926WAT      O24019   0.526   8.669   4.446
 7926WAT     H124020   0.489   8.584   4.408
 7926WAT     H224021   0.611   8.692   4.399
 7927WAT      O24022   0.986   1.404   2.159
 7927WAT     H124023   1.036   1.404   2.072
 7927WAT     H224024   1.046   1.368   2.231
 7928WAT      O24025   1.858   8.094   6.609
 7928WAT     H124026   1.868   8.077   6.511
 7928WAT     H224027   1.946   8.077   6.654
 7929WAT      O24028   0.726   7.572   4.327
 7929WAT     H124029   0.626   7.573   4.329
 7929WAT     H224030   0.759   7.480   4.352
 7930WAT      O24031   1.135   7.270   4.479
 7930WAT     H124032   1.065   7.288   4.549
 7930WAT     H224033   1.221   7.248   4.524
 7931WAT      O24034   3.340   2.803   3.631
 7931WAT     H124035   3.368   2.757   3.546
 7931WAT     H224036   3.322   2.900   3.612
 7932WAT      O24037   5.360   8.012   9.838
 7932WAT     H124038   5.344   8.074   9.915
 7932WAT     H224039   5.325   8.053   9.754
 7933WAT      O24040   8.206   4.890   1.206
 7933WAT     H124041   8.217   4.801   1.249
 7933WAT     H224042   8.281   4.906   1.142
 7934WAT      O24043   9.158   3.403   3.125
 7934WAT     H124044   9.241   3.359   3.160
 7934WAT     H224045   9.165   3.502   3.137
 7935WAT      O24046   4.661   6.612   4.787
 7935WAT     H124047   4.713   6.596   4.703
 7935WAT     H224048   4.595   6.687   4.773
 7936WAT      O24049   0.484   7.264   8.066
 7936WAT     H124050   0.480   7.348   8.121
 7936WAT     H224051   0.578   7.232   8.060
 7937WAT      O24052   4.110   0.344   7.268
 7937WAT     H124053   4.109   0.330   7.169
 7937WAT     H224054   4.031   0.299   7.308
 7938WAT      O24055   4.166   1.761   0.706
 7938WAT     H124056   4.108   1.688   0.743
 7938WAT     H224057   4.142   1.848   0.749
 7939WAT      O24058   2.813   1.024   8.305
 7939WAT     H124059   2.872   1.081   8.363
 7939WAT     H224060   2.816   1.057   8.211
 7940WAT      O24061   0.561   5.951   2.687
 7940WAT     H124062   0.513   5.897   2.619
 7940WAT     H224063   0.567   5.899   2.772
 7941WAT      O24064   6.812   7.939   7.235
 7941WAT     H124065   6.808   8.000   7.314
 7941WAT     H224066   6.855   7.853   7.260
 7942WAT      O24067   3.724   2.825   4.441
 7942WAT     H124068   3.823   2.840   4.440
 7942WAT     H224069   3.678   2.904   4.482
 7943WAT      O24070   2.832   9.282   0.579
 7943WAT     H124071   2.882   9.331   0.509
 7943WAT     H224072   2.840   9.183   0.562
 7944WAT      O24073   7.036   8.442   1.204
 7944WAT     H124074   7.007   8.368   1.266
 7944WAT     H224075   6.964   8.511   1.198
 7945WAT      O24076   8.010   6.811   6.610
 7945WAT     H124077   7.915   6.805   6.640
 7945WAT     H224078   8.060   6.731   6.642
 7946WAT      O24079   5.038   9.632   4.515
 7946WAT     H124080   5.027   9.586   4.603
 7946WAT     H224081   5.136   9.636   4.493
 7947WAT      O24082   4.571   5.056   8.891
 7947WAT     H124083   4.671   5.049   8.891
 7947WAT     H224084   4.534   5.004   8.968
 7948WAT      O24085   8.569   6.731   4.765
 7948WAT     H124086   8.634   6.715   4.691
 7948WAT     H224087   8.536   6.825   4.761
 7949WAT      O24088   6.266   4.328   6.850
 7949WAT     H124089   6.268   4.266   6.929
 7949WAT     H224090   6.339   4.396   6.860
 7950WAT      O24091   9.022   8.897   6.429
 7950WAT     H124092   9.010   8.931   6.335
 7950WAT     H224093   9.079   8.961   6.480
 7951WAT      O24094   0.014   7.295   9.116
 7951WAT     H124095   0.101   7.339   9.093
 7951WAT     H224096  -0.022   7.248   9.035
 7952WAT      O24097   9.443   3.348   4.036
 7952WAT     H124098   9.514   3.313   4.097
 7952WAT     H224099   9.486   3.399   3.961
 7953WAT      O24100   4.298   0.716   6.789
 7953WAT     H124101   4.374   0.781   6.781
 7953WAT     H224102   4.323   0.644   6.854
 7954WAT      O24103   4.730   3.580   8.694
 7954WAT     H124104   4.720   3.670   8.650
 7954WAT     H224105   4.728   3.509   8.624
 7955WAT      O24106   1.568   8.828   0.662
 7955WAT     H124107   1.557   8.729   0.652
 7955WAT     H224108   1.493   8.863   0.719
 7956WAT      O24109   0.834   8.810   1.300
 7956WAT     H124110   0.736   8.820   1.319
 7956WAT     H224111   0.854   8.847   1.209
 7957WAT      O24112   6.322   5.532   9.471
 7957WAT     H124113   6.401   5.586   9.441
 7957WAT     H224114   6.241   5.561   9.421
 7958WAT      O24115   6.040   3.958   5.423
 7958WAT     H124116   5.964   4.010   5.462
 7958WAT     H224117   6.030   3.862   5.446
 7959WAT      O24118   3.633   8.441   8.576
 7959WAT     H124119   3.553   8.464   8.521
 7959WAT     H224120   3.637   8.342   8.588
 7960WAT      O24121   5.221   6.834   9.178
 7960WAT     H124122   5.158   6.875   9.113
 7960WAT     H224123   5.202   6.870   9.270
 7961WAT      O24124   3.920   2.009   3.407
 7961WAT     H124125   3.885   2.095   3.370
 7961WAT     H224126   3.984   2.027   3.481
 7962WAT      O24127   1.523   3.077   7.292
 7962WAT     H124128   1.482   2.987   7.306
 7962WAT     H224129   1.582   3.075   7.211
 7963WAT      O24130   1.737   0.957   6.077
 7963WAT     H124131   1.763   1.050   6.051
 7963WAT     H224132   1.730   0.900   5.994
 7964WAT      O24133   9.318   4.783   5.347
 7964WAT     H124134   9.287   4.847   5.277
 7964WAT     H224135   9.242   4.722   5.372
 7965WAT      O24136   8.511   4.425   2.394
 7965WAT     H124137   8.484   4.467   2.308
 7965WAT     H224138   8.498   4.326   2.388
 7966WAT      O24139   8.801   5.411   6.242
 7966WAT     H124140   8.846   5.469   6.174
 7966WAT     H224141   8.733   5.465   6.292
 7967WAT      O24142   3.784   8.926   0.410
 7967WAT     H124143   3.688   8.933   0.382
 7967WAT     H224144   3.790   8.932   0.509
 7968WAT      O24145   9.868   8.735   2.437
 7968WAT     H124146   9.789   8.762   2.382
 7968WAT     H224147   9.940   8.803   2.427
 7969WAT      O24148   5.752   9.368   1.938
 7969WAT     H124149   5.726   9.463   1.924
 7969WAT     H224150   5.787   9.329   1.853
 7970WAT      O24151   3.156   2.445   6.966
 7970WAT     H124152   3.113   2.517   7.020
 7970WAT     H224153   3.225   2.486   6.905
 7971WAT      O24154   3.680   2.313   0.450
 7971WAT     H124155   3.595   2.284   0.494
 7971WAT     H224156   3.733   2.369   0.513
 7972WAT      O24157   8.989   7.778   7.469
 7972WAT     H124158   8.969   7.704   7.405
 7972WAT     H224159   8.934   7.858   7.445
 7973WAT      O24160   7.040   8.708   2.067
 7973WAT     H124161   6.967   8.705   1.999
 7973WAT     H224162   7.003   8.741   2.154
 7974WAT      O24163   4.128   5.522   9.501
 7974WAT     H124164   4.166   5.614   9.500
 7974WAT     H224165   4.158   5.474   9.583
 7975WAT      O24166   6.787   7.132   2.783
 7975WAT     H124167   6.743   7.187   2.854
 7975WAT     H224168   6.719   7.073   2.740
 7976WAT      O24169   8.872   6.757   5.675
 7976WAT     H124170   8.914   6.788   5.760
 7976WAT     H224171   8.939   6.758   5.602
 7977WAT      O24172   8.806   2.195   9.506
 7977WAT     H124173   8.803   2.175   9.604
 7977WAT     H224174   8.857   2.124   9.459
 7978WAT      O24175   2.345   9.243   6.749
 7978WAT     H124176   2.338   9.187   6.831
 7978WAT     H224177   2.351   9.340   6.775
 7979WAT      O24178   0.668   1.285   1.019
 7979WAT     H124179   0.764   1.311   1.012
 7979WAT     H224180   0.625   1.290   0.929
 7980WAT      O24181   1.148   4.872   7.703
 7980WAT     H124182   1.077   4.836   7.643
 7980WAT     H224183   1.185   4.956   7.663
 7981WAT      O24184   8.751   2.642   9.065
 7981WAT     H124185   8.699   2.726   9.080
 7981WAT     H224186   8.694   2.576   9.016
 7982WAT      O24187   2.298   6.436   3.995
 7982WAT     H124188   2.233   6.496   4.042
 7982WAT     H224189   2.276   6.433   3.898
 7983WAT      O24190   5.106   4.623   7.972
 7983WAT     H124191   5.163   4.647   8.050
 7983WAT     H224192   5.068   4.531   7.986
 7984WAT      O24193   6.244   0.710   5.658
 7984WAT     H124194   6.165   0.747   5.608
 7984WAT     H224195   6.239   0.738   5.754
 7985WAT      O24196   1.895   6.719   8.311
 7985WAT     H124197   1.887   6.621   8.331
 7985WAT     H224198   1.973   6.733   8.250
 7986WAT      O24199   1.793   7.129   6.289
 7986WAT     H124200   1.820   7.068   6.215
 7986WAT     H224201   1.872   7.180   6.321
 7987WAT      O24202   2.504   1.481   7.431
 7987WAT     H124203   2.479   1.564   7.482
 7987WAT     H224204   2.584   1.501   7.374
 7988WAT      O24205   2.623   2.165   1.981
 7988WAT     H124206   2.626   2.116   2.068
 7988WAT     H224207   2.666   2.255   1.993
 7989WAT      O24208   1.667   3.459   8.971
 7989WAT     H124209   1.709   3.550   8.977
 7989WAT     H224210   1.687   3.419   8.882
 7990WAT      O24211   0.812   3.219   9.562
 7990WAT     H124212   0.846   3.304   9.602
 7990WAT     H224213   0.835   3.215   9.465
 7991WAT      O24214   1.659   6.189   3.989
 7991WAT     H124215   1.618   6.098   3.980
 7991WAT     H224216   1.602   6.255   3.940
 7992WAT      O24217   4.556   1.490   8.772
 7992WAT     H124218   4.587   1.434   8.849
 7992WAT     H224219   4.609   1.467   8.690
 7993WAT      O24220   2.830   6.516   0.324
 7993WAT     H124221   2.884   6.483   0.247
 7993WAT     H224222   2.879   6.498   0.410
 7994WAT      O24223   4.080   3.238   0.034
 7994WAT     H124224   4.154   3.177   0.006
 7994WAT     H224225   4.033   3.272  -0.047
 7995WAT      O24226   6.403   4.582   1.288
 7995WAT     H124227   6.434   4.527   1.211
 7995WAT     H224228   6.425   4.534   1.374
 7996WAT      O24229   5.617   7.410   0.178
 7996WAT     H124230   5.596   7.494   0.129
 7996WAT     H224231   5.677   7.353   0.123
 7997WAT      O24232   0.696   2.718   8.759
 7997WAT     H124233   0.633   2.757   8.691
 7997WAT     H224234   0.645   2.694   8.841
 7998WAT      O24235   3.330   1.603   1.826
 7998WAT     H124236   3.303   1.535   1.757
 7998WAT     H224237   3.390   1.559   1.894
 7999WAT      O24238   5.180   1.697   2.886
 7999WAT     H124239   5.225   1.759   2.950
 7999WAT     H224240   5.081   1.700   2.901
 8000WAT      O24241   1.331   0.756   1.097
 8000WAT     H124242   1.271   0.683   1.130
 8000WAT     H224243   1.387   0.789   1.173
 8001WAT      O24244   4.702   5.090   5.807
 8001WAT     H124245   4.624   5.045   5.851
 8001WAT     H224246   4.720   5.177   5.851
 8002WAT      O24247   7.460   3.477   4.708
 8002WAT     H124248   7.508   3.557   4.673
 8002WAT     H224249   7.400   3.504   4.784
 8003WAT      O24250   2.812   5.716   6.582
 8003WAT     H124251   2.719   5.681   6.569
 8003WAT     H224252   2.826   5.738   6.679
 8004WAT      O24253   6.872   6.415   8.831
 8004WAT     H124254   6.883   6.336   8.891
 8004WAT     H224255   6.859   6.497   8.888
 8005WAT      O24256   4.267   7.753   7.217
 8005WAT     H124257   4.290   7.748   7.120
 8005WAT     H224258   4.342   7.795   7.267
 8006WAT      O24259   8.721   3.167   0.381
 8006WAT     H124260   8.743   3.253   0.426
 8006WAT     H224261   8.653   3.183   0.310
 8007WAT      O24262   2.208   9.549   5.184
 8007WAT     H124263   2.179   9.462   5.223
 8007WAT     H224264   2.269   9.532   5.106
 8008WAT      O24265   0.098   1.179   0.207
 8008WAT     H124266   0.066   1.273   0.198
 8008WAT     H224267   0.135   1.147   0.120
 8009WAT      O24268   6.003   5.628   7.800
 8009WAT     H124269   6.009   5.580   7.712
 8009WAT     H224270   5.925   5.592   7.852
 8010WAT      O24271   8.622   3.976   1.005
 8010WAT     H124272   8.656   3.919   1.079
 8010WAT     H224273   8.698   4.006   0.947
 8011WAT      O24274   6.082   8.846   5.840
 8011WAT     H124275   6.148   8.919   5.826
 8011WAT     H224276   5.995   8.885   5.869
 8012WAT      O24277   1.064   5.096   4.774
 8012WAT     H124278   1.163   5.091   4.770
 8012WAT     H224279   1.029   5.022   4.832
 8013WAT      O24280   8.430   7.847   1.555
 8013WAT     H124281   8.362   7.826   1.625
 8013WAT     H224282   8.405   7.932   1.509
 8014WAT      O24283   6.720   4.000   9.557
 8014WAT     H124284   6.663   3.926   9.519
 8014WAT     H224285   6.661   4.074   9.590
 8015WAT      O24286   5.940   9.127   5.575
 8015WAT     H124287   5.935   9.221   5.539
 8015WAT     H224288   5.973   9.129   5.669
 8016WAT      O24289   6.781   4.185   2.752
 8016WAT     H124290   6.734   4.270   2.728
 8016WAT     H224291   6.879   4.195   2.732
 8017WAT      O24292   8.386   6.303   4.849
 8017WAT     H124293   8.425   6.225   4.899
 8017WAT     H224294   8.288   6.291   4.839
 8018WAT      O24295   0.119   1.930   6.670
 8018WAT     H124296   0.116   1.964   6.764
 8018WAT     H224297   0.127   2.007   6.607
 8019WAT      O24298   2.011   3.031   0.248
 8019WAT     H124299   1.957   2.970   0.306
 8019WAT     H224300   2.107   3.027   0.276
 8020WAT      O24301   9.155   6.308   1.471
 8020WAT     H124302   9.134   6.397   1.511
 8020WAT     H224303   9.118   6.303   1.379
 8021WAT      O24304   1.784   1.096   1.087
 8021WAT     H124305   1.703   1.139   1.045
 8021WAT     H224306   1.755   1.028   1.154
 8022WAT      O24307   5.620   1.557   3.541
 8022WAT     H124308   5.578   1.619   3.474
 8022WAT     H224309   5.675   1.488   3.492
 8023WAT      O24310   1.330   2.043   0.745
 8023WAT     H124311   1.237   2.028   0.781
 8023WAT     H224312   1.328   2.117   0.679
 8024WAT      O24313   7.421   7.462   3.826
 8024WAT     H124314   7.371   7.541   3.791
 8024WAT     H224315   7.519   7.478   3.819
 8025WAT      O24316   5.955   9.639   4.354
 8025WAT     H124317   5.951   9.542   4.327
 8025WAT     H224318   5.957   9.646   4.453
 8026WAT      O24319   4.900   5.127   8.142
 8026WAT     H124320   4.942   5.036   8.140
 8026WAT     H224321   4.827   5.131   8.073
 8027WAT      O24322   9.766   7.071   4.731
 8027WAT     H124323   9.776   7.044   4.826
 8027WAT     H224324   9.808   7.160   4.716
 8028WAT      O24325   9.762   4.414   5.571
 8028WAT     H124326   9.818   4.487   5.611
 8028WAT     H224327   9.673   4.450   5.545
 8029WAT      O24328   6.073   3.091   1.120
 8029WAT     H124329   6.060   3.122   1.214
 8029WAT     H224330   6.114   3.165   1.066
 8030WAT      O24331   1.623   0.355   1.578
 8030WAT     H124332   1.676   0.292   1.634
 8030WAT     H224333   1.607   0.313   1.488
 8031WAT      O24334   3.441   6.035   1.378
 8031WAT     H124335   3.516   6.041   1.312
 8031WAT     H224336   3.355   6.019   1.330
 8032WAT      O24337   4.683   4.272   1.953
 8032WAT     H124338   4.588   4.269   1.984
 8032WAT     H224339   4.711   4.182   1.921
 8033WAT      O24340   4.534   8.737   7.356
 8033WAT     H124341   4.469   8.689   7.414
 8033WAT     H224342   4.618   8.682   7.348
 8034WAT      O24343   5.698   5.313   1.128
 8034WAT     H124344   5.733   5.317   1.221
 8034WAT     H224345   5.724   5.226   1.086
 8035WAT      O24346   0.671   8.413   2.503
 8035WAT     H124347   0.575   8.434   2.517
 8035WAT     H224348   0.682   8.315   2.484
 8036WAT      O24349   5.123   8.737   6.248
 8036WAT     H124350   5.087   8.644   6.245
 8036WAT     H224351   5.073   8.790   6.317
 8037WAT      O24352   5.287   7.299   6.016
 8037WAT     H124353   5.314   7.204   6.002
 8037WAT     H224354   5.215   7.323   5.950
 8038WAT      O24355   4.056   6.402   2.328
 8038WAT     H124356   4.006   6.316   2.336
 8038WAT     H224357   4.032   6.447   2.242
 8039WAT      O24358   6.653   7.203   0.148
 8039WAT     H124359   6.681   7.191   0.052
 8039WAT     H224360   6.572   7.147   0.166
 8040WAT      O24361   7.684   6.947   7.824
 8040WAT     H124362   7.733   7.028   7.856
 8040WAT     H224363   7.604   6.932   7.880
 8041WAT      O24364   4.465   8.309   2.359
 8041WAT     H124365   4.439   8.212   2.355
 8041WAT     H224366   4.392   8.360   2.404
 8042WAT      O24367   1.366   9.725   2.054
 8042WAT     H124368   1.312   9.643   2.075
 8042WAT     H224369   1.305   9.799   2.025
 8043WAT      O24370   4.922   1.417   1.973
 8043WAT     H124371   4.925   1.484   2.047
 8043WAT     H224372   4.887   1.461   1.890
 8044WAT      O24373   6.158   9.015   0.741
 8044WAT     H124374   6.209   9.079   0.799
 8044WAT     H224375   6.155   9.050   0.647
 8045WAT      O24376   6.136   0.472   1.688
 8045WAT     H124377   6.093   0.513   1.768
 8045WAT     H224378   6.206   0.407   1.717
 8046WAT      O24379   3.104   8.989   6.529
 8046WAT     H124380   3.055   9.050   6.591
 8046WAT     H224381   3.171   9.041   6.477
 8047WAT      O24382   0.186   0.904   1.125
 8047WAT     H124383   0.235   0.846   1.190
 8047WAT     H224384   0.250   0.939   1.057
 8048WAT      O24385   6.942   0.585   6.492
 8048WAT     H124386   6.971   0.663   6.548
 8048WAT     H224387   6.856   0.549   6.528
 8049WAT      O24388   8.588   6.796   9.543
 8049WAT     H124389   8.550   6.797   9.450
 8049WAT     H224390   8.525   6.842   9.605
 8050WAT      O24391   5.832   2.065   3.049
 8050WAT     H124392   5.825   2.040   2.952
 8050WAT     H224393   5.918   2.115   3.063
 8051WAT      O24394   3.087   3.816   8.936
 8051WAT     H124395   3.056   3.764   8.857
 8051WAT     H224396   3.157   3.764   8.985
 8052WAT      O24397   6.186   8.371   3.980
 8052WAT     H124398   6.240   8.453   3.998
 8052WAT     H224399   6.103   8.397   3.931
 8053WAT      O24400   6.173   4.784   0.520
 8053WAT     H124401   6.078   4.755   0.522
 8053WAT     H224402   6.228   4.717   0.470
 8054WAT      O24403   1.569   3.029   7.752
 8054WAT     H124404   1.609   3.057   7.839
 8054WAT     H224405   1.624   3.067   7.677
 8055WAT      O24406   3.111   6.309   2.003
 8055WAT     H124407   3.097   6.302   1.904
 8055WAT     H224408   3.040   6.257   2.050
 8056WAT      O24409   3.576   9.326   2.574
 8056WAT     H124410   3.492   9.361   2.616
 8056WAT     H224411   3.588   9.368   2.484
 8057WAT      O24412   5.344   5.741   9.781
 8057WAT     H124413   5.407   5.697   9.716
 8057WAT     H224414   5.366   5.711   9.874
 8058WAT      O24415   7.687   4.566   6.142
 8058WAT     H124416   7.642   4.578   6.230
 8058WAT     H224417   7.732   4.476   6.140
 8059WAT      O24418   4.387   8.622   2.432
 8059WAT     H124419   4.360   8.618   2.336
 8059WAT     H224420   4.346   8.545   2.481
 8060WAT      O24421   3.094   9.551   9.434
 8060WAT     H124422   3.059   9.471   9.385
 8060WAT     H224423   3.190   9.566   9.410
 8061WAT      O24424   9.721   5.966   0.099
 8061WAT     H124425   9.778   5.895   0.140
 8061WAT     H224426   9.627   5.931   0.089
 8062WAT      O24427   1.229   6.325   9.813
 8062WAT     H124428   1.326   6.309   9.795
 8062WAT     H224429   1.180   6.333   9.727
 8063WAT      O24430   5.053   1.187   7.445
 8063WAT     H124431   4.954   1.178   7.443
 8063WAT     H224432   5.093   1.135   7.369
 8064WAT      O24433   7.915   7.144   4.895
 8064WAT     H124434   7.911   7.237   4.931
 8064WAT     H224435   7.887   7.144   4.799
 8065WAT      O24436   6.228   8.584   6.517
 8065WAT     H124437   6.156   8.645   6.485
 8065WAT     H224438   6.299   8.636   6.564
 8066WAT      O24439   2.182   5.142   7.970
 8066WAT     H124440   2.102   5.089   7.998
 8066WAT     H224441   2.162   5.240   7.979
 8067WAT      O24442   5.633   8.484   4.905
 8067WAT     H124443   5.651   8.528   4.993
 8067WAT     H224444   5.576   8.403   4.920
 8068WAT      O24445   4.084   2.487   2.364
 8068WAT     H124446   4.022   2.521   2.294
 8068WAT     H224447   4.157   2.433   2.321
 8069WAT      O24448   7.320   7.632   3.414
 8069WAT     H124449   7.286   7.588   3.331
 8069WAT     H224450   7.387   7.702   3.391
 8070WAT      O24451   9.623   6.426   0.063
 8070WAT     H124452   9.654   6.355   0.126
 8070WAT     H224453   9.700   6.483   0.035
 8071WAT      O24454   0.811   2.163   0.546
 8071WAT     H124455   0.739   2.125   0.488
 8071WAT     H224456   0.897   2.167   0.495
 8072WAT      O24457   6.736   4.137   5.628
 8072WAT     H124458   6.749   4.237   5.633
 8072WAT     H224459   6.791   4.100   5.553
 8073WAT      O24460   6.277   4.459   7.250
 8073WAT     H124461   6.346   4.386   7.257
 8073WAT     H224462   6.306   4.526   7.182
 8074WAT      O24463   7.844   8.911   7.855
 8074WAT     H124464   7.786   8.982   7.815
 8074WAT     H224465   7.788   8.831   7.876
 8075WAT      O24466   3.862   8.512   4.821
 8075WAT     H124467   3.834   8.590   4.878
 8075WAT     H224468   3.786   8.449   4.811
 8076WAT      O24469   5.654   3.899   3.450
 8076WAT     H124470   5.675   3.881   3.355
 8076WAT     H224471   5.607   3.819   3.489
 8077WAT      O24472   8.891   6.144   1.181
 8077WAT     H124473   8.809   6.162   1.126
 8077WAT     H224474   8.864   6.124   1.275
 8078WAT      O24475   9.645   8.051   5.000
 8078WAT     H124476   9.733   8.038   5.047
 8078WAT     H224477   9.622   8.148   5.001
 8079WAT      O24478   9.534   8.566   1.037
 8079WAT     H124479   9.517   8.498   1.108
 8079WAT     H224480   9.448   8.608   1.009
 8080WAT      O24481   8.334   2.602   8.204
 8080WAT     H124482   8.381   2.556   8.129
 8080WAT     H224483   8.237   2.613   8.181
 8081WAT      O24484   1.301   0.169   0.369
 8081WAT     H124485   1.203   0.170   0.347
 8081WAT     H224486   1.352   0.128   0.293
 8082WAT      O24487   0.261   2.015   3.448
 8082WAT     H124488   0.358   2.021   3.471
 8082WAT     H224489   0.208   2.070   3.512
 8083WAT      O24490   3.214   2.853   8.268
 8083WAT     H124491   3.183   2.900   8.185
 8083WAT     H224492   3.135   2.823   8.321
 8084WAT      O24493   2.154   4.136   9.376
 8084WAT     H124494   2.217   4.169   9.447
 8084WAT     H224495   2.168   4.038   9.362
 8085WAT      O24496   0.545   8.654   7.049
 8085WAT     H124497   0.604   8.673   7.127
 8085WAT     H224498   0.578   8.573   7.001
 8086WAT      O24499   9.237   0.307   1.627
 8086WAT     H124500   9.205   0.212   1.630
 8086WAT     H224501   9.243   0.337   1.532
 8087WAT      O24502   9.044   4.997   2.969
 8087WAT     H124503   9.084   5.063   2.905
 8087WAT     H224504   8.945   4.993   2.955
 8088WAT      O24505   1.554   3.586   3.086
 8088WAT     H124506   1.498   3.651   3.035
 8088WAT     H224507   1.651   3.609   3.074
 8089WAT      O24508   5.117   3.933   7.693
 8089WAT     H124509   5.140   3.852   7.747
 8089WAT     H224510   5.064   3.997   7.750
 8090WAT      O24511   0.945   9.835   1.583
 8090WAT     H124512   0.856   9.791   1.586
 8090WAT     H224513   0.967   9.861   1.489
 8091WAT      O24514   9.128   7.988   1.778
 8091WAT     H124515   9.128   8.063   1.844
 8091WAT     H224516   9.215   7.988   1.728
 8092WAT      O24517   9.449   6.034   8.889
 8092WAT     H124518   9.478   5.943   8.918
 8092WAT     H224519   9.529   6.094   8.881
 8093WAT      O24520   3.667   2.308   0.983
 8093WAT     H124521   3.622   2.227   1.021
 8093WAT     H224522   3.756   2.320   1.028
 8094WAT      O24523   1.454   5.900   5.008
 8094WAT     H124524   1.530   5.883   4.945
 8094WAT     H224525   1.483   5.878   5.102
 8095WAT      O24526   9.543   0.400   5.667
 8095WAT     H124527   9.597   0.318   5.687
 8095WAT     H224528   9.600   0.467   5.619
 8096WAT      O24529   8.387   1.945   9.401
 8096WAT     H124530   8.431   1.941   9.312
 8096WAT     H224531   8.288   1.936   9.390
 8097WAT      O24532   5.945   0.318   6.365
 8097WAT     H124533   6.023   0.271   6.406
 8097WAT     H224534   5.895   0.256   6.306
 8098WAT      O24535   3.486   2.905   6.712
 8098WAT     H124536   3.533   2.818   6.727
 8098WAT     H224537   3.545   2.966   6.659
 8099WAT      O24538   5.600   0.490   9.076
 8099WAT     H124539   5.613   0.464   9.172
 8099WAT     H224540   5.665   0.562   9.052
 8100WAT      O24541   0.768   1.552   4.409
 8100WAT     H124542   0.691   1.533   4.470
 8100WAT     H224543   0.734   1.573   4.317
 8101WAT      O24544   7.340   8.813   8.751
 8101WAT     H124545   7.413   8.817   8.820
 8101WAT     H224546   7.381   8.811   8.660
 8102WAT      O24547   7.382   3.116   9.196
 8102WAT     H124548   7.400   3.072   9.108
 8102WAT     H224549   7.408   3.054   9.270
 8103WAT      O24550   7.473   5.025   1.936
 8103WAT     H124551   7.533   4.955   1.898
 8103WAT     H224552   7.409   4.984   2.001
 8104WAT      O24553   3.740   6.563   5.135
 8104WAT     H124554   3.773   6.484   5.186
 8104WAT     H224555   3.754   6.646   5.189
 8105WAT      O24556   5.108   1.648   9.847
 8105WAT     H124557   5.153   1.559   9.848
 8105WAT     H224558   5.076   1.671   9.939
 8106WAT      O24559   0.941   4.175   0.141
 8106WAT     H124560   0.859   4.141   0.095
 8106WAT     H224561   0.983   4.101   0.194
 8107WAT      O24562   1.291   8.211   3.951
 8107WAT     H124563   1.243   8.124   3.959
 8107WAT     H224564   1.245   8.279   4.008
 8108WAT      O24565   3.947   1.064   0.836
 8108WAT     H124566   3.930   1.026   0.745
 8108WAT     H224567   3.938   0.992   0.905
 8109WAT      O24568   6.269   2.117   3.872
 8109WAT     H124569   6.249   2.070   3.958
 8109WAT     H224570   6.365   2.146   3.871
 8110WAT      O24571   1.038   8.595   2.560
 8110WAT     H124572   1.096   8.669   2.526
 8110WAT     H224573   1.096   8.518   2.588
 8111WAT      O24574   9.214   8.098   6.299
 8111WAT     H124575   9.245   8.032   6.367
 8111WAT     H224576   9.266   8.086   6.214
 8112WAT      O24577   4.612   3.453   4.225
 8112WAT     H124578   4.639   3.448   4.129
 8112WAT     H224579   4.523   3.498   4.233
 8113WAT      O24580   7.990   7.617   7.194
 8113WAT     H124581   7.911   7.652   7.245
 8113WAT     H224582   8.060   7.688   7.187
 8114WAT      O24583   2.507   5.595   7.453
 8114WAT     H124584   2.602   5.566   7.446
 8114WAT     H224585   2.491   5.673   7.392
 8115WAT      O24586   8.938   4.004   9.232
 8115WAT     H124587   8.951   3.979   9.136
 8115WAT     H224588   8.911   3.923   9.284
 8116WAT      O24589   6.004   5.835   6.958
 8116WAT     H124590   5.924   5.795   6.913
 8116WAT     H224591   6.005   5.933   6.942
 8117WAT      O24592   9.718   9.306   6.314
 8117WAT     H124593   9.812   9.276   6.300
 8117WAT     H224594   9.686   9.274   6.403
 8118WAT      O24595   0.840   7.287   9.865
 8118WAT     H124596   0.749   7.282   9.908
 8118WAT     H224597   0.840   7.359   9.796
 8119WAT      O24598   1.280   7.418   3.785
 8119WAT     H124599   1.332   7.498   3.755
 8119WAT     H224600   1.253   7.429   3.880
 8120WAT      O24601   9.139   0.806   6.493
 8120WAT     H124602   9.083   0.771   6.418
 8120WAT     H224603   9.197   0.880   6.459
 8121WAT      O24604   1.654   9.437   0.414
 8121WAT     H124605   1.569   9.478   0.381
 8121WAT     H224606   1.654   9.436   0.514
 8122WAT      O24607   3.848   6.810   5.311
 8122WAT     H124608   3.881   6.772   5.398
 8122WAT     H224609   3.807   6.899   5.327
 8123WAT      O24610   6.541   2.475   5.552
 8123WAT     H124611   6.524   2.573   5.565
 8123WAT     H224612   6.607   2.443   5.619
 8124WAT      O24613   6.929   1.287   9.494
 8124WAT     H124614   6.877   1.228   9.557
 8124WAT     H224615   6.893   1.380   9.498
 8125WAT      O24616   1.238   0.209   7.757
 8125WAT     H124617   1.280   0.154   7.685
 8125WAT     H224618   1.252   0.164   7.846
 8126WAT      O24619   7.385   8.523   8.849
 8126WAT     H124620   7.395   8.601   8.911
 8126WAT     H224621   7.291   8.489   8.854
 8127WAT      O24622   1.064   5.109   7.395
 8127WAT     H124623   0.964   5.108   7.398
 8127WAT     H224624   1.100   5.133   7.485
 8128WAT      O24625   6.479   4.099   0.581
 8128WAT     H124626   6.480   4.085   0.680
 8128WAT     H224627   6.532   4.181   0.558
 8129WAT      O24628   2.529   5.727   9.193
 8129WAT     H124629   2.565   5.692   9.107
 8129WAT     H224630   2.604   5.738   9.259
 8130WAT      O24631   0.352   5.302   0.414
 8130WAT     H124632   0.375   5.206   0.399
 8130WAT     H224633   0.334   5.317   0.511
 8131WAT      O24634   2.293   6.684   1.510
 8131WAT     H124635   2.383   6.641   1.518
 8131WAT     H224636   2.283   6.723   1.419
 8132WAT      O24637   2.857   6.257   7.869
 8132WAT     H124638   2.787   6.233   7.936
 8132WAT     H224639   2.941   6.208   7.889
 8133WAT      O24640   2.637   3.430   1.257
 8133WAT     H124641   2.555   3.400   1.210
 8133WAT     H224642   2.653   3.527   1.239
 8134WAT      O24643   1.974   9.799   3.774
 8134WAT     H124644   1.886   9.821   3.732
 8134WAT     H224645   1.997   9.867   3.843
 8135WAT      O24646   6.130   1.982   0.712
 8135WAT     H124647   6.030   1.987   0.708
 8135WAT     H224648   6.158   1.894   0.751
 8136WAT      O24649   9.405   5.544   4.213
 8136WAT     H124650   9.444   5.625   4.169
 8136WAT     H224651   9.309   5.560   4.234
 8137WAT      O24652   4.949   7.093   6.508
 8137WAT     H124653   4.946   6.997   6.536
 8137WAT     H224654   5.009   7.103   6.429
 8138WAT      O24655   5.702   2.646   2.975
 8138WAT     H124656   5.722   2.549   2.979
 8138WAT     H224657   5.623   2.661   2.915
 8139WAT      O24658   8.552   5.321   6.684
 8139WAT     H124659   8.507   5.400   6.725
 8139WAT     H224660   8.620   5.352   6.617
 8140WAT      O24661   5.462   8.763   3.654
 8140WAT     H124662   5.462   8.849   3.704
 8140WAT     H224663   5.423   8.777   3.563
 8141WAT      O24664   6.549   3.472   7.461
 8141WAT     H124665   6.606   3.519   7.395
 8141WAT     H224666   6.479   3.534   7.496
 8142WAT      O24667   2.838   2.844   5.781
 8142WAT     H124668   2.925   2.796   5.771
 8142WAT     H224669   2.818   2.858   5.878
 8143WAT      O24670   7.501   3.127   9.587
 8143WAT     H124671   7.482   3.225   9.587
 8143WAT     H224672   7.491   3.091   9.680
 8144WAT      O24673   4.917   4.286   0.569
 8144WAT     H124674   4.922   4.260   0.666
 8144WAT     H224675   5.005   4.269   0.526
 8145WAT      O24676   7.205   5.620   6.039
 8145WAT     H124677   7.263   5.701   6.047
 8145WAT     H224678   7.184   5.585   6.130
 8146WAT      O24679   2.689   4.605   8.926
 8146WAT     H124680   2.609   4.566   8.880
 8146WAT     H224681   2.693   4.571   9.020
 8147WAT      O24682   6.445   1.793   4.365
 8147WAT     H124683   6.507   1.756   4.434
 8147WAT     H224684   6.350   1.780   4.395
 8148WAT      O24685   7.046   9.673   8.316
 8148WAT     H124686   6.999   9.617   8.247
 8148WAT     H224687   7.133   9.705   8.279
 8149WAT      O24688   5.362   6.805   8.918
 8149WAT     H124689   5.341   6.837   9.010
 8149WAT     H224690   5.282   6.759   8.879
 8150WAT      O24691   1.836   9.472   4.402
 8150WAT     H124692   1.911   9.448   4.339
 8150WAT     H224693   1.870   9.470   4.496
 8151WAT      O24694   9.545   5.799   8.978
 8151WAT     H124695   9.587   5.712   8.951
 8151WAT     H224696   9.524   5.797   9.076
 8152WAT      O24697   0.049   2.405   1.956
 8152WAT     H124698   0.074   2.490   2.001
 8152WAT     H224699  -0.021   2.422   1.887
 8153WAT      O24700   0.999   9.070   1.806
 8153WAT     H124701   0.916   9.123   1.822
 8153WAT     H224702   1.027   9.026   1.891
 8154WAT      O24703   9.761   9.130   0.094
 8154WAT     H124704   9.764   9.043   0.143
 8154WAT     H224705   9.813   9.199   0.145
 8155WAT      O24706   7.359   1.787   4.427
 8155WAT     H124707   7.292   1.856   4.454
 8155WAT     H224708   7.313   1.713   4.378
 8156WAT      O24709   8.450   3.399   9.846
 8156WAT     H124710   8.470   3.470   9.914
 8156WAT     H224711   8.392   3.436   9.774
 8157WAT      O24712   6.210   9.771   3.780
 8157WAT     H124713   6.122   9.818   3.781
 8157WAT     H224714   6.282   9.835   3.752
 8158WAT      O24715   9.389   6.650   7.633
 8158WAT     H124716   9.462   6.582   7.632
 8158WAT     H224717   9.426   6.739   7.661
 8159WAT      O24718   7.006   4.868   6.345
 8159WAT     H124719   6.979   4.788   6.398
 8159WAT     H224720   6.938   4.940   6.356
 8160WAT      O24721   3.107   0.608   9.035
 8160WAT     H124722   3.157   0.522   9.025
 8160WAT     H224723   3.010   0.593   9.015
 8161WAT      O24724   1.122   5.070   3.135
 8161WAT     H124725   1.034   5.112   3.158
 8161WAT     H224726   1.139   5.080   3.037
 8162WAT      O24727   7.722   0.087   6.697
 8162WAT     H124728   7.681   0.163   6.646
 8162WAT     H224729   7.821   0.088   6.683
 8163WAT      O24730   7.510   0.408   3.012
 8163WAT     H124731   7.413   0.429   3.009
 8163WAT     H224732   7.543   0.416   3.107
 8164WAT      O24733   5.003   2.923   4.253
 8164WAT     H124734   4.907   2.935   4.230
 8164WAT     H224735   5.012   2.912   4.352
 8165WAT      O24736   7.643   5.319   5.802
 8165WAT     H124737   7.625   5.270   5.888
 8165WAT     H224738   7.583   5.398   5.795
 8166WAT      O24739   0.703   1.160   5.174
 8166WAT     H124740   0.664   1.251   5.169
 8166WAT     H224741   0.768   1.147   5.099
 8167WAT      O24742   2.870   5.083   0.797
 8167WAT     H124743   2.913   5.130   0.874
 8167WAT     H224744   2.881   4.984   0.807
 8168WAT      O24745   6.547   3.413   6.635
 8168WAT     H124746   6.460   3.381   6.598
 8168WAT     H224747   6.533   3.501   6.682
 8169WAT      O24748   7.927   2.741   0.050
 8169WAT     H124749   7.874   2.682   0.111
 8169WAT     H224750   7.937   2.832   0.091
 8170WAT      O24751   6.589   8.186   9.485
 8170WAT     H124752   6.563   8.107   9.540
 8170WAT     H224753   6.616   8.156   9.394
 8171WAT      O24754   6.728   6.093   6.081
 8171WAT     H124755   6.748   6.002   6.044
 8171WAT     H224756   6.631   6.113   6.069
 8172WAT      O24757   8.331   8.503   3.604
 8172WAT     H124758   8.351   8.463   3.694
 8172WAT     H224759   8.391   8.463   3.536
 8173WAT      O24760   6.283   2.433   8.442
 8173WAT     H124761   6.337   2.365   8.393
 8173WAT     H224762   6.274   2.406   8.538
 8174WAT      O24763   6.633   6.924   8.669
 8174WAT     H124764   6.669   6.839   8.632
 8174WAT     H224765   6.604   6.909   8.764
 8175WAT      O24766   8.934   4.478   6.726
 8175WAT     H124767   8.927   4.573   6.757
 8175WAT     H224768   9.006   4.472   6.656
 8176WAT      O24769   4.194   3.057   5.382
 8176WAT     H124770   4.282   3.022   5.416
 8176WAT     H224771   4.156   3.120   5.450
 8177WAT      O24772   0.278   2.963   9.041
 8177WAT     H124773   0.357   3.000   8.992
 8177WAT     H224774   0.309   2.898   9.110
 8178WAT      O24775   5.218   9.453   0.362
 8178WAT     H124776   5.200   9.454   0.264
 8178WAT     H224777   5.131   9.462   0.411
 8179WAT      O24778   4.309   4.746   4.756
 8179WAT     H124779   4.359   4.828   4.730
 8179WAT     H224780   4.372   4.680   4.798
 8180WAT      O24781   1.246   2.909   0.797
 8180WAT     H124782   1.194   2.994   0.784
 8180WAT     H224783   1.232   2.875   0.890
 8181WAT      O24784   9.020   0.428   7.896
 8181WAT     H124785   9.114   0.449   7.924
 8181WAT     H224786   9.001   0.331   7.913
 8182WAT      O24787   4.445   4.390   6.438
 8182WAT     H124788   4.372   4.325   6.419
 8182WAT     H224789   4.527   4.341   6.467
 8183WAT      O24790   7.181   3.050   1.779
 8183WAT     H124791   7.119   3.001   1.718
 8183WAT     H224792   7.259   3.085   1.727
 8184WAT      O24793   5.769   5.745   6.246
 8184WAT     H124794   5.739   5.688   6.170
 8184WAT     H224795   5.698   5.746   6.317
 8185WAT      O24796   9.407   3.890   7.690
 8185WAT     H124797   9.481   3.957   7.705
 8185WAT     H224798   9.407   3.824   7.765
 8186WAT      O24799   3.099   0.749   1.584
 8186WAT     H124800   3.059   0.745   1.675
 8186WAT     H224801   3.052   0.819   1.530
 8187WAT      O24802   2.755   7.885   5.154
 8187WAT     H124803   2.705   7.921   5.075
 8187WAT     H224804   2.710   7.802   5.186
 8188WAT      O24805   8.682   0.524   1.183
 8188WAT     H124806   8.695   0.577   1.099
 8188WAT     H224807   8.722   0.573   1.260
 8189WAT      O24808   8.283   3.061   2.088
 8189WAT     H124809   8.264   2.983   2.028
 8189WAT     H224810   8.310   3.027   2.179
 8190WAT      O24811   3.663   1.990   5.242
 8190WAT     H124812   3.586   1.957   5.296
 8190WAT     H224813   3.639   1.988   5.145
 8191WAT      O24814   8.619   9.066   5.951
 8191WAT     H124815   8.585   8.977   5.921
 8191WAT     H224816   8.542   9.130   5.959
 8192WAT      O24817   1.269   3.176   3.037
 8192WAT     H124818   1.252   3.269   3.006
 8192WAT     H224819   1.345   3.137   2.984
 8193WAT      O24820   1.429   1.612   7.307
 8193WAT     H124821   1.464   1.623   7.214
 8193WAT     H224822   1.331   1.630   7.308
 8194WAT      O24823   2.387   3.072   1.054
 8194WAT     H124824   2.445   3.008   1.104
 8194WAT     H224825   2.360   3.030   0.967
 8195WAT      O24826   2.860   3.168   7.775
 8195WAT     H124827   2.956   3.187   7.752
 8195WAT     H224828   2.801   3.210   7.706
 8196WAT      O24829   6.952   1.557   3.454
 8196WAT     H124830   6.989   1.647   3.478
 8196WAT     H224831   7.027   1.491   3.446
 8197WAT      O24832   8.178   2.155   3.646
 8197WAT     H124833   8.130   2.137   3.732
 8197WAT     H224834   8.262   2.204   3.665
 8198WAT      O24835   9.224   5.456   0.409
 8198WAT     H124836   9.234   5.451   0.310
 8198WAT     H224837   9.128   5.468   0.433
 8199WAT      O24838   4.270   5.004   3.323
 8199WAT     H124839   4.265   4.905   3.319
 8199WAT     H224840   4.177   5.042   3.323
 8200WAT      O24841   4.524   8.169   6.351
 8200WAT     H124842   4.556   8.140   6.261
 8200WAT     H224843   4.426   8.150   6.358
 8201WAT      O24844   4.674   9.717   0.102
 8201WAT     H124845   4.704   9.811   0.115
 8201WAT     H224846   4.750   9.654   0.118
 8202WAT      O24847   8.956   6.537   2.318
 8202WAT     H124848   8.858   6.538   2.294
 8202WAT     H224849   8.989   6.631   2.327
 8203WAT      O24850   1.615   7.719   1.374
 8203WAT     H124851   1.533   7.746   1.323
 8203WAT     H224852   1.595   7.636   1.425
 8204WAT      O24853   9.835   2.264   8.834
 8204WAT     H124854   9.846   2.262   8.735
 8204WAT     H224855   9.771   2.193   8.862
 8205WAT      O24856   1.562   0.730   8.909
 8205WAT     H124857   1.630   0.783   8.857
 8205WAT     H224858   1.596   0.637   8.922
 8206WAT      O24859   2.992   1.880   4.413
 8206WAT     H124860   2.898   1.854   4.436
 8206WAT     H224861   3.001   1.980   4.419
 8207WAT      O24862   4.316   5.515   9.086
 8207WAT     H124863   4.252   5.530   9.161
 8207WAT     H224864   4.275   5.454   9.018
 8208WAT      O24865   1.723   0.183   3.155
 8208WAT     H124866   1.646   0.212   3.098
 8208WAT     H224867   1.733   0.247   3.232
 8209WAT      O24868   3.203   7.616   7.200
 8209WAT     H124869   3.220   7.570   7.287
 8209WAT     H224870   3.135   7.565   7.148
 8210WAT      O24871   8.112   1.140   4.923
 8210WAT     H124872   8.188   1.075   4.926
 8210WAT     H224873   8.092   1.172   5.016
 8211WAT      O24874   3.530   1.971   2.297
 8211WAT     H124875   3.523   1.892   2.236
 8211WAT     H224876   3.471   1.956   2.377
 8212WAT      O24877   0.974   0.466   3.271
 8212WAT     H124878   0.887   0.483   3.226
 8212WAT     H224879   0.980   0.369   3.296
 8213WAT      O24880   0.111   2.391   7.681
 8213WAT     H124881   0.118   2.355   7.773
 8213WAT     H224882   0.134   2.489   7.682
 8214WAT      O24883   5.488   8.832   1.042
 8214WAT     H124884   5.421   8.889   0.994
 8214WAT     H224885   5.526   8.765   0.979
 8215WAT      O24886   1.870   6.125   9.717
 8215WAT     H124887   1.804   6.051   9.720
 8215WAT     H224888   1.826   6.208   9.682
 8216WAT      O24889   0.052   8.707   8.755
 8216WAT     H124890   0.147   8.679   8.738
 8216WAT     H224891   0.026   8.777   8.689
 8217WAT      O24892   4.710   0.360   4.133
 8217WAT     H124893   4.800   0.328   4.104
 8217WAT     H224894   4.657   0.282   4.169
 8218WAT      O24895   6.766   8.471   9.366
 8218WAT     H124896   6.746   8.448   9.462
 8218WAT     H224897   6.749   8.568   9.350
 8219WAT      O24898   0.798   1.588   6.393
 8219WAT     H124899   0.850   1.509   6.363
 8219WAT     H224900   0.701   1.574   6.373
 8220WAT      O24901   6.460   8.744   3.153
 8220WAT     H124902   6.505   8.723   3.067
 8220WAT     H224903   6.361   8.744   3.140
 8221WAT      O24904   3.158   5.207   5.119
 8221WAT     H124905   3.158   5.107   5.127
 8221WAT     H224906   3.067   5.238   5.090
 8222WAT      O24907   3.885   2.182   1.908
 8222WAT     H124908   3.962   2.185   1.844
 8222WAT     H224909   3.898   2.108   1.973
 8223WAT      O24910   7.253   3.604   6.456
 8223WAT     H124911   7.255   3.701   6.431
 8223WAT     H224912   7.345   3.574   6.480
 8224WAT      O24913   1.416   6.101   7.985
 8224WAT     H124914   1.365   6.100   8.071
 8224WAT     H224915   1.355   6.077   7.910
 8225WAT      O24916   7.992   4.306   1.797
 8225WAT     H124917   8.006   4.341   1.704
 8225WAT     H224918   8.039   4.367   1.862
 8226WAT      O24919   5.280   5.886   9.267
 8226WAT     H124920   5.369   5.878   9.311
 8226WAT     H224921   5.290   5.872   9.168
 8227WAT      O24922   9.033   1.968   6.503
 8227WAT     H124923   8.959   2.021   6.462
 8227WAT     H224924   9.037   1.878   6.459
 8228WAT      O24925   7.809   6.063   3.468
 8228WAT     H124926   7.731   6.032   3.523
 8228WAT     H224927   7.817   6.162   3.476
 8229WAT      O24928   6.833   7.966   6.958
 8229WAT     H124929   6.800   7.958   7.052
 8229WAT     H224930   6.909   8.031   6.954
 8230WAT      O24931   5.858   6.564   1.327
 8230WAT     H124932   5.927   6.568   1.400
 8230WAT     H224933   5.779   6.511   1.359
 8231WAT      O24934   7.248   7.273   7.220
 8231WAT     H124935   7.202   7.288   7.132
 8231WAT     H224936   7.317   7.344   7.234
 8232WAT      O24937   0.290   1.589   8.003
 8232WAT     H124938   0.202   1.578   7.956
 8232WAT     H224939   0.339   1.502   8.002
 8233WAT      O24940   1.369   8.621   3.917
 8233WAT     H124941   1.362   8.603   3.819
 8233WAT     H224942   1.294   8.575   3.965
 8234WAT      O24943   1.810   3.236   3.082
 8234WAT     H124944   1.810   3.170   3.157
 8234WAT     H224945   1.718   3.273   3.071
 8235WAT      O24946   9.668   7.641   6.717
 8235WAT     H124947   9.723   7.703   6.661
 8235WAT     H224948   9.718   7.620   6.801
 8236WAT      O24949   2.496   2.546   2.707
 8236WAT     H124950   2.518   2.465   2.653
 8236WAT     H224951   2.440   2.608   2.652
 8237WAT      O24952   5.759   0.916   6.135
 8237WAT     H124953   5.858   0.910   6.121
 8237WAT     H224954   5.723   0.994   6.083
 8238WAT      O24955   9.816   3.119   9.045
 8238WAT     H124956   9.856   3.094   9.134
 8238WAT     H224957   9.848   3.210   9.019
 8239WAT      O24958   7.859   2.221   8.922
 8239WAT     H124959   7.830   2.150   8.987
 8239WAT     H224960   7.953   2.203   8.892
 8240WAT      O24961   8.815   2.746   1.756
 8240WAT     H124962   8.843   2.652   1.776
 8240WAT     H224963   8.819   2.762   1.658
 8241WAT      O24964   4.483   0.974   6.973
 8241WAT     H124965   4.462   0.885   7.014
 8241WAT     H224966   4.409   1.038   6.990
 8242WAT      O24967   8.523   2.170   9.558
 8242WAT     H124968   8.481   2.093   9.511
 8242WAT     H224969   8.617   2.182   9.526
 8243WAT      O24970   5.313   3.857   0.877
 8243WAT     H124971   5.384   3.884   0.812
 8243WAT     H224972   5.223   3.863   0.834
 8244WAT      O24973   4.281   0.263   1.727
 8244WAT     H124974   4.271   0.195   1.654
 8244WAT     H224975   4.368   0.250   1.774
 8245WAT      O24976   8.999   4.494   0.599
 8245WAT     H124977   9.023   4.419   0.660
 8245WAT     H224978   9.063   4.496   0.522
 8246WAT      O24979   4.232   9.032   4.078
 8246WAT     H124980   4.133   9.037   4.062
 8246WAT     H224981   4.280   9.033   3.990
 8247WAT      O24982   6.462   2.028   6.540
 8247WAT     H124983   6.419   2.099   6.594
 8247WAT     H224984   6.404   1.946   6.539
 8248WAT      O24985   4.741   7.582   4.786
 8248WAT     H124986   4.658   7.533   4.811
 8248WAT     H224987   4.809   7.574   4.858
 8249WAT      O24988   9.587   8.173   9.009
 8249WAT     H124989   9.671   8.121   8.991
 8249WAT     H224990   9.584   8.254   8.950
 8250WAT      O24991   2.329   1.915   8.787
 8250WAT     H124992   2.297   1.956   8.702
 8250WAT     H224993   2.356   1.820   8.771
 8251WAT      O24994   4.284   6.474   3.719
 8251WAT     H124995   4.204   6.523   3.683
 8251WAT     H224996   4.254   6.390   3.765
 8252WAT      O24997   1.422   0.524   5.029
 8252WAT     H124998   1.345   0.474   5.069
 8252WAT     H224999   1.448   0.599   5.089
 8253WAT      O25000   3.756   1.201   9.348
 8253WAT     H125001   3.839   1.148   9.333
 8253WAT     H225002   3.700   1.199   9.265
 8254WAT      O25003   7.675   0.187   3.213
 8254WAT     H125004   7.705   0.095   3.189
 8254WAT     H225005   7.577   0.196   3.194
 8255WAT      O25006   5.401   1.965   0.431
 8255WAT     H125007   5.387   1.961   0.332
 8255WAT     H225008   5.497   1.984   0.450
 8256WAT      O25009   7.102   0.986   5.269
 8256WAT     H125010   7.189   1.034   5.281
 8256WAT     H225011   7.100   0.907   5.330
 8257WAT      O25012   0.524   2.660   0.460
 8257WAT     H125013   0.578   2.695   0.537
 8257WAT     H225014   0.581   2.655   0.379
 8258WAT      O25015   4.030   7.488   1.255
 8258WAT     H125016   4.038   7.398   1.297
 8258WAT     H225017   4.084   7.554   1.307
 8259WAT      O25018   0.036   9.215   9.044
 8259WAT     H125019   0.121   9.228   8.993
 8259WAT     H225020  -0.038   9.263   8.998
 8260WAT      O25021   5.064   3.955   4.524
 8260WAT     H125022   5.018   3.883   4.576
 8260WAT     H225023   5.162   3.950   4.540
 8261WAT      O25024   9.074   6.782   6.527
 8261WAT     H125025   9.091   6.702   6.469
 8261WAT     H225026   9.083   6.755   6.623
 8262WAT      O25027   3.307   0.797   4.088
 8262WAT     H125028   3.259   0.723   4.040
 8262WAT     H225029   3.328   0.767   4.181
 8263WAT      O25030   5.143   0.375   2.077
 8263WAT     H125031   5.082   0.389   2.156
 8263WAT     H225032   5.226   0.329   2.108
 8264WAT      O25033   9.421   4.347   7.759
 8264WAT     H125034   9.321   4.355   7.754
 8264WAT     H225035   9.457   4.326   7.668
 8265WAT      O25036   2.004   4.811   3.302
 8265WAT     H125037   1.971   4.772   3.388
 8265WAT     H225038   2.092   4.857   3.317
 8266WAT      O25039   9.513   8.036   2.443
 8266WAT     H125040   9.450   8.059   2.517
 8266WAT     H225041   9.584   8.106   2.436
 8267WAT      O25042   3.198   9.128   5.981
 8267WAT     H125043   3.226   9.214   6.023
 8267WAT     H225044   3.206   9.136   5.882
 8268WAT      O25045   3.369   5.477   2.639
 8268WAT     H125046   3.351   5.488   2.737
 8268WAT     H225047   3.282   5.467   2.591
 8269WAT      O25048   2.897   8.191   1.534
 8269WAT     H125049   2.799   8.180   1.518
 8269WAT     H225050   2.917   8.176   1.631
 8270WAT      O25051   4.139   9.163   6.630
 8270WAT     H125052   4.211   9.212   6.679
 8270WAT     H225053   4.099   9.223   6.561
 8271WAT      O25054   3.264   1.894   9.416
 8271WAT     H125055   3.199   1.944   9.473
 8271WAT     H225056   3.249   1.796   9.427
 8272WAT      O25057   7.334   9.149   5.305
 8272WAT     H125058   7.304   9.243   5.321
 8272WAT     H225059   7.254   9.090   5.293
 8273WAT      O25060   4.502   1.150   4.468
 8273WAT     H125061   4.560   1.189   4.539
 8273WAT     H225062   4.557   1.130   4.387
 8274WAT      O25063   0.552   0.517   9.736
 8274WAT     H125064   0.505   0.603   9.755
 8274WAT     H225065   0.644   0.536   9.700
 8275WAT      O25066   7.511   5.269   6.058
 8275WAT     H125067   7.500   5.171   6.040
 8275WAT     H225068   7.538   5.282   6.154
 8276WAT      O25069   7.295   5.921   1.695
 8276WAT     H125070   7.276   5.893   1.789
 8276WAT     H225071   7.382   5.881   1.665
 8277WAT      O25072   8.301   7.681   2.438
 8277WAT     H125073   8.238   7.604   2.431
 8277WAT     H225074   8.320   7.717   2.346
 8278WAT      O25075   3.457   6.681   4.536
 8278WAT     H125076   3.471   6.761   4.594
 8278WAT     H225077   3.546   6.639   4.515
 8279WAT      O25078   8.577   7.958   4.600
 8279WAT     H125079   8.549   7.874   4.555
 8279WAT     H225080   8.627   8.015   4.535
 8280WAT      O25081   1.732   5.272   2.841
 8280WAT     H125082   1.690   5.246   2.929
 8280WAT     H225083   1.786   5.196   2.806
 8281WAT      O25084  -0.001   6.219   6.489
 8281WAT     H125085   0.025   6.250   6.580
 8281WAT     H225086   0.081   6.192   6.438
 8282WAT      O25087   6.280   3.684   1.647
 8282WAT     H125088   6.273   3.651   1.742
 8282WAT     H225089   6.336   3.766   1.644
 8283WAT      O25090   8.901   4.834   6.444
 8283WAT     H125091   8.908   4.745   6.399
 8283WAT     H225092   8.954   4.901   6.392
 8284WAT      O25093   2.077   6.595   1.646
 8284WAT     H125094   2.109   6.553   1.731
 8284WAT     H225095   2.153   6.644   1.603
 8285WAT      O25096   1.506   6.731   2.205
 8285WAT     H125097   1.603   6.707   2.213
 8285WAT     H225098   1.458   6.706   2.289
 8286WAT      O25099   8.165   5.305   2.447
 8286WAT     H125100   8.211   5.389   2.419
 8286WAT     H225101   8.187   5.232   2.383
 8287WAT      O25102   8.357   6.804   4.223
 8287WAT     H125103   8.305   6.752   4.155
 8287WAT     H225104   8.329   6.900   4.219
 8288WAT      O25105   8.795   0.057   1.371
 8288WAT     H125106   8.723  -0.011   1.357
 8288WAT     H225107   8.780   0.134   1.310
 8289WAT      O25108   0.277   2.419   2.849
 8289WAT     H125109   0.234   2.382   2.931
 8289WAT     H225110   0.280   2.519   2.855
 8290WAT      O25111   4.446   8.421   6.314
 8290WAT     H125112   4.349   8.430   6.293
 8290WAT     H225113   4.471   8.324   6.316
 8291WAT      O25114   3.742   8.702   4.976
 8291WAT     H125115   3.757   8.781   5.035
 8291WAT     H225116   3.658   8.714   4.924
 8292WAT      O25117   4.343   6.376   7.766
 8292WAT     H125118   4.329   6.449   7.832
 8292WAT     H225119   4.325   6.287   7.809
 8293WAT      O25120   8.812   4.409   5.878
 8293WAT     H125121   8.878   4.335   5.871
 8293WAT     H225122   8.830   4.477   5.807
 8294WAT      O25123   7.125   0.119   2.396
 8294WAT     H125124   7.055   0.056   2.431
 8294WAT     H225125   7.195   0.133   2.466
 8295WAT      O25126   3.556   0.399   9.044
 8295WAT     H125127   3.515   0.308   9.034
 8295WAT     H225128   3.641   0.403   8.991
 8296WAT      O25129   9.183   6.099   1.837
 8296WAT     H125130   9.228   6.184   1.809
 8296WAT     H225131   9.088   6.119   1.863
 8297WAT      O25132   9.428   4.461   1.529
 8297WAT     H125133   9.430   4.561   1.534
 8297WAT     H225134   9.519   4.425   1.548
 8298WAT      O25135   2.168   5.541   6.591
 8298WAT     H125136   2.225   5.623   6.583
 8298WAT     H225137   2.223   5.467   6.629
 8299WAT      O25138   2.417   0.429   0.785
 8299WAT     H125139   2.359   0.452   0.707
 8299WAT     H225140   2.465   0.343   0.767
 8300WAT      O25141   2.630   2.872   6.841
 8300WAT     H125142   2.625   2.972   6.835
 8300WAT     H225143   2.725   2.843   6.825
 8301WAT      O25144   6.986   3.310   8.358
 8301WAT     H125145   7.028   3.251   8.290
 8301WAT     H225146   6.899   3.271   8.388
 8302WAT      O25147   2.654   4.581   1.914
 8302WAT     H125148   2.570   4.617   1.873
 8302WAT     H225149   2.630   4.522   1.991
 8303WAT      O25150   4.645   0.267   2.311
 8303WAT     H125151   4.587   0.185   2.319
 8303WAT     H225152   4.697   0.280   2.396
 8304WAT      O25153   5.799   4.644   3.840
 8304WAT     H125154   5.761   4.589   3.766
 8304WAT     H225155   5.728   4.665   3.907
 8305WAT      O25156   2.234   6.762   7.007
 8305WAT     H125157   2.300   6.753   6.932
 8305WAT     H225158   2.284   6.780   7.092
 8306WAT      O25159   0.578   7.849   2.967
 8306WAT     H125160   0.541   7.923   3.024
 8306WAT     H225161   0.503   7.791   2.935
 8307WAT      O25162   0.455   0.213   9.140
 8307WAT     H125163   0.532   0.270   9.170
 8307WAT     H225164   0.481   0.161   9.059
 8308WAT      O25165   7.866   0.357   3.103
 8308WAT     H125166   7.794   0.292   3.127
 8308WAT     H225167   7.852   0.389   3.009
 8309WAT      O25168   9.673   2.155   6.640
 8309WAT     H125169   9.669   2.129   6.736
 8309WAT     H225170   9.688   2.073   6.584
 8310WAT      O25171   5.599   2.384   9.301
 8310WAT     H125172   5.599   2.462   9.238
 8310WAT     H225173   5.506   2.350   9.311
 8311WAT      O25174   7.427   1.095   2.422
 8311WAT     H125175   7.374   1.143   2.492
 8311WAT     H225176   7.487   1.028   2.466
 8312WAT      O25177   4.786   9.650   9.450
 8312WAT     H125178   4.790   9.678   9.545
 8312WAT     H225179   4.798   9.551   9.444
 8313WAT      O25180   2.076   0.672   9.699
 8313WAT     H125181   2.106   0.712   9.613
 8313WAT     H225182   1.991   0.716   9.728
 8314WAT      O25183   2.256   9.478   0.510
 8314WAT     H125184   2.272   9.508   0.416
 8314WAT     H225185   2.238   9.380   0.511
 8315WAT      O25186   3.454   5.992   3.292
 8315WAT     H125187   3.553   5.974   3.294
 8315WAT     H225188   3.432   6.051   3.215
 8316WAT      O25189   3.677   3.325   3.371
 8316WAT     H125190   3.735   3.364   3.300
 8316WAT     H225191   3.684   3.380   3.454
 8317WAT      O25192   6.215   0.736   4.763
 8317WAT     H125193   6.264   0.811   4.807
 8317WAT     H225194   6.174   0.768   4.677
 8318WAT      O25195   5.457   6.562   4.690
 8318WAT     H125196   5.402   6.520   4.762
 8318WAT     H225197   5.452   6.662   4.698
 8319WAT      O25198   5.696   8.594   1.430
 8319WAT     H125199   5.777   8.613   1.486
 8319WAT     H225200   5.630   8.668   1.442
 8320WAT      O25201   2.322   0.925   9.048
 8320WAT     H125202   2.377   0.884   9.121
 8320WAT     H225203   2.379   0.940   8.967
 8321WAT      O25204   1.366   0.262   7.334
 8321WAT     H125205   1.382   0.360   7.336
 8321WAT     H225206   1.274   0.244   7.298
 8322WAT      O25207   7.964   6.020   6.267
 8322WAT     H125208   8.040   5.971   6.307
 8322WAT     H225209   7.998   6.089   6.203
 8323WAT      O25210   6.654   9.389   7.998
 8323WAT     H125211   6.559   9.359   7.994
 8323WAT     H225212   6.700   9.345   8.075
 8324WAT      O25213   5.871   7.141   3.905
 8324WAT     H125214   5.907   7.108   3.818
 8324WAT     H225215   5.848   7.063   3.963
 8325WAT      O25216   8.123   1.208   4.570
 8325WAT     H125217   8.104   1.281   4.504
 8325WAT     H225218   8.139   1.249   4.660
 8326WAT      O25219   9.617   3.287   5.122
 8326WAT     H125220   9.629   3.334   5.035
 8326WAT     H225221   9.542   3.330   5.172
 8327WAT      O25222   4.219   6.408   4.929
 8327WAT     H125223   4.308   6.408   4.976
 8327WAT     H225224   4.197   6.315   4.900
 8328WAT      O25225   9.029   3.021   6.954
 8328WAT     H125226   9.107   2.994   7.011
 8328WAT     H225227   9.037   3.117   6.930
 8329WAT      O25228   9.368   0.074   8.792
 8329WAT     H125229   9.303  -0.002   8.779
 8329WAT     H225230   9.416   0.061   8.878
 8330WAT      O25231   8.496   6.974   8.897
 8330WAT     H125232   8.560   7.006   8.827
 8330WAT     H225233   8.470   6.880   8.879
 8331WAT      O25234   3.736   7.183   3.880
 8331WAT     H125235   3.684   7.179   3.795
 8331WAT     H225236   3.768   7.092   3.905
 8332WAT      O25237   1.902   2.155   6.722
 8332WAT     H125238   2.001   2.152   6.734
 8332WAT     H225239   1.879   2.135   6.626
 8333WAT      O25240   3.291   7.741   4.533
 8333WAT     H125241   3.372   7.735   4.474
 8333WAT     H225242   3.264   7.837   4.543
 8334WAT      O25243   2.450   2.917   9.795
 8334WAT     H125244   2.388   2.990   9.824
 8334WAT     H225245   2.445   2.841   9.861
 8335WAT      O25246   9.369   2.027   3.641
 8335WAT     H125247   9.393   2.115   3.601
 8335WAT     H225248   9.435   2.004   3.713
 8336WAT      O25249   8.435   6.820   1.868
 8336WAT     H125250   8.463   6.840   1.774
 8336WAT     H225251   8.353   6.763   1.867
 8337WAT      O25252   5.716   1.028   8.494
 8337WAT     H125253   5.756   0.936   8.491
 8337WAT     H225254   5.775   1.092   8.445
 8338WAT      O25255   5.233   1.542   2.223
 8338WAT     H125256   5.161   1.473   2.236
 8338WAT     H225257   5.290   1.546   2.305
 8339WAT      O25258   5.890   0.477   8.800
 8339WAT     H125259   5.983   0.462   8.765
 8339WAT     H225260   5.829   0.407   8.761
 8340WAT      O25261   3.578   3.755   6.438
 8340WAT     H125262   3.632   3.745   6.522
 8340WAT     H225263   3.634   3.726   6.360
 8341WAT      O25264   2.599   7.045   0.864
 8341WAT     H125265   2.581   7.143   0.879
 8341WAT     H225266   2.658   7.011   0.937
 8342WAT      O25267   8.139   7.014   1.573
 8342WAT     H125268   8.118   6.969   1.660
 8342WAT     H225269   8.190   6.951   1.515
 8343WAT      O25270   6.288   2.089   7.879
 8343WAT     H125271   6.344   2.100   7.797
 8343WAT     H225272   6.303   2.167   7.940
 8344WAT      O25273   7.325   2.755   6.782
 8344WAT     H125274   7.277   2.683   6.831
 8344WAT     H225275   7.270   2.787   6.706
 8345WAT      O25276   0.847   0.853   7.214
 8345WAT     H125277   0.882   0.893   7.299
 8345WAT     H225278   0.845   0.754   7.222
 8346WAT      O25279   2.234   0.212   0.028
 8346WAT     H125280   2.175   0.233  -0.050
 8346WAT     H225281   2.180   0.212   0.112
 8347WAT      O25282   4.508   6.955   5.132
 8347WAT     H125283   4.471   6.862   5.123
 8347WAT     H225284   4.556   6.979   5.048
 8348WAT      O25285   7.990   1.892   5.569
 8348WAT     H125286   7.908   1.838   5.550
 8348WAT     H225287   8.068   1.830   5.578
 8349WAT      O25288   3.477   9.215   1.439
 8349WAT     H125289   3.411   9.140   1.449
 8349WAT     H225290   3.458   9.285   1.508
 8350WAT      O25291   3.573   7.436   6.799
 8350WAT     H125292   3.533   7.442   6.890
 8350WAT     H225293   3.672   7.437   6.805
 8351WAT      O25294   7.013   0.830   2.605
 8351WAT     H125295   7.111   0.829   2.586
 8351WAT     H225296   6.967   0.761   2.550
 8352WAT      O25297   2.211   8.927   5.432
 8352WAT     H125298   2.208   8.833   5.465
 8352WAT     H225299   2.282   8.977   5.481
 8353WAT      O25300   1.227   7.221   0.970
 8353WAT     H125301   1.206   7.204   0.873
 8353WAT     H225302   1.249   7.135   1.015
 8354WAT      O25303   3.604   1.267   9.137
 8354WAT     H125304   3.504   1.254   9.133
 8354WAT     H225305   3.625   1.351   9.187
 8355WAT      O25306   6.040   3.395   6.182
 8355WAT     H125307   6.137   3.411   6.162
 8355WAT     H225308   6.031   3.345   6.268
 8356WAT      O25309   2.377   5.633   3.439
 8356WAT     H125310   2.335   5.699   3.502
 8356WAT     H225311   2.338   5.644   3.348
 8357WAT      O25312   5.374   7.335   7.361
 8357WAT     H125313   5.395   7.429   7.335
 8357WAT     H225314   5.291   7.305   7.313
 8358WAT      O25315   6.995   4.519   0.439
 8358WAT     H125316   6.991   4.596   0.374
 8358WAT     H225317   6.969   4.435   0.391
 8359WAT      O25318   4.774   8.150   3.519
 8359WAT     H125319   4.717   8.081   3.474
 8359WAT     H225320   4.767   8.237   3.470
 8360WAT      O25321   9.153   3.165   7.808
 8360WAT     H125322   9.154   3.166   7.708
 8360WAT     H225323   9.200   3.083   7.841
 8361WAT      O25324   7.878   8.562   0.988
 8361WAT     H125325   7.798   8.567   1.047
 8361WAT     H225326   7.938   8.489   1.019
 8362WAT      O25327   2.672   6.205   8.044
 8362WAT     H125328   2.629   6.115   8.051
 8362WAT     H225329   2.612   6.275   8.082
 8363WAT      O25330   5.161   1.348   7.615
 8363WAT     H125331   5.127   1.326   7.706
 8363WAT     H225332   5.123   1.284   7.548
 8364WAT      O25333   2.407   3.267   1.995
 8364WAT     H125334   2.329   3.319   1.959
 8364WAT     H225335   2.419   3.287   2.092
 8365WAT      O25336   6.334   8.052   4.698
 8365WAT     H125337   6.315   7.954   4.689
 8365WAT     H225338   6.259   8.096   4.747
 8366WAT      O25339   3.939   7.342   6.590
 8366WAT     H125340   3.848   7.343   6.549
 8366WAT     H225341   3.943   7.409   6.664
 8367WAT      O25342   8.131   9.392   0.705
 8367WAT     H125343   8.099   9.418   0.796
 8367WAT     H225344   8.070   9.322   0.667
 8368WAT      O25345   9.521   2.170   8.233
 8368WAT     H125346   9.518   2.071   8.217
 8368WAT     H225347   9.473   2.192   8.317
 8369WAT      O25348   8.943   9.251   8.635
 8369WAT     H125349   8.976   9.158   8.620
 8369WAT     H225350   8.860   9.248   8.691
 8370WAT      O25351   7.182   1.117   4.864
 8370WAT     H125352   7.227   1.086   4.948
 8370WAT     H225353   7.103   1.174   4.887
 8371WAT      O25354   1.005   6.894   0.134
 8371WAT     H125355   0.986   6.926   0.042
 8371WAT     H225356   0.945   6.817   0.157
 8372WAT      O25357   2.222   1.431   5.357
 8372WAT     H125358   2.261   1.361   5.297
 8372WAT     H225359   2.286   1.508   5.366
 8373WAT      O25360   7.747   3.348   3.433
 8373WAT     H125361   7.821   3.335   3.499
 8373WAT     H225362   7.751   3.276   3.364
 8374WAT      O25363   9.741   2.055   3.655
 8374WAT     H125364   9.692   1.974   3.686
 8374WAT     H225365   9.747   2.120   3.731
 8375WAT      O25366   2.617   7.048   0.572
 8375WAT     H125367   2.567   7.134   0.561
 8375WAT     H225368   2.618   7.022   0.669
 8376WAT      O25369   7.248   4.243   0.827
 8376WAT     H125370   7.242   4.335   0.866
 8376WAT     H225371   7.182   4.183   0.874
 8377WAT      O25372   4.939   3.467   8.882
 8377WAT     H125373   4.985   3.476   8.970
 8377WAT     H225374   4.929   3.558   8.841
 8378WAT      O25375   4.936   2.763   1.746
 8378WAT     H125376   5.002   2.838   1.745
 8378WAT     H225377   4.980   2.680   1.711
 8379WAT      O25378   4.136   5.631   4.963
 8379WAT     H125379   4.203   5.683   4.910
 8379WAT     H225380   4.142   5.535   4.938
 8380WAT      O25381   4.524   2.007   4.016
 8380WAT     H125382   4.470   2.071   3.962
 8380WAT     H225383   4.464   1.938   4.056
 8381WAT      O25384   8.050   3.706   2.850
 8381WAT     H125385   8.123   3.774   2.857
 8381WAT     H225386   8.039   3.679   2.755
 8382WAT      O25387   6.436   7.211   2.710
 8382WAT     H125388   6.487   7.257   2.784
 8382WAT     H225389   6.343   7.191   2.742
 8383WAT      O25390   6.071   3.913   2.216
 8383WAT     H125391   6.057   3.997   2.269
 8383WAT     H225392   5.992   3.853   2.228
 8384WAT      O25393   6.265   0.047   0.092
 8384WAT     H125394   6.264   0.035   0.192
 8384WAT     H225395   6.202   0.120   0.066
 8385WAT      O25396   0.217   3.168   6.312
 8385WAT     H125397   0.243   3.230   6.238
 8385WAT     H225398   0.122   3.187   6.339
 8386WAT      O25399   5.608   3.657   2.175
 8386WAT     H125400   5.513   3.659   2.204
 8386WAT     H225401   5.616   3.602   2.092
 8387WAT      O25402   3.606   7.047   6.498
 8387WAT     H125403   3.616   7.010   6.591
 8387WAT     H225404   3.688   7.099   6.474
 8388WAT      O25405   2.376   8.421   9.554
 8388WAT     H125406   2.407   8.343   9.608
 8388WAT     H225407   2.452   8.485   9.541
 8389WAT      O25408   6.317   2.962   4.667
 8389WAT     H125409   6.344   2.973   4.571
 8389WAT     H225410   6.394   2.924   4.719
 8390WAT      O25411   6.228   2.035   7.181
 8390WAT     H125412   6.179   1.965   7.129
 8390WAT     H225413   6.219   2.123   7.134
 8391WAT      O25414   0.657   2.316   7.636
 8391WAT     H125415   0.690   2.228   7.669
 8391WAT     H225416   0.726   2.357   7.576
 8392WAT      O25417   6.639   7.072   5.218
 8392WAT     H125418   6.567   7.048   5.283
 8392WAT     H225419   6.713   7.119   5.265
 8393WAT      O25420   3.547   2.174   7.449
 8393WAT     H125421   3.598   2.167   7.363
 8393WAT     H225422   3.576   2.101   7.511
 8394WAT      O25423   4.510   1.766   6.742
 8394WAT     H125424   4.416   1.777   6.775
 8394WAT     H225425   4.562   1.849   6.764
 8395WAT      O25426   3.287   8.662   7.836
 8395WAT     H125427   3.365   8.601   7.846
 8395WAT     H225428   3.215   8.617   7.784
 8396WAT      O25429   9.028   7.797   4.271
 8396WAT     H125430   9.061   7.862   4.202
 8396WAT     H225431   9.069   7.818   4.359
 8397WAT      O25432   9.650   3.057   7.974
 8397WAT     H125433   9.608   2.978   8.018
 8397WAT     H225434   9.584   3.132   7.970
 8398WAT      O25435   8.080   9.474   8.332
 8398WAT     H125436   8.020   9.395   8.324
 8398WAT     H225437   8.066   9.535   8.254
 8399WAT      O25438   8.900   8.689   1.362
 8399WAT     H125439   8.803   8.707   1.378
 8399WAT     H225440   8.914   8.592   1.343
 8400WAT      O25441   5.671   7.813   5.749
 8400WAT     H125442   5.685   7.769   5.837
 8400WAT     H225443   5.759   7.830   5.705
 8401WAT      O25444   8.950   6.223   9.391
 8401WAT     H125445   9.006   6.197   9.313
 8401WAT     H225446   8.957   6.322   9.406
 8402WAT      O25447   3.655   5.889   1.603
 8402WAT     H125448   3.577   5.857   1.550
 8402WAT     H225449   3.711   5.949   1.546
 8403WAT      O25450   4.104   1.173   1.392
 8403WAT     H125451   4.098   1.120   1.307
 8403WAT     H225452   4.165   1.251   1.379
 8404WAT      O25453   7.984   8.508   4.219
 8404WAT     H125454   7.904   8.556   4.183
 8404WAT     H225455   8.012   8.549   4.306
 8405WAT      O25456   9.221   9.463   4.755
 8405WAT     H125457   9.273   9.394   4.806
 8405WAT     H225458   9.187   9.533   4.818
 8406WAT      O25459   3.259   0.103   5.977
 8406WAT     H125460   3.295   0.012   5.953
 8406WAT     H225461   3.311   0.173   5.928
 8407WAT      O25462   0.175   7.549   9.372
 8407WAT     H125463   0.100   7.609   9.346
 8407WAT     H225464   0.205   7.497   9.293
 8408WAT      O25465   7.964   7.762   2.015
 8408WAT     H125466   7.928   7.789   2.104
 8408WAT     H225467   8.039   7.696   2.028
 8409WAT      O25468   6.320   2.496   9.683
 8409WAT     H125469   6.318   2.548   9.598
 8409WAT     H225470   6.245   2.525   9.742
 8410WAT      O25471   3.678   0.444   6.122
 8410WAT     H125472   3.609   0.508   6.089
 8410WAT     H225473   3.724   0.402   6.044
 8411WAT      O25474   6.128   7.394   9.451
 8411WAT     H125475   6.060   7.360   9.517
 8411WAT     H225476   6.214   7.346   9.464
 8412WAT      O25477   3.813   0.562   6.334
 8412WAT     H125478   3.754   0.593   6.409
 8412WAT     H225479   3.759   0.514   6.266
 8413WAT      O25480   6.431   4.961   7.856
 8413WAT     H125481   6.340   4.934   7.888
 8413WAT     H225482   6.435   4.951   7.756
 8414WAT      O25483   5.384   9.287   1.705
 8414WAT     H125484   5.419   9.203   1.664
 8414WAT     H225485   5.284   9.287   1.701
 8415WAT      O25486   1.086   6.388   0.878
 8415WAT     H125487   1.123   6.409   0.968
 8415WAT     H225488   1.021   6.312   0.885
 8416WAT      O25489   3.140   5.936   6.602
 8416WAT     H125490   3.105   6.027   6.627
 8416WAT     H225491   3.215   5.911   6.663
 8417WAT      O25492   9.754   6.652   1.764
 8417WAT     H125493   9.688   6.712   1.719
 8417WAT     H225494   9.807   6.704   1.832
 8418WAT      O25495   1.849   0.478   1.262
 8418WAT     H125496   1.933   0.526   1.235
 8418WAT     H225497   1.859   0.442   1.355
 8419WAT      O25498   1.944   8.373   6.645
 8419WAT     H125499   1.877   8.299   6.642
 8419WAT     H225500   1.903   8.454   6.687
 8420WAT      O25501   9.242   6.670   0.965
 8420WAT     H125502   9.158   6.718   0.937
 8420WAT     H225503   9.242   6.578   0.928
 8421WAT      O25504   2.874   4.577   6.810
 8421WAT     H125505   2.921   4.555   6.895
 8421WAT     H225506   2.938   4.571   6.733
 8422WAT      O25507   6.575   4.663   5.071
 8422WAT     H125508   6.503   4.691   5.007
 8422WAT     H225509   6.663   4.663   5.023
 8423WAT      O25510   3.806   0.948   0.134
 8423WAT     H125511   3.778   0.922   0.226
 8423WAT     H225512   3.870   0.880   0.098
 8424WAT      O25513   8.651   8.344   2.041
 8424WAT     H125514   8.615   8.324   1.950
 8424WAT     H225515   8.579   8.385   2.098
 8425WAT      O25516   6.842   2.751   2.471
 8425WAT     H125517   6.761   2.809   2.477
 8425WAT     H225518   6.883   2.740   2.561
 8426WAT      O25519   9.519   5.408   2.555
 8426WAT     H125520   9.473   5.319   2.550
 8426WAT     H225521   9.594   5.403   2.622
 8427WAT      O25522   2.365   2.003   8.062
 8427WAT     H125523   2.430   1.955   8.121
 8427WAT     H225524   2.278   1.953   8.060
 8428WAT      O25525   5.927   2.836   5.755
 8428WAT     H125526   5.923   2.901   5.680
 8428WAT     H225527   5.841   2.783   5.759
 8429WAT      O25528   9.705   1.521   4.430
 8429WAT     H125529   9.787   1.548   4.379
 8429WAT     H225530   9.697   1.577   4.513
 8430WAT      O25531   4.556   0.110   8.229
 8430WAT     H125532   4.544   0.082   8.324
 8430WAT     H225533   4.505   0.194   8.212
 8431WAT      O25534   3.876   1.810   6.112
 8431WAT     H125535   3.855   1.779   6.020
 8431WAT     H225536   3.947   1.752   6.151
 8432WAT      O25537   0.589   9.496   6.110
 8432WAT     H125538   0.497   9.470   6.140
 8432WAT     H225539   0.626   9.424   6.051
 8433WAT      O25540   9.100   7.105   9.175
 8433WAT     H125541   9.111   7.085   9.273
 8433WAT     H225542   9.003   7.100   9.152
 8434WAT      O25543   7.835   1.319   9.143
 8434WAT     H125544   7.893   1.237   9.137
 8434WAT     H225545   7.844   1.359   9.233
 8435WAT      O25546   4.433   3.123   3.541
 8435WAT     H125547   4.487   3.204   3.562
 8435WAT     H225548   4.401   3.081   3.626
 8436WAT      O25549   7.456   8.014   3.607
 8436WAT     H125550   7.489   7.946   3.673
 8436WAT     H225551   7.356   8.013   3.606
 8437WAT      O25552   0.701   3.692   9.425
 8437WAT     H125553   0.618   3.643   9.453
 8437WAT     H225554   0.692   3.789   9.449
 8438WAT      O25555   4.629   0.106   5.182
 8438WAT     H125556   4.634   0.116   5.083
 8438WAT     H225557   4.679   0.023   5.209
 8439WAT      O25558   2.163   3.475   2.818
 8439WAT     H125559   2.145   3.536   2.741
 8439WAT     H225560   2.204   3.528   2.893
 8440WAT      O25561   6.168   5.558   6.279
 8440WAT     H125562   6.183   5.641   6.226
 8440WAT     H225563   6.081   5.566   6.329
 8441WAT      O25564   7.296   8.814   1.338
 8441WAT     H125565   7.233   8.841   1.265
 8441WAT     H225566   7.273   8.721   1.368
 8442WAT      O25567   5.496   4.763   7.191
 8442WAT     H125568   5.412   4.737   7.239
 8442WAT     H225569   5.564   4.792   7.258
 8443WAT      O25570   3.480   9.407   2.047
 8443WAT     H125571   3.557   9.369   1.996
 8443WAT     H225572   3.395   9.385   1.999
 8444WAT      O25573   6.379   4.820   9.894
 8444WAT     H125574   6.342   4.895   9.948
 8444WAT     H225575   6.339   4.823   9.802
 8445WAT      O25576   1.569   3.412   8.068
 8445WAT     H125577   1.490   3.355   8.093
 8445WAT     H225578   1.569   3.427   7.969
 8446WAT      O25579   6.210   8.463   5.015
 8446WAT     H125580   6.127   8.517   5.029
 8446WAT     H225581   6.208   8.383   5.074
 8447WAT      O25582   1.089   9.326   7.014
 8447WAT     H125583   1.158   9.260   7.043
 8447WAT     H225584   1.133   9.412   6.990
 8448WAT      O25585   4.442   5.067   7.745
 8448WAT     H125586   4.411   5.086   7.838
 8448WAT     H225587   4.535   5.101   7.733
 8449WAT      O25588   2.311   3.767   3.153
 8449WAT     H125589   2.336   3.809   3.065
 8449WAT     H225590   2.376   3.695   3.175
 8450WAT      O25591   0.736   8.645   5.557
 8450WAT     H125592   0.701   8.625   5.465
 8450WAT     H225593   0.811   8.710   5.550
 8451WAT      O25594   6.461   7.668   2.011
 8451WAT     H125595   6.489   7.591   1.953
 8451WAT     H225596   6.476   7.644   2.107
 8452WAT      O25597   1.064   8.273   5.572
 8452WAT     H125598   1.039   8.321   5.656
 8452WAT     H225599   1.064   8.174   5.589
 8453WAT      O25600   9.238   6.530   0.111
 8453WAT     H125601   9.151   6.576   0.126
 8453WAT     H225602   9.222   6.441   0.069
 8454WAT      O25603   1.394   5.393   1.797
 8454WAT     H125604   1.384   5.306   1.749
 8454WAT     H225605   1.303   5.434   1.811
 8455WAT      O25606   5.848   6.150   5.016
 8455WAT     H125607   5.799   6.111   4.938
 8455WAT     H225608   5.927   6.202   4.983
 8456WAT      O25609   3.681   6.725   4.162
 8456WAT     H125610   3.623   6.718   4.081
 8456WAT     H225611   3.777   6.731   4.133
 8457WAT      O25612   3.420   0.286   8.160
 8457WAT     H125613   3.423   0.368   8.103
 8457WAT     H225614   3.459   0.209   8.109
 8458WAT      O25615   3.961   3.001   7.019
 8458WAT     H125616   3.992   3.089   7.053
 8458WAT     H225617   4.034   2.959   6.964
 8459WAT      O25618   0.338   1.688   0.622
 8459WAT     H125619   0.279   1.661   0.698
 8459WAT     H225620   0.316   1.633   0.542
 8460WAT      O25621   6.659   2.973   1.959
 8460WAT     H125622   6.619   2.881   1.966
 8460WAT     H225623   6.743   2.977   2.012
 8461WAT      O25624   2.381   1.168   6.403
 8461WAT     H125625   2.384   1.229   6.324
 8461WAT     H225626   2.464   1.112   6.405
 8462WAT      O25627   0.321   6.185   7.372
 8462WAT     H125628   0.264   6.173   7.454
 8462WAT     H225629   0.262   6.199   7.293
 8463WAT      O25630   2.223   9.465   8.271
 8463WAT     H125631   2.302   9.479   8.331
 8463WAT     H225632   2.211   9.367   8.255
 8464WAT      O25633   7.021   1.361   4.924
 8464WAT     H125634   6.991   1.445   4.879
 8464WAT     H225635   7.040   1.379   5.020
 8465WAT      O25636   6.320   8.240   3.762
 8465WAT     H125637   6.343   8.325   3.715
 8465WAT     H225638   6.242   8.256   3.823
 8466WAT      O25639   1.742   8.464   2.051
 8466WAT     H125640   1.726   8.460   2.150
 8466WAT     H225641   1.655   8.477   2.003
 8467WAT      O25642   0.548   0.734   3.920
 8467WAT     H125643   0.639   0.702   3.944
 8467WAT     H225644   0.482   0.697   3.986
 8468WAT      O25645   0.910   8.389   3.150
 8468WAT     H125646   0.998   8.433   3.130
 8468WAT     H225647   0.904   8.370   3.248
 8469WAT      O25648   9.870   6.814   3.803
 8469WAT     H125649   9.793   6.759   3.832
 8469WAT     H225650   9.840   6.909   3.788
 8470WAT      O25651   8.857   8.109   6.276
 8470WAT     H125652   8.889   8.147   6.190
 8470WAT     H225653   8.905   8.023   6.295
 8471WAT      O25654   7.849   0.123   0.990
 8471WAT     H125655   7.836   0.211   0.944
 8471WAT     H225656   7.943   0.092   0.975
 8472WAT      O25657   3.753   8.478   8.330
 8472WAT     H125658   3.714   8.501   8.419
 8472WAT     H225659   3.717   8.389   8.300
 8473WAT      O25660   1.353   0.018   3.085
 8473WAT     H125661   1.338   0.099   3.029
 8473WAT     H225662   1.352   0.043   3.182
 8474WAT      O25663   6.241   1.343   3.728
 8474WAT     H125664   6.192   1.387   3.653
 8474WAT     H225665   6.304   1.275   3.691
 8475WAT      O25666   2.583   5.450   4.247
 8475WAT     H125667   2.540   5.539   4.239
 8475WAT     H225668   2.531   5.393   4.310
 8476WAT      O25669   6.558   9.787   5.211
 8476WAT     H125670   6.491   9.726   5.169
 8476WAT     H225671   6.535   9.882   5.189
 8477WAT      O25672   0.269   8.198   9.108
 8477WAT     H125673   0.267   8.297   9.089
 8477WAT     H225674   0.314   8.182   9.195
 8478WAT      O25675   8.923   6.029   5.390
 8478WAT     H125676   8.944   6.022   5.292
 8478WAT     H225677   8.990   6.089   5.434
 8479WAT      O25678   5.291   6.391   4.853
 8479WAT     H125679   5.362   6.349   4.909
 8479WAT     H225680   5.214   6.418   4.911
 8480WAT      O25681   5.901   8.678   4.267
 8480WAT     H125682   5.822   8.740   4.266
 8480WAT     H225683   5.926   8.654   4.173
 8481WAT      O25684   1.609   3.367   7.100
 8481WAT     H125685   1.697   3.320   7.095
 8481WAT     H225686   1.568   3.371   7.009
 8482WAT      O25687   8.645   3.899   5.393
 8482WAT     H125688   8.682   3.874   5.483
 8482WAT     H225689   8.721   3.925   5.333
 8483WAT      O25690   5.187   3.589   3.194
 8483WAT     H125691   5.248   3.525   3.147
 8483WAT     H225692   5.139   3.645   3.127
 8484WAT      O25693   7.784   9.735   7.946
 8484WAT     H125694   7.815   9.826   7.971
 8484WAT     H225695   7.843   9.698   7.873
 8485WAT      O25696   4.506   8.338   1.783
 8485WAT     H125697   4.471   8.425   1.748
 8485WAT     H225698   4.484   8.330   1.881
 8486WAT      O25699   6.679   9.139   5.937
 8486WAT     H125700   6.652   9.137   6.033
 8486WAT     H225701   6.661   9.049   5.896
 8487WAT      O25702   5.090   1.684   5.698
 8487WAT     H125703   5.038   1.651   5.776
 8487WAT     H225704   5.117   1.607   5.640
 8488WAT      O25705   3.232   1.552   8.479
 8488WAT     H125706   3.221   1.501   8.564
 8488WAT     H225707   3.250   1.488   8.404
 8489WAT      O25708   3.495   4.547   1.532
 8489WAT     H125709   3.474   4.645   1.528
 8489WAT     H225710   3.429   4.496   1.476
 8490WAT      O25711   1.518   6.024   3.365
 8490WAT     H125712   1.486   6.113   3.398
 8490WAT     H225713   1.514   5.957   3.439
 8491WAT      O25714   6.889   9.264   1.896
 8491WAT     H125715   6.954   9.236   1.966
 8491WAT     H225716   6.899   9.363   1.879
 8492WAT      O25717   2.930   0.680   8.195
 8492WAT     H125718   2.976   0.763   8.165
 8492WAT     H225719   2.831   0.693   8.190
 8493WAT      O25720   9.452   3.466   2.951
 8493WAT     H125721   9.548   3.471   2.980
 8493WAT     H225722   9.402   3.405   3.012
 8494WAT      O25723   4.573   1.797   5.655
 8494WAT     H125724   4.624   1.732   5.599
 8494WAT     H225725   4.574   1.766   5.750
 8495WAT      O25726   7.880   5.966   8.978
 8495WAT     H125727   7.815   5.897   8.944
 8495WAT     H225728   7.921   5.935   9.063
 8496WAT      O25729   9.353   5.041   2.110
 8496WAT     H125730   9.403   4.957   2.091
 8496WAT     H225731   9.255   5.026   2.097
 8497WAT      O25732   3.264   1.330   3.731
 8497WAT     H125733   3.195   1.378   3.676
 8497WAT     H225734   3.278   1.379   3.817
 8498WAT      O25735   9.657   6.191   0.814
 8498WAT     H125736   9.608   6.112   0.778
 8498WAT     H225737   9.736   6.211   0.757
 8499WAT      O25738   8.177   3.279   9.622
 8499WAT     H125739   8.163   3.301   9.718
 8499WAT     H225740   8.239   3.346   9.581
 8500WAT      O25741   4.185   3.680   7.177
 8500WAT     H125742   4.196   3.725   7.089
 8500WAT     H225743   4.254   3.714   7.241
 8501WAT      O25744   2.679   9.743   2.476
 8501WAT     H125745   2.648   9.801   2.400
 8501WAT     H225746   2.715   9.801   2.549
 8502WAT      O25747   1.219   7.284   8.580
 8502WAT     H125748   1.300   7.266   8.635
 8502WAT     H225749   1.147   7.321   8.637
 8503WAT      O25750   0.543   8.941   6.573
 8503WAT     H125751   0.562   8.852   6.616
 8503WAT     H225752   0.526   9.009   6.644
 8504WAT      O25753   4.676   0.549   5.134
 8504WAT     H125754   4.617   0.597   5.069
 8504WAT     H225755   4.718   0.615   5.196
 8505WAT      O25756   4.258   1.133   7.061
 8505WAT     H125757   4.266   1.196   7.138
 8505WAT     H225758   4.213   1.180   6.985
 8506WAT      O25759   6.107   1.988   0.377
 8506WAT     H125760   6.120   1.981   0.476
 8506WAT     H225761   6.027   1.935   0.350
 8507WAT      O25762   2.050   7.831   9.153
 8507WAT     H125763   2.110   7.754   9.130
 8507WAT     H225764   1.961   7.795   9.184
 8508WAT      O25765   1.085   3.830   2.118
 8508WAT     H125766   0.987   3.847   2.111
 8508WAT     H225767   1.103   3.767   2.194
 8509WAT      O25768   9.453   2.036   1.709
 8509WAT     H125769   9.436   2.079   1.797
 8509WAT     H225770   9.441   2.103   1.636
 8510WAT      O25771   9.610   5.963   7.257
 8510WAT     H125772   9.536   6.006   7.206
 8510WAT     H225773   9.582   5.873   7.288
 8511WAT      O25774   8.882   0.440   5.906
 8511WAT     H125775   8.880   0.538   5.923
 8511WAT     H225776   8.832   0.393   5.979
 8512WAT      O25777   8.776   6.670   6.606
 8512WAT     H125778   8.784   6.596   6.539
 8512WAT     H225779   8.839   6.744   6.582
 8513WAT      O25780   0.242   7.440   4.903
 8513WAT     H125781   0.211   7.407   4.814
 8513WAT     H225782   0.293   7.368   4.949
 8514WAT      O25783   3.266   2.835   9.829
 8514WAT     H125784   3.214   2.850   9.914
 8514WAT     H225785   3.282   2.923   9.784
 8515WAT      O25786   0.794   6.816   1.804
 8515WAT     H125787   0.881   6.766   1.807
 8515WAT     H225788   0.755   6.809   1.713
 8516WAT      O25789   6.604   0.710   6.116
 8516WAT     H125790   6.687   0.670   6.155
 8516WAT     H225791   6.580   0.792   6.167
 8517WAT      O25792   8.309   0.126   9.768
 8517WAT     H125793   8.337   0.036   9.736
 8517WAT     H225794   8.324   0.194   9.697
 8518WAT      O25795   6.368   6.114   3.148
 8518WAT     H125796   6.377   6.167   3.232
 8518WAT     H225797   6.275   6.079   3.141
 8519WAT      O25798   2.790   4.444   2.728
 8519WAT     H125799   2.871   4.392   2.701
 8519WAT     H225800   2.781   4.524   2.670
 8520WAT      O25801   3.703   5.568   1.896
 8520WAT     H125802   3.658   5.657   1.906
 8520WAT     H225803   3.634   5.496   1.892
 8521WAT      O25804   9.021   7.317   1.431
 8521WAT     H125805   9.066   7.324   1.343
 8521WAT     H225806   8.950   7.388   1.438
 8522WAT      O25807   1.418   2.391   5.603
 8522WAT     H125808   1.505   2.402   5.652
 8522WAT     H225809   1.343   2.388   5.669
 8523WAT      O25810   7.123   5.993   2.719
 8523WAT     H125811   7.089   6.071   2.771
 8523WAT     H225812   7.106   6.008   2.621
 8524WAT      O25813   8.491   1.656   6.026
 8524WAT     H125814   8.510   1.754   6.030
 8524WAT     H225815   8.565   1.606   6.070
 8525WAT      O25816   1.847   5.038   5.872
 8525WAT     H125817   1.865   4.948   5.832
 8525WAT     H225818   1.896   5.046   5.959
 8526WAT      O25819   7.686   0.317   8.371
 8526WAT     H125820   7.684   0.330   8.272
 8526WAT     H225821   7.625   0.242   8.396
 8527WAT      O25822   2.383   2.094   3.367
 8527WAT     H125823   2.335   2.020   3.319
 8527WAT     H225824   2.368   2.085   3.466
 8528WAT      O25825   6.034   1.811   8.463
 8528WAT     H125826   6.028   1.721   8.506
 8528WAT     H225827   5.943   1.840   8.434
 8529WAT      O25828   1.118   0.579   7.935
 8529WAT     H125829   1.088   0.487   7.959
 8529WAT     H225830   1.042   0.629   7.892
 8530WAT      O25831   6.474   7.489   7.214
 8530WAT     H125832   6.483   7.491   7.114
 8530WAT     H225833   6.481   7.582   7.249
 8531WAT      O25834   8.623   4.122   5.677
 8531WAT     H125835   8.720   4.116   5.653
 8531WAT     H225836   8.567   4.093   5.599
 8532WAT      O25837   1.676   6.030   2.963
 8532WAT     H125838   1.579   6.050   2.974
 8532WAT     H225839   1.725   6.053   3.048
 8533WAT      O25840   1.774   8.774   5.695
 8533WAT     H125841   1.818   8.729   5.773
 8533WAT     H225842   1.706   8.713   5.656
 8534WAT      O25843   9.269   7.881   6.413
 8534WAT     H125844   9.207   7.808   6.443
 8534WAT     H225845   9.354   7.840   6.381
 8535WAT      O25846   5.209   9.047   0.045
 8535WAT     H125847   5.222   8.998   0.131
 8535WAT     H225848   5.130   9.108   0.053
 8536WAT      O25849   3.606   3.747   1.478
 8536WAT     H125850   3.560   3.780   1.395
 8536WAT     H225851   3.542   3.691   1.531
 8537WAT      O25852   0.807   8.178   1.158
 8537WAT     H125853   0.713   8.201   1.181
 8537WAT     H225854   0.839   8.236   1.084
 8538WAT      O25855   9.763   6.849   4.551
 8538WAT     H125856   9.828   6.784   4.590
 8538WAT     H225857   9.768   6.935   4.601
 8539WAT      O25858   5.251   2.634   3.300
 8539WAT     H125859   5.198   2.706   3.254
 8539WAT     H225860   5.206   2.609   3.385
 8540WAT      O25861   4.354   2.807   2.595
 8540WAT     H125862   4.261   2.775   2.576
 8540WAT     H225863   4.356   2.848   2.687
 8541WAT      O25864   0.947   4.412   8.783
 8541WAT     H125865   1.026   4.465   8.812
 8541WAT     H225866   0.975   4.343   8.716
 8542WAT      O25867   6.493   2.091   2.197
 8542WAT     H125868   6.480   2.122   2.103
 8542WAT     H225869   6.509   1.993   2.199
 8543WAT      O25870   3.062   7.187   1.673
 8543WAT     H125871   3.029   7.194   1.579
 8543WAT     H225872   3.108   7.271   1.699
 8544WAT      O25873   1.287   7.126   7.136
 8544WAT     H125874   1.303   7.176   7.051
 8544WAT     H225875   1.259   7.190   7.208
 8545WAT      O25876   5.811   2.430   9.486
 8545WAT     H125877   5.879   2.460   9.420
 8545WAT     H225878   5.724   2.414   9.439
 8546WAT      O25879   2.685   0.630   3.358
 8546WAT     H125880   2.669   0.633   3.259
 8546WAT     H225881   2.606   0.588   3.404
 8547WAT      O25882   2.266   8.197   5.843
 8547WAT     H125883   2.236   8.146   5.762
 8547WAT     H225884   2.195   8.192   5.913
 8548WAT      O25885   5.295   8.750   0.579
 8548WAT     H125886   5.345   8.828   0.540
 8548WAT     H225887   5.255   8.696   0.505
 8549WAT      O25888   3.798   1.853   4.270
 8549WAT     H125889   3.816   1.951   4.262
 8549WAT     H225890   3.766   1.818   4.182
 8550WAT      O25891   1.775   2.763   0.734
 8550WAT     H125892   1.680   2.754   0.702
 8550WAT     H225893   1.830   2.691   0.692
 8551WAT      O25894   2.422   3.644   9.479
 8551WAT     H125895   2.407   3.743   9.473
 8551WAT     H225896   2.416   3.615   9.575
 8552WAT      O25897   4.101   0.640   4.531
 8552WAT     H125898   4.084   0.546   4.501
 8552WAT     H225899   4.183   0.674   4.485
 8553WAT      O25900   0.712   6.034   9.189
 8553WAT     H125901   0.665   5.996   9.109
 8553WAT     H225902   0.781   5.969   9.220
 8554WAT      O25903   0.423   8.122   9.335
 8554WAT     H125904   0.378   8.132   9.423
 8554WAT     H225905   0.480   8.202   9.316
 8555WAT      O25906   9.766   6.068   7.936
 8555WAT     H125907   9.670   6.045   7.953
 8555WAT     H225908   9.799   6.128   8.009
 8556WAT      O25909   5.701   6.702   5.775
 8556WAT     H125910   5.624   6.705   5.839
 8556WAT     H225911   5.715   6.608   5.745
 8557WAT      O25912   8.936   8.628   2.097
 8557WAT     H125913   8.944   8.570   2.179
 8557WAT     H225914   9.017   8.617   2.040
 8558WAT      O25915   8.321   7.353   2.815
 8558WAT     H125916   8.308   7.381   2.910
 8558WAT     H225917   8.390   7.411   2.772
 8559WAT      O25918   0.203   8.404   0.120
 8559WAT     H125919   0.282   8.452   0.081
 8559WAT     H225920   0.206   8.308   0.091
 8560WAT      O25921   8.712   6.773   1.999
 8560WAT     H125922   8.617   6.779   1.967
 8560WAT     H225923   8.725   6.838   2.074
 8561WAT      O25924   4.669   1.289   5.912
 8561WAT     H125925   4.703   1.343   5.834
 8561WAT     H225926   4.728   1.305   5.991
 8562WAT      O25927   7.720   7.660   5.589
 8562WAT     H125928   7.778   7.701   5.659
 8562WAT     H225929   7.632   7.635   5.629
 8563WAT      O25930   0.167   2.276   8.992
 8563WAT     H125931   0.133   2.293   9.084
 8563WAT     H225932   0.090   2.272   8.928
 8564WAT      O25933   8.394   8.525   8.740
 8564WAT     H125934   8.430   8.511   8.832
 8564WAT     H225935   8.470   8.536   8.676
 8565WAT      O25936   1.263   7.804   2.131
 8565WAT     H125937   1.340   7.769   2.184
 8565WAT     H225938   1.185   7.743   2.142
 8566WAT      O25939   6.091   9.538   2.964
 8566WAT     H125940   6.030   9.503   3.035
 8566WAT     H225941   6.063   9.501   2.875
 8567WAT      O25942   0.496   8.902   4.935
 8567WAT     H125943   0.461   8.904   5.029
 8567WAT     H225944   0.463   8.982   4.885
 8568WAT      O25945   9.789   1.083   4.727
 8568WAT     H125946   9.858   1.155   4.718
 8568WAT     H225947   9.807   1.012   4.660
 8569WAT      O25948   9.477   1.227   7.892
 8569WAT     H125949   9.422   1.177   7.960
 8569WAT     H225950   9.419   1.291   7.842
 8570WAT      O25951   8.623   9.662   3.931
 8570WAT     H125952   8.631   9.573   3.977
 8570WAT     H225953   8.561   9.654   3.853
 8571WAT      O25954   8.198   6.333   1.145
 8571WAT     H125955   8.134   6.392   1.097
 8571WAT     H225956   8.232   6.263   1.082
 8572WAT      O25957   9.124   1.505   2.619
 8572WAT     H125958   9.190   1.482   2.547
 8572WAT     H225959   9.080   1.592   2.597
 8573WAT      O25960   0.016   6.652   8.357
 8573WAT     H125961   0.072   6.638   8.439
 8573WAT     H225962   0.008   6.750   8.339
 8574WAT      O25963   0.763   5.748   2.135
 8574WAT     H125964   0.780   5.824   2.197
 8574WAT     H225965   0.705   5.779   2.060
 8575WAT      O25966   1.555   1.625   7.570
 8575WAT     H125967   1.599   1.536   7.558
 8575WAT     H225968   1.490   1.641   7.496
 8576WAT      O25969   8.282   8.835   9.194
 8576WAT     H125970   8.215   8.822   9.267
 8576WAT     H225971   8.246   8.901   9.128
 8577WAT      O25972   3.562   7.329   5.612
 8577WAT     H125973   3.549   7.243   5.662
 8577WAT     H225974   3.483   7.388   5.626
 8578WAT      O25975   2.216   8.378   6.658
 8578WAT     H125976   2.256   8.461   6.619
 8578WAT     H225977   2.117   8.390   6.668
 8579WAT      O25978   3.538   7.500   8.292
 8579WAT     H125979   3.495   7.524   8.206
 8579WAT     H225980   3.620   7.555   8.305
 8580WAT      O25981   9.471   5.855   0.202
 8580WAT     H125982   9.392   5.894   0.155
 8580WAT     H225983   9.466   5.755   0.199
 8581WAT      O25984   5.603   7.063   6.644
 8581WAT     H125985   5.682   7.119   6.669
 8581WAT     H225986   5.549   7.043   6.725
 8582WAT      O25987   2.091   5.571   8.543
 8582WAT     H125988   2.038   5.614   8.616
 8582WAT     H225989   2.175   5.533   8.581
 8583WAT      O25990   5.150   3.467   6.550
 8583WAT     H125991   5.061   3.462   6.504
 8583WAT     H225992   5.143   3.422   6.639
 8584WAT      O25993   8.773   9.605   8.648
 8584WAT     H125994   8.673   9.600   8.642
 8584WAT     H225995   8.813   9.545   8.579
 8585WAT      O25996   9.294   4.837   7.719
 8585WAT     H125997   9.228   4.812   7.789
 8585WAT     H225998   9.339   4.923   7.744
 8586WAT      O25999   2.101   1.069   1.694
 8586WAT     H126000   2.109   1.128   1.613
 8586WAT     H226001   2.134   0.977   1.671
 8587WAT      O26002   6.675   6.253   0.908
 8587WAT     H126003   6.682   6.248   0.808
 8587WAT     H226004   6.667   6.160   0.946
 8588WAT      O26005   8.610   6.911   3.018
 8588WAT     H126006   8.659   6.858   3.087
 8588WAT     H226007   8.559   6.849   2.959
 8589WAT      O26008   7.346   7.109   4.448
 8589WAT     H126009   7.339   7.015   4.483
 8589WAT     H226010   7.255   7.143   4.425
 8590WAT      O26011   4.069   5.536   7.798
 8590WAT     H126012   4.088   5.506   7.891
 8590WAT     H226013   3.976   5.508   7.772
 8591WAT      O26014   7.093   6.260   2.801
 8591WAT     H126015   7.095   6.267   2.901
 8591WAT     H226016   7.125   6.345   2.761
 8592WAT      O26017   9.372   3.876   1.788
 8592WAT     H126018   9.287   3.904   1.832
 8592WAT     H226019   9.371   3.778   1.771
 8593WAT      O26020   0.115   3.415   4.973
 8593WAT     H126021   0.092   3.513   4.975
 8593WAT     H226022   0.065   3.371   4.897
 8594WAT      O26023   1.827   9.363   7.341
 8594WAT     H126024   1.907   9.423   7.340
 8594WAT     H226025   1.745   9.416   7.322
 8595WAT      O26026   8.490   2.943   3.469
 8595WAT     H126027   8.575   2.980   3.431
 8595WAT     H226028   8.509   2.894   3.554
 8596WAT      O26029   0.601   8.958   2.134
 8596WAT     H126030   0.531   9.015   2.177
 8596WAT     H226031   0.591   8.963   2.035
 8597WAT      O26032   2.722   1.992   5.269
 8597WAT     H126033   2.633   1.999   5.223
 8597WAT     H226034   2.720   1.918   5.336
 8598WAT      O26035   5.995   7.124   3.035
 8598WAT     H126036   6.067   7.096   2.971
 8598WAT     H226037   5.981   7.052   3.103
 8599WAT      O26038   4.367   3.669   5.771
 8599WAT     H126039   4.298   3.670   5.843
 8599WAT     H226040   4.417   3.755   5.772
 8600WAT      O26041   1.498   0.439   9.597
 8600WAT     H126042   1.547   0.522   9.626
 8600WAT     H226043   1.532   0.410   9.508
 8601WAT      O26044   0.044   0.217   7.228
 8601WAT     H126045   0.096   0.143   7.185
 8601WAT     H226046   0.008   0.278   7.158
 8602WAT      O26047   1.405   5.951   3.130
 8602WAT     H126048   1.435   5.990   3.217
 8602WAT     H226049   1.383   6.024   3.066
 8603WAT      O26050   3.849   3.692   9.446
 8603WAT     H126051   3.905   3.618   9.409
 8603WAT     H226052   3.793   3.732   9.373
 8604WAT      O26053   9.606   1.544   8.805
 8604WAT     H126054   9.648   1.597   8.731
 8604WAT     H226055   9.583   1.606   8.880
 8605WAT      O26056   3.243   8.443   1.539
 8605WAT     H126057   3.262   8.518   1.475
 8605WAT     H226058   3.174   8.472   1.605
 8606WAT      O26059   3.897   0.322   2.695
 8606WAT     H126060   3.939   0.396   2.642
 8606WAT     H226061   3.804   0.305   2.661
 8607WAT      O26062   3.354   5.552   7.988
 8607WAT     H126063   3.280   5.565   7.922
 8607WAT     H226064   3.365   5.635   8.042
 8608WAT      O26065   4.350   6.007   3.291
 8608WAT     H126066   4.430   5.997   3.350
 8608WAT     H226067   4.272   5.963   3.334
 8609WAT      O26068   9.444   1.331   8.268
 8609WAT     H126069   9.410   1.283   8.349
 8609WAT     H226070   9.522   1.280   8.230
 8610WAT      O26071   7.525   4.161   2.341
 8610WAT     H126072   7.436   4.199   2.364
 8610WAT     H226073   7.575   4.225   2.282
 8611WAT      O26074   2.392   1.327   9.745
 8611WAT     H126075   2.317   1.307   9.682
 8611WAT     H226076   2.367   1.404   9.804
 8612WAT      O26077   5.352   4.303   0.801
 8612WAT     H126078   5.383   4.376   0.740
 8612WAT     H226079   5.269   4.332   0.848
 8613WAT      O26080   7.213   4.922   2.771
 8613WAT     H126081   7.136   4.859   2.761
 8613WAT     H226082   7.212   4.963   2.862
 8614WAT      O26083   2.896   7.775   5.873
 8614WAT     H126084   2.903   7.866   5.833
 8614WAT     H226085   2.917   7.780   5.971
 8615WAT      O26086   7.347   9.775   0.125
 8615WAT     H126087   7.442   9.763   0.155
 8615WAT     H226088   7.291   9.702   0.164
 8616WAT      O26089   0.468   9.361   4.139
 8616WAT     H126090   0.487   9.459   4.130
 8616WAT     H226091   0.378   9.341   4.101
 8617WAT      O26092   8.712   4.837   2.332
 8617WAT     H126093   8.666   4.892   2.401
 8617WAT     H226094   8.734   4.747   2.371
 8618WAT      O26095   5.288   0.128   3.687
 8618WAT     H126096   5.379   0.147   3.650
 8618WAT     H226097   5.220   0.174   3.631
 8619WAT      O26098   9.875   7.163   7.740
 8619WAT     H126099   9.934   7.095   7.782
 8619WAT     H226100   9.909   7.186   7.649
 8620WAT      O26101   6.449   4.380   3.362
 8620WAT     H126102   6.365   4.434   3.351
 8620WAT     H226103   6.447   4.335   3.451
 8621WAT      O26104   2.949   6.561   9.520
 8621WAT     H126105   3.043   6.596   9.517
 8621WAT     H226106   2.906   6.572   9.430
 8622WAT      O26107   8.838   6.867   7.292
 8622WAT     H126108   8.922   6.911   7.322
 8622WAT     H226109   8.858   6.775   7.258
 8623WAT      O26110   0.100   6.198   2.602
 8623WAT     H126111   0.065   6.151   2.520
 8623WAT     H226112   0.066   6.292   2.603
 8624WAT      O26113   6.689   4.593   4.458
 8624WAT     H126114   6.731   4.589   4.548
 8624WAT     H226115   6.630   4.512   4.445
 8625WAT      O26116   6.915   8.957   4.875
 8625WAT     H126117   6.865   9.018   4.813
 8625WAT     H226118   6.856   8.879   4.898
 8626WAT      O26119   8.286   5.974   4.713
 8626WAT     H126120   8.243   6.061   4.692
 8626WAT     H226121   8.232   5.899   4.675
 8627WAT      O26122   7.707   5.506   2.451
 8627WAT     H126123   7.740   5.548   2.366
 8627WAT     H226124   7.679   5.577   2.515
 8628WAT      O26125   2.784   2.819   0.339
 8628WAT     H126126   2.803   2.917   0.346
 8628WAT     H226127   2.870   2.768   0.343
 8629WAT      O26128   7.122   1.600   0.329
 8629WAT     H126129   7.052   1.535   0.298
 8629WAT     H226130   7.077   1.679   0.370
 8630WAT      O26131   3.087   2.937   0.117
 8630WAT     H126132   3.008   2.925   0.057
 8630WAT     H226133   3.077   2.878   0.197
 8631WAT      O26134   6.196   1.875   6.089
 8631WAT     H126135   6.220   1.788   6.131
 8631WAT     H226136   6.141   1.859   6.007
 8632WAT      O26137   8.315   1.301   9.657
 8632WAT     H126138   8.269   1.390   9.649
 8632WAT     H226139   8.286   1.242   9.583
 8633WAT      O26140   5.571   1.330   3.792
 8633WAT     H126141   5.628   1.298   3.716
 8633WAT     H226142   5.494   1.381   3.756
 8634WAT      O26143   6.814   2.238   9.174
 8634WAT     H126144   6.805   2.149   9.218
 8634WAT     H226145   6.762   2.239   9.088
 8635WAT      O26146   8.861   3.581   3.409
 8635WAT     H126147   8.765   3.554   3.406
 8635WAT     H226148   8.918   3.503   3.384
 8636WAT      O26149   0.728   7.304   8.375
 8636WAT     H126150   0.711   7.348   8.463
 8636WAT     H226151   0.789   7.361   8.320
 8637WAT      O26152   0.494   5.542   3.178
 8637WAT     H126153   0.520   5.635   3.152
 8637WAT     H226154   0.436   5.503   3.106
 8638WAT      O26155   0.317   0.792   1.625
 8638WAT     H126156   0.381   0.852   1.673
 8638WAT     H226157   0.335   0.697   1.650
 8639WAT      O26158   8.223   1.428   5.267
 8639WAT     H126159   8.260   1.460   5.180
 8639WAT     H226160   8.298   1.394   5.324
 8640WAT      O26161   4.822   6.193   9.631
 8640WAT     H126162   4.910   6.165   9.592
 8640WAT     H226163   4.750   6.131   9.599
 8641WAT      O26164   3.999   4.100   7.387
 8641WAT     H126165   3.969   4.007   7.367
 8641WAT     H226166   4.091   4.098   7.427
 8642WAT      O26167   8.366   0.279   0.131
 8642WAT     H126168   8.430   0.232   0.071
 8642WAT     H226169   8.290   0.315   0.077
 8643WAT      O26170   1.265   0.012   1.414
 8643WAT     H126171   1.179   0.022   1.365
 8643WAT     H226172   1.337  -0.018   1.351
 8644WAT      O26173   3.470   1.767   7.951
 8644WAT     H126174   3.492   1.864   7.957
 8644WAT     H226175   3.554   1.716   7.931
 8645WAT      O26176   7.827   8.940   2.646
 8645WAT     H126177   7.823   8.851   2.600
 8645WAT     H226178   7.754   8.947   2.713
 8646WAT      O26179   3.030   2.011   7.046
 8646WAT     H126180   3.117   2.018   6.997
 8646WAT     H226181   2.962   1.966   6.987
 8647WAT      O26182   2.410   6.436   8.573
 8647WAT     H126183   2.385   6.369   8.503
 8647WAT     H226184   2.412   6.392   8.662
 8648WAT      O26185   1.333   5.447   5.992
 8648WAT     H126186   1.388   5.531   5.989
 8648WAT     H226187   1.312   5.425   6.088
 8649WAT      O26188   0.490   1.872   1.031
 8649WAT     H126189   0.562   1.934   1.063
 8649WAT     H226190   0.513   1.778   1.058
 8650WAT      O26191   7.044   7.235   3.974
 8650WAT     H126192   6.979   7.261   4.046
 8650WAT     H226193   6.999   7.171   3.911
 8651WAT      O26194   1.476   8.409   4.912
 8651WAT     H126195   1.445   8.349   4.838
 8651WAT     H226196   1.484   8.357   4.997
 8652WAT      O26197   5.829   4.998   5.515
 8652WAT     H126198   5.757   5.068   5.518
 8652WAT     H226199   5.839   4.965   5.421
 8653WAT      O26200   6.762   0.123   0.398
 8653WAT     H126201   6.761   0.106   0.300
 8653WAT     H226202   6.843   0.082   0.439
 8654WAT      O26203   0.543   0.241   5.187
 8654WAT     H126204   0.559   0.262   5.091
 8654WAT     H226205   0.461   0.185   5.196
 8655WAT      O26206   7.278   3.296   3.568
 8655WAT     H126207   7.241   3.292   3.661
 8655WAT     H226208   7.371   3.331   3.571
 8656WAT      O26209   7.176   2.856   3.647
 8656WAT     H126210   7.184   2.790   3.723
 8656WAT     H226211   7.263   2.860   3.598
 8657WAT      O26212   6.882   8.563   6.220
 8657WAT     H126213   6.933   8.649   6.222
 8657WAT     H226214   6.940   8.489   6.253
 8658WAT      O26215   8.905   1.407   6.389
 8658WAT     H126216   8.850   1.386   6.470
 8658WAT     H226217   8.992   1.359   6.394
 8659WAT      O26218   4.406   8.689   6.356
 8659WAT     H126219   4.411   8.589   6.359
 8659WAT     H226220   4.495   8.726   6.330
 8660WAT      O26221   3.300   5.423   5.610
 8660WAT     H126222   3.390   5.466   5.602
 8660WAT     H226223   3.255   5.455   5.694
 8661WAT      O26224   5.639   9.290   6.919
 8661WAT     H126225   5.605   9.279   7.013
 8661WAT     H226226   5.565   9.275   6.854
 8662WAT      O26227   4.199   6.583   7.569
 8662WAT     H126228   4.254   6.521   7.625
 8662WAT     H226229   4.210   6.677   7.602
 8663WAT      O26230   6.411   1.391   6.199
 8663WAT     H126231   6.472   1.465   6.225
 8663WAT     H226232   6.337   1.426   6.142
 8664WAT      O26233   9.165   6.870   3.005
 8664WAT     H126234   9.110   6.790   2.982
 8664WAT     H226235   9.262   6.848   2.994
 8665WAT      O26236   2.902   6.541   0.577
 8665WAT     H126237   2.838   6.616   0.559
 8665WAT     H226238   2.977   6.575   0.634
 8666WAT      O26239   0.261   2.161   7.701
 8666WAT     H126240   0.247   2.130   7.607
 8666WAT     H226241   0.255   2.261   7.704
 8667WAT      O26242   1.049   1.975   1.228
 8667WAT     H126243   0.975   2.042   1.237
 8667WAT     H226244   1.029   1.895   1.284
 8668WAT      O26245   2.762   3.228   1.111
 8668WAT     H126246   2.774   3.276   1.024
 8668WAT     H226247   2.743   3.294   1.184
 8669WAT      O26248   1.579   0.858   9.182
 8669WAT     H126249   1.531   0.822   9.262
 8669WAT     H226250   1.537   0.821   9.099
 8670WAT      O26251   2.436   3.330   4.464
 8670WAT     H126252   2.373   3.326   4.542
 8670WAT     H226253   2.515   3.272   4.483
 8671WAT      O26254   5.702   2.669   5.735
 8671WAT     H126255   5.671   2.598   5.799
 8671WAT     H226256   5.638   2.746   5.738
 8672WAT      O26257   1.259   9.538   4.190
 8672WAT     H126258   1.259   9.528   4.090
 8672WAT     H226259   1.333   9.599   4.218
 8673WAT      O26260   1.599   1.705   7.987
 8673WAT     H126261   1.608   1.755   7.901
 8673WAT     H226262   1.532   1.631   7.976
 8674WAT      O26263   5.985   8.608   5.062
 8674WAT     H126264   5.885   8.600   5.072
 8674WAT     H226265   6.019   8.677   5.125
 8675WAT      O26266   1.760   5.214   6.869
 8675WAT     H126267   1.850   5.187   6.833
 8675WAT     H226268   1.761   5.312   6.889
 8676WAT      O26269   6.484   5.836   1.954
 8676WAT     H126270   6.476   5.755   1.896
 8676WAT     H226271   6.440   5.818   2.043
 8677WAT      O26272   7.345   2.099   9.768
 8677WAT     H126273   7.289   2.162   9.823
 8677WAT     H226274   7.407   2.049   9.828
 8678WAT      O26275   3.052   7.082   7.123
 8678WAT     H126276   3.111   7.111   7.047
 8678WAT     H226277   3.048   6.982   7.126
 8679WAT      O26278   3.061   0.114   2.535
 8679WAT     H126279   3.054   0.045   2.607
 8679WAT     H226280   3.087   0.202   2.575
 8680WAT      O26281   7.491   7.205   0.560
 8680WAT     H126282   7.492   7.146   0.640
 8680WAT     H226283   7.582   7.243   0.545
 8681WAT      O26284   0.168   5.583   4.635
 8681WAT     H126285   0.073   5.589   4.667
 8681WAT     H226286   0.227   5.562   4.713
 8682WAT      O26287   8.588   0.235   4.268
 8682WAT     H126288   8.507   0.213   4.322
 8682WAT     H226289   8.593   0.175   4.188
 8683WAT      O26290   6.616   9.502   7.446
 8683WAT     H126291   6.628   9.494   7.347
 8683WAT     H226292   6.692   9.458   7.493
 8684WAT      O26293   4.010   7.633   8.689
 8684WAT     H126294   3.980   7.547   8.732
 8684WAT     H226295   4.069   7.683   8.753
 8685WAT      O26296   8.951   7.629   2.860
 8685WAT     H126297   9.035   7.579   2.882
 8685WAT     H226298   8.930   7.692   2.934
 8686WAT      O26299   7.319   5.534   2.644
 8686WAT     H126300   7.250   5.580   2.588
 8686WAT     H226301   7.372   5.471   2.586
 8687WAT      O26302   9.730   6.669   8.081
 8687WAT     H126303   9.637   6.694   8.053
 8687WAT     H226304   9.760   6.730   8.155
 8688WAT      O26305   5.771   5.877   9.570
 8688WAT     H126306   5.835   5.950   9.546
 8688WAT     H226307   5.822   5.797   9.601
 8689WAT      O26308   9.125   0.048   2.397
 8689WAT     H126309   9.160   0.142   2.390
 8689WAT     H226310   9.149  -0.002   2.313
 8690WAT      O26311   8.861   5.433   6.577
 8690WAT     H126312   8.830   5.438   6.672
 8690WAT     H226313   8.848   5.341   6.542
 8691WAT      O26314   3.281   1.661   2.216
 8691WAT     H126315   3.221   1.675   2.295
 8691WAT     H226316   3.227   1.654   2.133
 8692WAT      O26317   5.038   8.008   7.433
 8692WAT     H126318   5.043   8.023   7.532
 8692WAT     H226319   5.057   7.911   7.414
 8693WAT      O26320   1.165   0.068   9.122
 8693WAT     H126321   1.129   0.008   9.195
 8693WAT     H226322   1.261   0.046   9.106
 8694WAT      O26323   8.679   6.967   6.481
 8694WAT     H126324   8.679   6.962   6.581
 8694WAT     H226325   8.770   6.991   6.449
 8695WAT      O26326   5.133   4.989   7.645
 8695WAT     H126327   5.058   4.923   7.651
 8695WAT     H226328   5.168   5.007   7.737
 8696WAT      O26329   2.954   4.660   8.881
 8696WAT     H126330   2.860   4.665   8.917
 8696WAT     H226331   2.953   4.613   8.793
 8697WAT      O26332   6.834   8.466   7.243
 8697WAT     H126333   6.865   8.500   7.332
 8697WAT     H226334   6.797   8.373   7.254
 8698WAT      O26335   7.171   6.854   8.191
 8698WAT     H126336   7.088   6.863   8.246
 8698WAT     H226337   7.147   6.829   8.097
 8699WAT      O26338   3.305   2.044   6.979
 8699WAT     H126339   3.326   2.068   6.885
 8699WAT     H226340   3.318   2.124   7.038
 8700WAT      O26341   4.266   5.509   8.496
 8700WAT     H126342   4.327   5.548   8.427
 8700WAT     H226343   4.271   5.409   8.492
 8701WAT      O26344   1.585   2.036   9.155
 8701WAT     H126345   1.562   1.964   9.089
 8701WAT     H226346   1.683   2.035   9.172
 8702WAT      O26347   6.008   9.101   3.232
 8702WAT     H126348   6.069   9.063   3.301
 8702WAT     H226349   5.924   9.132   3.276
 8703WAT      O26350   1.754   7.123   8.300
 8703WAT     H126351   1.657   7.109   8.277
 8703WAT     H226352   1.789   7.043   8.347
 8704WAT      O26353   6.546   6.598   7.959
 8704WAT     H126354   6.605   6.679   7.958
 8704WAT     H226355   6.576   6.535   8.031
 8705WAT      O26356   3.146   7.698   5.663
 8705WAT     H126357   3.143   7.599   5.673
 8705WAT     H226358   3.208   7.737   5.732
 8706WAT      O26359   4.856   5.814   8.349
 8706WAT     H126360   4.893   5.722   8.367
 8706WAT     H226361   4.760   5.817   8.378
 8707WAT      O26362   5.237   1.140   6.612
 8707WAT     H126363   5.236   1.229   6.566
 8707WAT     H226364   5.295   1.077   6.560
 8708WAT      O26365   9.839   1.932   5.733
 8708WAT     H126366   9.813   1.873   5.809
 8708WAT     H226367   9.892   2.009   5.767
 8709WAT      O26368   9.818   6.234   1.045
 8709WAT     H126369   9.767   6.200   0.966
 8709WAT     H226370   9.904   6.274   1.014
 8710WAT      O26371   5.074   6.203   4.817
 8710WAT     H126372   5.128   6.285   4.800
 8710WAT     H226373   5.110   6.155   4.896
 8711WAT      O26374   6.832   7.806   1.356
 8711WAT     H126375   6.818   7.706   1.353
 8711WAT     H226376   6.927   7.827   1.336
 8712WAT      O26377   1.764   1.141   7.635
 8712WAT     H126378   1.839   1.092   7.679
 8712WAT     H226379   1.718   1.080   7.570
 8713WAT      O26380   2.990   3.438   7.393
 8713WAT     H126381   2.907   3.435   7.338
 8713WAT     H226382   3.061   3.382   7.350
 8714WAT      O26383   0.259   7.994   1.412
 8714WAT     H126384   0.210   7.909   1.431
 8714WAT     H226385   0.317   8.018   1.490
 8715WAT      O26386   5.289   5.545   4.249
 8715WAT     H126387   5.374   5.572   4.295
 8715WAT     H226388   5.248   5.625   4.206
 8716WAT      O26389   9.226   6.031   2.379
 8716WAT     H126390   9.276   5.946   2.396
 8716WAT     H226391   9.130   6.010   2.361
 8717WAT      O26392   4.480   4.781   9.860
 8717WAT     H126393   4.509   4.690   9.828
 8717WAT     H226394   4.472   4.779   9.960
 8718WAT      O26395   0.091   2.662   7.732
 8718WAT     H126396   0.140   2.748   7.744
 8718WAT     H226397   0.027   2.649   7.807
 8719WAT      O26398   8.730   4.465   0.514
 8719WAT     H126399   8.830   4.452   0.511
 8719WAT     H226400   8.700   4.505   0.428
 8720WAT      O26401   6.561   9.102   4.951
 8720WAT     H126402   6.640   9.047   4.980
 8720WAT     H226403   6.578   9.141   4.861
 8721WAT      O26404   4.317   2.371   4.493
 8721WAT     H126405   4.359   2.407   4.577
 8721WAT     H226406   4.228   2.415   4.479
 8722WAT      O26407   5.381   1.446   7.506
 8722WAT     H126408   5.450   1.376   7.486
 8722WAT     H226409   5.302   1.403   7.551
 8723WAT      O26410   9.157   7.822   8.853
 8723WAT     H126411   9.126   7.896   8.913
 8723WAT     H226412   9.254   7.805   8.868
 8724WAT      O26413   7.502   3.705   5.277
 8724WAT     H126414   7.579   3.642   5.272
 8724WAT     H226415   7.511   3.762   5.358
 8725WAT      O26416   8.246   5.140   7.224
 8725WAT     H126417   8.250   5.117   7.127
 8725WAT     H226418   8.301   5.073   7.275
 8726WAT      O26419   2.110   0.907   4.804
 8726WAT     H126420   2.108   0.998   4.846
 8726WAT     H226421   2.086   0.838   4.873
 8727WAT      O26422   6.477   5.900   3.418
 8727WAT     H126423   6.417   5.955   3.476
 8727WAT     H226424   6.571   5.910   3.449
 8728WAT      O26425   4.833   4.151   9.724
 8728WAT     H126426   4.779   4.173   9.643
 8728WAT     H226427   4.897   4.225   9.743
 8729WAT      O26428   4.494   6.286   9.584
 8729WAT     H126429   4.538   6.360   9.636
 8729WAT     H226430   4.493   6.202   9.639
 8730WAT      O26431   6.223   0.099   9.601
 8730WAT     H126432   6.304   0.061   9.557
 8730WAT     H226433   6.229   0.199   9.600
 8731WAT      O26434   6.705   5.920   5.675
 8731WAT     H126435   6.737   5.968   5.593
 8731WAT     H226436   6.676   5.827   5.650
 8732WAT      O26437   0.997   5.366   7.748
 8732WAT     H126438   0.932   5.410   7.810
 8732WAT     H226439   0.954   5.285   7.707
 8733WAT      O26440   2.638   0.331   7.990
 8733WAT     H126441   2.586   0.409   8.025
 8733WAT     H226442   2.656   0.344   7.892
 8734WAT      O26443   5.666   4.624   9.850
 8734WAT     H126444   5.765   4.633   9.858
 8734WAT     H226445   5.622   4.671   9.926
 8735WAT      O26446   1.299   4.979   1.203
 8735WAT     H126447   1.245   4.942   1.279
 8735WAT     H226448   1.257   4.953   1.117
 8736WAT      O26449   8.930   1.672   4.656
 8736WAT     H126450   8.937   1.679   4.557
 8736WAT     H226451   8.950   1.578   4.685
 8737WAT      O26452   1.659   6.065   1.033
 8737WAT     H126453   1.648   6.123   1.114
 8737WAT     H226454   1.576   6.069   0.978
 8738WAT      O26455   8.257   4.493   8.462
 8738WAT     H126456   8.331   4.560   8.454
 8738WAT     H226457   8.175   4.527   8.416
 8739WAT      O26458   3.005   5.255   8.201
 8739WAT     H126459   2.906   5.251   8.189
 8739WAT     H226460   3.028   5.236   8.296
 8740WAT      O26461   2.511   7.185   4.905
 8740WAT     H126462   2.501   7.094   4.864
 8740WAT     H226463   2.608   7.209   4.906
 8741WAT      O26464   3.255   9.770   6.687
 8741WAT     H126465   3.345   9.754   6.727
 8741WAT     H226466   3.208   9.682   6.676
 8742WAT      O26467   4.056   1.352   0.919
 8742WAT     H126468   4.008   1.293   0.984
 8742WAT     H226469   4.136   1.393   0.963
 8743WAT      O26470   5.435   9.689   2.437
 8743WAT     H126471   5.488   9.760   2.390
 8743WAT     H226472   5.339   9.717   2.440
 8744WAT      O26473   6.616   5.620   5.566
 8744WAT     H126474   6.576   5.528   5.561
 8744WAT     H226475   6.708   5.618   5.525
 8745WAT      O26476   8.382   4.081   4.711
 8745WAT     H126477   8.308   4.142   4.740
 8745WAT     H226478   8.396   4.090   4.613
 8746WAT      O26479   4.318   3.828   7.373
 8746WAT     H126480   4.266   3.839   7.457
 8746WAT     H226481   4.323   3.916   7.325
 8747WAT      O26482   3.417   7.491   5.372
 8747WAT     H126483   3.333   7.545   5.380
 8747WAT     H226484   3.494   7.553   5.354
 8748WAT      O26485   1.071   9.140   4.645
 8748WAT     H126486   1.039   9.195   4.568
 8748WAT     H226487   1.165   9.109   4.627
 8749WAT      O26488   5.417   1.787   1.074
 8749WAT     H126489   5.321   1.811   1.059
 8749WAT     H226490   5.470   1.807   0.992
 8750WAT      O26491   3.053   1.429   3.351
 8750WAT     H126492   3.147   1.417   3.319
 8750WAT     H226493   3.004   1.342   3.342
 8751WAT      O26494   2.714   6.977   0.311
 8751WAT     H126495   2.669   6.978   0.400
 8751WAT     H226496   2.754   6.886   0.295
 8752WAT      O26497   2.404   9.086   0.545
 8752WAT     H126498   2.312   9.124   0.538
 8752WAT     H226499   2.468   9.144   0.494
 8753WAT      O26500   5.057   4.146   6.774
 8753WAT     H126501   5.143   4.096   6.765
 8753WAT     H226502   5.044   4.174   6.869
 8754WAT      O26503   0.849   3.143   6.586
 8754WAT     H126504   0.883   3.209   6.519
 8754WAT     H226505   0.755   3.165   6.611
 8755WAT      O26506   7.185   2.776   4.115
 8755WAT     H126507   7.125   2.856   4.121
 8755WAT     H226508   7.280   2.805   4.128
 8756WAT      O26509   5.581   2.664   2.226
 8756WAT     H126510   5.610   2.588   2.284
 8756WAT     H226511   5.514   2.632   2.159
 8757WAT      O26512   5.728   3.766   9.737
 8757WAT     H126513   5.680   3.714   9.666
 8757WAT     H226514   5.668   3.776   9.817
 8758WAT      O26515   4.465   5.304   8.048
 8758WAT     H126516   4.411   5.386   8.030
 8758WAT     H226517   4.476   5.293   8.147
 8759WAT      O26518   6.093   2.879   3.815
 8759WAT     H126519   6.054   2.817   3.747
 8759WAT     H226520   6.025   2.949   3.839
 8760WAT      O26521   3.814   3.481   8.268
 8760WAT     H126522   3.811   3.538   8.350
 8760WAT     H226523   3.728   3.430   8.260
 8761WAT      O26524   4.981   7.458   5.308
 8761WAT     H126525   5.007   7.419   5.220
 8761WAT     H226526   5.027   7.545   5.322
 8762WAT      O26527   0.727   9.338   5.182
 8762WAT     H126528   0.729   9.400   5.261
 8762WAT     H226529   0.636   9.298   5.173
 8763WAT      O26530   6.891   3.330   3.808
 8763WAT     H126531   6.844   3.282   3.734
 8763WAT     H226532   6.946   3.265   3.860
 8764WAT      O26533   5.986   7.412   9.223
 8764WAT     H126534   5.936   7.326   9.233
 8764WAT     H226535   6.056   7.418   9.295
 8765WAT      O26536   4.859   6.426   1.769
 8765WAT     H126537   4.761   6.427   1.791
 8765WAT     H226538   4.892   6.519   1.757
 8766WAT      O26539   6.621   5.062   4.064
 8766WAT     H126540   6.539   5.012   4.090
 8766WAT     H226541   6.648   5.123   4.139
 8767WAT      O26542   8.542   5.237   1.480
 8767WAT     H126543   8.529   5.220   1.578
 8767WAT     H226544   8.516   5.155   1.429
 8768WAT      O26545   6.360   7.001   6.361
 8768WAT     H126546   6.419   7.008   6.280
 8768WAT     H226547   6.266   6.985   6.333
 8769WAT      O26548   1.747   2.560   6.141
 8769WAT     H126549   1.676   2.502   6.101
 8769WAT     H226550   1.724   2.656   6.124
 8770WAT      O26551   4.721   2.467   6.941
 8770WAT     H126552   4.771   2.381   6.928
 8770WAT     H226553   4.771   2.541   6.896
 8771WAT      O26554   3.944   9.721   1.531
 8771WAT     H126555   3.938   9.820   1.540
 8771WAT     H226556   3.972   9.681   1.618
 8772WAT      O26557   0.049   3.701   5.846
 8772WAT     H126558   0.083   3.734   5.757
 8772WAT     H226559  -0.034   3.752   5.870
 8773WAT      O26560   0.033   7.631   5.246
 8773WAT     H126561  -0.046   7.573   5.227
 8773WAT     H226562   0.072   7.606   5.334
 8774WAT      O26563   8.177   6.137   1.867
 8774WAT     H126564   8.175   6.218   1.809
 8774WAT     H226565   8.155   6.056   1.812
 8775WAT      O26566   4.609   1.184   7.530
 8775WAT     H126567   4.526   1.174   7.586
 8775WAT     H226568   4.645   1.277   7.540
 8776WAT      O26569   3.629   9.085   7.557
 8776WAT     H126570   3.694   9.053   7.626
 8776WAT     H226571   3.657   9.051   7.467
 8777WAT      O26572   8.698   7.961   0.733
 8777WAT     H126573   8.677   8.040   0.792
 8777WAT     H226574   8.795   7.937   0.743
 8778WAT      O26575   3.167   3.273   4.228
 8778WAT     H126576   3.144   3.366   4.254
 8778WAT     H226577   3.267   3.264   4.220
 8779WAT      O26578   1.439   6.421   4.732
 8779WAT     H126579   1.431   6.322   4.743
 8779WAT     H226580   1.371   6.453   4.667
 8780WAT      O26581   1.425   1.360   2.665
 8780WAT     H126582   1.451   1.271   2.702
 8780WAT     H226583   1.439   1.360   2.566
 8781WAT      O26584   8.937   0.168   7.907
 8781WAT     H126585   8.842   0.147   7.886
 8781WAT     H226586   8.964   0.123   7.992
 8782WAT      O26587   3.005   2.432   0.248
 8782WAT     H126588   3.061   2.370   0.303
 8782WAT     H226589   2.917   2.389   0.229
 8783WAT      O26590   1.347   3.822   2.032
 8783WAT     H126591   1.251   3.817   2.060
 8783WAT     H226592   1.405   3.785   2.104
 8784WAT      O26593   5.307   3.863   4.605
 8784WAT     H126594   5.400   3.897   4.617
 8784WAT     H226595   5.279   3.812   4.687
 8785WAT      O26596   0.903   7.213   3.221
 8785WAT     H126597   0.901   7.136   3.284
 8785WAT     H226598   0.866   7.185   3.133
 8786WAT      O26599   4.472   8.617   0.605
 8786WAT     H126600   4.550   8.561   0.633
 8786WAT     H226601   4.400   8.558   0.568
 8787WAT      O26602   7.302   3.600   3.790
 8787WAT     H126603   7.295   3.621   3.693
 8787WAT     H226604   7.252   3.669   3.843
 8788WAT      O26605   0.061   5.732   0.407
 8788WAT     H126606   0.020   5.746   0.317
 8788WAT     H226607   0.111   5.645   0.408
 8789WAT      O26608   2.844   8.460   2.769
 8789WAT     H126609   2.762   8.517   2.762
 8789WAT     H226610   2.817   8.364   2.773
 8790WAT      O26611   8.955   7.114   7.012
 8790WAT     H126612   8.870   7.086   7.057
 8790WAT     H226613   9.026   7.046   7.032
 8791WAT      O26614   3.520   1.461   6.850
 8791WAT     H126615   3.569   1.378   6.878
 8791WAT     H226616   3.570   1.541   6.881
 8792WAT      O26617   0.300   5.420   4.051
 8792WAT     H126618   0.282   5.354   4.124
 8792WAT     H226619   0.391   5.460   4.063
 8793WAT      O26620   2.852   5.769   0.916
 8793WAT     H126621   2.855   5.678   0.874
 8793WAT     H226622   2.783   5.770   0.989
 8794WAT      O26623   2.969   2.138   8.949
 8794WAT     H126624   3.043   2.072   8.936
 8794WAT     H226625   2.987   2.219   8.893
 8795WAT      O26626   9.122   1.624   0.461
 8795WAT     H126627   9.156   1.675   0.382
 8795WAT     H226628   9.059   1.682   0.513
 8796WAT      O26629   6.425   1.086   6.783
 8796WAT     H126630   6.334   1.084   6.826
 8796WAT     H226631   6.444   0.997   6.742
 8797WAT      O26632   0.725   8.275   8.183
 8797WAT     H126633   0.750   8.356   8.235
 8797WAT     H226634   0.806   8.236   8.139
 8798WAT      O26635   5.356   9.660   6.817
 8798WAT     H126636   5.430   9.724   6.798
 8798WAT     H226637   5.320   9.678   6.909
 8799WAT      O26638   2.414   3.708   1.162
 8799WAT     H126639   2.475   3.783   1.190
 8799WAT     H226640   2.377   3.663   1.243
 8800WAT      O26641   3.543   1.877   9.386
 8800WAT     H126642   3.444   1.884   9.395
 8800WAT     H226643   3.579   1.816   9.457
 8801WAT      O26644   8.609   1.909   9.061
 8801WAT     H126645   8.599   1.819   9.105
 8801WAT     H226646   8.670   1.900   8.982
 8802WAT      O26647   1.846   7.289   9.328
 8802WAT     H126648   1.893   7.201   9.319
 8802WAT     H226649   1.758   7.275   9.374
 8803WAT      O26650   5.676   9.631   4.763
 8803WAT     H126651   5.614   9.570   4.813
 8803WAT     H226652   5.681   9.719   4.809
 8804WAT      O26653   3.491   3.104   2.330
 8804WAT     H126654   3.474   3.010   2.302
 8804WAT     H226655   3.589   3.123   2.329
 8805WAT      O26656   6.123   4.611   3.513
 8805WAT     H126657   6.158   4.641   3.424
 8805WAT     H226658   6.047   4.669   3.541
 8806WAT      O26659   1.048   1.660   5.059
 8806WAT     H126660   1.045   1.662   5.159
 8806WAT     H226661   1.129   1.709   5.028
 8807WAT      O26662   6.999   9.638   7.255
 8807WAT     H126663   6.998   9.724   7.203
 8807WAT     H226664   7.034   9.564   7.197
 8808WAT      O26665   4.011   2.140   5.516
 8808WAT     H126666   3.943   2.082   5.561
 8808WAT     H226667   3.989   2.148   5.419
 8809WAT      O26668   1.467   6.486   0.280
 8809WAT     H126669   1.393   6.528   0.334
 8809WAT     H226670   1.438   6.396   0.248
 8810WAT      O26671   1.844   4.203   9.887
 8810WAT     H126672   1.848   4.114   9.843
 8810WAT     H226673   1.786   4.198   9.969
 8811WAT      O26674   7.244   8.891   2.716
 8811WAT     H126675   7.310   8.816   2.725
 8811WAT     H226676   7.287   8.976   2.747
 8812WAT      O26677   5.215   4.189   9.411
 8812WAT     H126678   5.245   4.280   9.438
 8812WAT     H226679   5.163   4.147   9.486
 8813WAT      O26680   3.403   5.149   5.425
 8813WAT     H126681   3.459   5.186   5.499
 8813WAT     H226682   3.335   5.087   5.463
 8814WAT      O26683   4.056   3.200   5.573
 8814WAT     H126684   4.032   3.260   5.497
 8814WAT     H226685   3.977   3.190   5.634
 8815WAT      O26686   3.079   5.756   2.637
 8815WAT     H126687   3.097   5.683   2.572
 8815WAT     H226688   3.022   5.826   2.594
 8816WAT      O26689   5.021   0.407   0.393
 8816WAT     H126690   4.980   0.493   0.362
 8816WAT     H226691   5.109   0.394   0.346
 8817WAT      O26692   9.133   5.184   3.490
 8817WAT     H126693   9.232   5.194   3.477
 8817WAT     H226694   9.103   5.099   3.448
 8818WAT      O26695   4.223   7.018   3.916
 8818WAT     H126696   4.210   6.934   3.864
 8818WAT     H226697   4.134   7.062   3.930
 8819WAT      O26698   7.657   8.982   0.868
 8819WAT     H126699   7.651   9.053   0.798
 8819WAT     H226700   7.751   8.947   0.871
 8820WAT      O26701   7.846   8.459   7.842
 8820WAT     H126702   7.821   8.524   7.770
 8820WAT     H226703   7.934   8.417   7.819
 8821WAT      O26704   9.842   5.374   5.400
 8821WAT     H126705   9.866   5.319   5.320
 8821WAT     H226706   9.925   5.417   5.437
 8822WAT      O26707   5.233   9.744   5.219
 8822WAT     H126708   5.184   9.706   5.297
 8822WAT     H226709   5.315   9.688   5.201
 8823WAT      O26710   0.224   0.968   2.281
 8823WAT     H126711   0.276   1.021   2.349
 8823WAT     H226712   0.154   1.026   2.240
 8824WAT      O26713   1.699   9.450   5.234
 8824WAT     H126714   1.613   9.484   5.274
 8824WAT     H226715   1.731   9.371   5.287
 8825WAT      O26716   5.816   6.346   2.106
 8825WAT     H126717   5.776   6.413   2.169
 8825WAT     H226718   5.838   6.391   2.019
 8826WAT      O26719   0.361   7.650   6.622
 8826WAT     H126720   0.310   7.713   6.564
 8826WAT     H226721   0.342   7.670   6.718
 8827WAT      O26722   9.810   3.398   6.057
 8827WAT     H126723   9.715   3.426   6.046
 8827WAT     H226724   9.819   3.301   6.034
 8828WAT      O26725   5.905   8.967   1.499
 8828WAT     H126726   5.963   8.906   1.552
 8828WAT     H226727   5.962   9.030   1.446
 8829WAT      O26728   2.228   9.422   6.223
 8829WAT     H126729   2.275   9.468   6.298
 8829WAT     H226730   2.268   9.332   6.208
 8830WAT      O26731   4.594   2.264   5.498
 8830WAT     H126732   4.633   2.172   5.505
 8830WAT     H226733   4.665   2.327   5.465
 8831WAT      O26734   1.597   7.555   0.119
 8831WAT     H126735   1.653   7.599   0.189
 8831WAT     H226736   1.656   7.503   0.057
 8832WAT      O26737   9.667   8.935   9.608
 8832WAT     H126738   9.667   8.889   9.520
 8832WAT     H226739   9.590   8.903   9.663
 8833WAT      O26740   0.101   4.668   3.443
 8833WAT     H126741   0.003   4.654   3.457
 8833WAT     H226742   0.142   4.584   3.409
 8834WAT      O26743   8.541   8.338   8.195
 8834WAT     H126744   8.453   8.386   8.198
 8834WAT     H226745   8.579   8.332   8.288
 8835WAT      O26746   5.011   2.488   8.271
 8835WAT     H126747   4.977   2.468   8.179
 8835WAT     H226748   4.989   2.583   8.294
 8836WAT      O26749   0.459   5.011   8.656
 8836WAT     H126750   0.446   4.926   8.707
 8836WAT     H226751   0.538   5.003   8.596
 8837WAT      O26752   0.480   3.768   3.617
 8837WAT     H126753   0.552   3.705   3.647
 8837WAT     H226754   0.453   3.745   3.523
 8838WAT      O26755   5.932   0.580   6.059
 8838WAT     H126756   5.960   0.499   6.008
 8838WAT     H226757   5.954   0.662   6.006
 8839WAT      O26758   8.384   1.797   1.552
 8839WAT     H126759   8.478   1.829   1.546
 8839WAT     H226760   8.383   1.699   1.573
 8840WAT      O26761   1.385   4.422   5.325
 8840WAT     H126762   1.307   4.377   5.282
 8840WAT     H226763   1.353   4.495   5.385
 8841WAT      O26764   2.221   9.354   4.558
 8841WAT     H126765   2.208   9.439   4.608
 8841WAT     H226766   2.289   9.298   4.605
 8842WAT      O26767   8.065   2.672   3.069
 8842WAT     H126768   8.047   2.618   2.987
 8842WAT     H226769   8.158   2.709   3.065
 8843WAT      O26770   2.475   1.551   6.668
 8843WAT     H126771   2.524   1.638   6.656
 8843WAT     H226772   2.395   1.566   6.725
 8844WAT      O26773   3.647   4.413   6.529
 8844WAT     H126774   3.739   4.416   6.569
 8844WAT     H226775   3.641   4.479   6.454
 8845WAT      O26776   8.188   2.239   6.662
 8845WAT     H126777   8.101   2.278   6.694
 8845WAT     H226778   8.181   2.139   6.659
 8846WAT      O26779   4.146   3.950   8.739
 8846WAT     H126780   4.170   4.046   8.730
 8846WAT     H226781   4.047   3.939   8.728
 8847WAT      O26782   9.834   8.905   8.902
 8847WAT     H126783   9.875   8.821   8.868
 8847WAT     H226784   9.893   8.983   8.880
 8848WAT      O26785   1.892   4.361   5.149
 8848WAT     H126786   1.862   4.398   5.237
 8848WAT     H226787   1.817   4.309   5.107
 8849WAT      O26788   0.869   3.995   5.363
 8849WAT     H126789   0.773   3.970   5.357
 8849WAT     H226790   0.894   4.012   5.458
 8850WAT      O26791   1.125   0.762   2.411
 8850WAT     H126792   1.027   0.765   2.430
 8850WAT     H226793   1.168   0.844   2.450
 8851WAT      O26794   4.442   9.235   9.877
 8851WAT     H126795   4.462   9.163   9.811
 8851WAT     H226796   4.476   9.323   9.843
 8852WAT      O26797   8.178   9.593   3.284
 8852WAT     H126798   8.264   9.622   3.325
 8852WAT     H226799   8.167   9.494   3.294
 8853WAT      O26800   6.869   3.208   7.528
 8853WAT     H126801   6.811   3.136   7.488
 8853WAT     H226802   6.868   3.199   7.627
 8854WAT      O26803   1.005   4.199   8.952
 8854WAT     H126804   0.991   4.283   8.899
 8854WAT     H226805   1.097   4.199   8.991
 8855WAT      O26806   6.976   9.649   7.688
 8855WAT     H126807   6.884   9.612   7.705
 8855WAT     H226808   7.039   9.615   7.758
 8856WAT      O26809   3.477   5.739   7.397
 8856WAT     H126810   3.468   5.644   7.368
 8856WAT     H226811   3.413   5.757   7.472
 8857WAT      O26812   2.597   0.819   8.692
 8857WAT     H126813   2.554   0.735   8.725
 8857WAT     H226814   2.576   0.831   8.595
 8858WAT      O26815   9.395   5.596   8.078
 8858WAT     H126816   9.448   5.676   8.107
 8858WAT     H226817   9.455   5.529   8.035
 8859WAT      O26818   4.676   8.195   4.559
 8859WAT     H126819   4.730   8.279   4.557
 8859WAT     H226820   4.661   8.167   4.654
 8860WAT      O26821   5.256   5.344   8.744
 8860WAT     H126822   5.244   5.298   8.656
 8860WAT     H226823   5.340   5.399   8.741
 8861WAT      O26824   8.705   6.126   6.001
 8861WAT     H126825   8.615   6.121   6.044
 8861WAT     H226826   8.770   6.071   6.054
 8862WAT      O26827   9.363   0.391   9.070
 8862WAT     H126828   9.322   0.362   8.984
 8862WAT     H226829   9.449   0.342   9.084
 8863WAT      O26830   9.822   1.735   2.156
 8863WAT     H126831   9.744   1.675   2.175
 8863WAT     H226832   9.829   1.750   2.058
 8864WAT      O26833   5.454   6.808   4.474
 8864WAT     H126834   5.518   6.736   4.449
 8864WAT     H226835   5.504   6.883   4.517
 8865WAT      O26836   9.169   0.062   3.046
 8865WAT     H126837   9.130   0.030   2.960
 8865WAT     H226838   9.100   0.055   3.118
 8866WAT      O26839   9.843   5.587   3.514
 8866WAT     H126840   9.864   5.522   3.588
 8866WAT     H226841   9.854   5.542   3.426
 8867WAT      O26842   7.708   7.316   8.169
 8867WAT     H126843   7.616   7.286   8.193
 8867WAT     H226844   7.742   7.379   8.239
 8868WAT      O26845   3.239   9.270   6.702
 8868WAT     H126846   3.150   9.225   6.707
 8868WAT     H226847   3.287   9.242   6.619
 8869WAT      O26848   2.926   2.324   3.695
 8869WAT     H126849   2.900   2.299   3.789
 8869WAT     H226850   2.972   2.247   3.652
 8870WAT      O26851   5.797   7.469   4.474
 8870WAT     H126852   5.743   7.436   4.551
 8870WAT     H226853   5.808   7.395   4.407
 8871WAT      O26854   8.623   9.012   0.195
 8871WAT     H126855   8.677   8.936   0.160
 8871WAT     H226856   8.675   9.060   0.266
 8872WAT      O26857   3.636   1.553   6.022
 8872WAT     H126858   3.699   1.611   6.074
 8872WAT     H226859   3.579   1.610   5.963
 8873WAT      O26860   6.220   3.198   6.781
 8873WAT     H126861   6.238   3.249   6.697
 8873WAT     H226862   6.301   3.147   6.808
 8874WAT      O26863   0.003   8.856   1.670
 8874WAT     H126864  -0.056   8.930   1.638
 8874WAT     H226865   0.040   8.878   1.759
 8875WAT      O26866   1.591   4.616   7.157
 8875WAT     H126867   1.672   4.608   7.099
 8875WAT     H226868   1.534   4.534   7.146
 8876WAT      O26869   2.363   3.314   2.778
 8876WAT     H126870   2.295   3.383   2.805
 8876WAT     H226871   2.337   3.274   2.691
 8877WAT      O26872   5.731   8.659   1.754
 8877WAT     H126873   5.666   8.584   1.769
 8877WAT     H226874   5.813   8.644   1.808
 8878WAT      O26875   0.136   3.805   4.752
 8878WAT     H126876   0.170   3.781   4.662
 8878WAT     H226877   0.105   3.900   4.752
 8879WAT      O26878   5.849   1.643   7.870
 8879WAT     H126879   5.839   1.550   7.905
 8879WAT     H226880   5.944   1.659   7.844
 8880WAT      O26881   2.625   8.099   5.520
 8880WAT     H126882   2.586   8.054   5.601
 8880WAT     H226883   2.718   8.066   5.505
 8881WAT      O26884   1.037   6.808   1.363
 8881WAT     H126885   0.985   6.820   1.447
 8881WAT     H226886   1.006   6.875   1.295
 8882WAT      O26887   6.881   4.690   5.380
 8882WAT     H126888   6.895   4.788   5.365
 8882WAT     H226889   6.784   4.672   5.397
 8883WAT      O26890   7.964   2.268   3.498
 8883WAT     H126891   8.047   2.236   3.543
 8883WAT     H226892   7.914   2.329   3.559
 8884WAT      O26893   0.210   2.739   9.380
 8884WAT     H126894   0.252   2.794   9.451
 8884WAT     H226895   0.187   2.649   9.417
 8885WAT      O26896   5.245   2.483   9.250
 8885WAT     H126897   5.262   2.555   9.317
 8885WAT     H226898   5.244   2.394   9.297
 8886WAT      O26899   4.009   6.089   3.102
 8886WAT     H126900   3.976   6.133   3.018
 8886WAT     H226901   4.015   5.990   3.088
 8887WAT      O26902   3.293   0.615   6.384
 8887WAT     H126903   3.287   0.707   6.422
 8887WAT     H226904   3.203   0.585   6.354
 8888WAT      O26905   7.674   6.499   8.520
 8888WAT     H126906   7.628   6.493   8.608
 8888WAT     H226907   7.607   6.519   8.449
 8889WAT      O26908   4.665   2.529   2.824
 8889WAT     H126909   4.643   2.472   2.903
 8889WAT     H226910   4.585   2.535   2.764
 8890WAT      O26911   2.922   6.268   3.626
 8890WAT     H126912   3.021   6.271   3.615
 8890WAT     H226913   2.878   6.267   3.536
 8891WAT      O26914   0.351   5.666   5.256
 8891WAT     H126915   0.349   5.761   5.286
 8891WAT     H226916   0.296   5.656   5.173
 8892WAT      O26917   7.582   5.027   1.418
 8892WAT     H126918   7.675   5.059   1.398
 8892WAT     H226919   7.586   4.933   1.453
 8893WAT      O26920   3.558   3.078   7.971
 8893WAT     H126921   3.586   3.092   7.876
 8893WAT     H226922   3.619   3.013   8.016
 8894WAT      O26923   8.754   5.785   0.352
 8894WAT     H126924   8.669   5.733   0.357
 8894WAT     H226925   8.756   5.853   0.425
 8895WAT      O26926   3.582   5.435   9.663
 8895WAT     H126927   3.496   5.457   9.616
 8895WAT     H226928   3.635   5.519   9.674
 8896WAT      O26929   7.806   9.524   6.046
 8896WAT     H126930   7.886   9.468   6.064
 8896WAT     H226931   7.796   9.592   6.119
 8897WAT      O26932   5.398   7.032   6.006
 8897WAT     H126933   5.409   7.036   6.106
 8897WAT     H226934   5.322   6.971   5.984
 8898WAT      O26935   3.487   9.013   9.078
 8898WAT     H126936   3.398   9.044   9.111
 8898WAT     H226937   3.476   8.925   9.031
 8899WAT      O26938   2.828   2.155   5.943
 8899WAT     H126939   2.843   2.104   5.859
 8899WAT     H226940   2.904   2.140   6.006
 8900WAT      O26941   2.384   1.524   0.045
 8900WAT     H126942   2.459   1.513   0.110
 8900WAT     H226943   2.409   1.592  -0.024
 8901WAT      O26944   4.288   9.484   5.685
 8901WAT     H126945   4.194   9.480   5.718
 8901WAT     H226946   4.347   9.432   5.746
 8902WAT      O26947   6.858   7.816   8.767
 8902WAT     H126948   6.920   7.867   8.707
 8902WAT     H226949   6.795   7.761   8.713
 8903WAT      O26950   1.845   3.942   1.146
 8903WAT     H126951   1.810   4.032   1.118
 8903WAT     H226952   1.861   3.942   1.244
 8904WAT      O26953   5.890   2.164   4.683
 8904WAT     H126954   5.886   2.256   4.723
 8904WAT     H226955   5.811   2.152   4.622
 8905WAT      O26956   2.313   6.217   5.361
 8905WAT     H126957   2.345   6.161   5.284
 8905WAT     H226958   2.363   6.191   5.444
 8906WAT      O26959   9.365   3.268   1.875
 8906WAT     H126960   9.332   3.218   1.955
 8906WAT     H226961   9.289   3.283   1.812
 8907WAT      O26962   0.736   8.837   5.099
 8907WAT     H126963   0.783   8.924   5.113
 8907WAT     H226964   0.657   8.850   5.039
 8908WAT      O26965   2.154   8.680   6.081
 8908WAT     H126966   2.142   8.627   6.165
 8908WAT     H226967   2.250   8.673   6.051
 8909WAT      O26968   5.482   2.705   2.809
 8909WAT     H126969   5.465   2.800   2.836
 8909WAT     H226970   5.398   2.652   2.818
 8910WAT      O26971   1.531   0.861   2.263
 8910WAT     H126972   1.608   0.854   2.199
 8910WAT     H226973   1.447   0.881   2.211
 8911WAT      O26974   3.941   9.373   3.931
 8911WAT     H126975   4.035   9.346   3.908
 8911WAT     H226976   3.885   9.291   3.944
 8912WAT      O26977   0.055   8.351   4.620
 8912WAT     H126978   0.004   8.297   4.553
 8912WAT     H226979   0.055   8.305   4.708
 8913WAT      O26980   7.318   8.627   9.800
 8913WAT     H126981   7.335   8.561   9.727
 8913WAT     H226982   7.406   8.656   9.839
 8914WAT      O26983   5.004   3.456   1.786
 8914WAT     H126984   4.922   3.413   1.824
 8914WAT     H226985   5.013   3.548   1.823
 8915WAT      O26986   9.189   1.700   4.984
 8915WAT     H126987   9.260   1.770   4.977
 8915WAT     H226988   9.106   1.731   4.939
 8916WAT      O26989   5.656   3.695   0.525
 8916WAT     H126990   5.660   3.599   0.553
 8916WAT     H226991   5.723   3.711   0.453
 8917WAT      O26992   7.135   3.955   6.515
 8917WAT     H126993   7.120   4.005   6.600
 8917WAT     H226994   7.056   3.968   6.454
 8918WAT      O26995   0.268   1.129   6.045
 8918WAT     H126996   0.368   1.135   6.043
 8918WAT     H226997   0.231   1.171   5.962
 8919WAT      O26998   0.834   4.908   8.148
 8919WAT     H126999   0.854   5.000   8.179
 8919WAT     H227000   0.871   4.842   8.214
 8920WAT      O27001   7.463   4.871   4.039
 8920WAT     H127002   7.387   4.934   4.026
 8920WAT     H227003   7.442   4.784   3.995
 8921WAT      O27004   7.826   8.283   2.570
 8921WAT     H127005   7.850   8.236   2.655
 8921WAT     H227006   7.767   8.224   2.515
 8922WAT      O27007   0.422   1.440   9.084
 8922WAT     H127008   0.335   1.465   9.127
 8922WAT     H227009   0.497   1.480   9.136
 8923WAT      O27010   9.827   5.097   3.926
 8923WAT     H127011   9.833   5.085   4.025
 8923WAT     H227012   9.916   5.075   3.884
 8924WAT      O27013   0.725   6.964   4.039
 8924WAT     H127014   0.661   6.933   4.110
 8924WAT     H227015   0.818   6.963   4.075
 8925WAT      O27016   6.966   8.566   8.290
 8925WAT     H127017   7.022   8.644   8.316
 8925WAT     H227018   6.873   8.596   8.272
 8926WAT      O27019   3.672   3.564   7.845
 8926WAT     H127020   3.716   3.616   7.918
 8926WAT     H227021   3.740   3.507   7.799
 8927WAT      O27022   8.445   0.799   6.439
 8927WAT     H127023   8.516   0.788   6.508
 8927WAT     H227024   8.382   0.721   6.441
 8928WAT      O27025   8.160   7.013   0.925
 8928WAT     H127026   8.100   6.945   0.882
 8928WAT     H227027   8.123   7.104   0.909
 8929WAT      O27028   1.402   5.013   4.433
 8929WAT     H127029   1.500   4.991   4.433
 8929WAT     H227030   1.350   4.928   4.420
 8930WAT      O27031   0.699   0.430   5.762
 8930WAT     H127032   0.650   0.378   5.692
 8930WAT     H227033   0.793   0.396   5.769
 8931WAT      O27034   6.412   8.475   4.841
 8931WAT     H127035   6.338   8.474   4.909
 8931WAT     H227036   6.481   8.406   4.865
 8932WAT      O27037   8.273   2.323   9.530
 8932WAT     H127038   8.357   2.272   9.510
 8932WAT     H227039   8.280   2.415   9.492
 8933WAT      O27040   3.595   9.126   9.381
 8933WAT     H127041   3.593   9.176   9.295
 8933WAT     H227042   3.690   9.116   9.412
 8934WAT      O27043   1.776   3.026   2.362
 8934WAT     H127044   1.828   2.973   2.294
 8934WAT     H227045   1.690   3.056   2.321
 8935WAT      O27046   1.117   7.904   7.635
 8935WAT     H127047   1.175   7.963   7.692
 8935WAT     H227048   1.175   7.839   7.586
 8936WAT      O27049   7.143   5.874   0.096
 8936WAT     H127050   7.047   5.886   0.124
 8936WAT     H227051   7.197   5.845   0.174
 8937WAT      O27052   2.206   0.674   4.461
 8937WAT     H127053   2.144   0.727   4.403
 8937WAT     H227054   2.179   0.578   4.459
 8938WAT      O27055   6.808   8.196   0.741
 8938WAT     H127056   6.836   8.106   0.775
 8938WAT     H227057   6.851   8.212   0.652
 8939WAT      O27058   4.986   0.356   7.386
 8939WAT     H127059   4.966   0.433   7.447
 8939WAT     H227060   4.921   0.355   7.311
 8940WAT      O27061   1.959   0.470   3.479
 8940WAT     H127062   1.998   0.550   3.525
 8940WAT     H227063   2.028   0.398   3.472
 8941WAT      O27064   4.447   5.231   7.334
 8941WAT     H127065   4.419   5.164   7.265
 8941WAT     H227066   4.516   5.292   7.295
 8942WAT      O27067   7.936   2.996   0.259
 8942WAT     H127068   7.851   3.028   0.218
 8942WAT     H227069   7.919   2.967   0.353
 8943WAT      O27070   8.156   9.515   0.029
 8943WAT     H127071   8.174   9.604   0.071
 8943WAT     H227072   8.108   9.456   0.094
 8944WAT      O27073   3.783   9.092   3.877
 8944WAT     H127074   3.727   9.151   3.934
 8944WAT     H227075   3.724   9.035   3.820
 8945WAT      O27076   1.988   9.216   6.652
 8945WAT     H127077   1.989   9.271   6.568
 8945WAT     H227078   2.066   9.242   6.709
 8946WAT      O27079   6.610   3.498   8.245
 8946WAT     H127080   6.645   3.551   8.322
 8946WAT     H227081   6.666   3.516   8.164
 8947WAT      O27082   9.404   3.552   0.194
 8947WAT     H127083   9.483   3.552   0.255
 8947WAT     H227084   9.381   3.457   0.169
 8948WAT      O27085   7.611   5.689   2.603
 8948WAT     H127086   7.552   5.742   2.542
 8948WAT     H227087   7.570   5.685   2.694
 8949WAT      O27088   1.623   2.291   6.642
 8949WAT     H127089   1.538   2.255   6.680
 8949WAT     H227090   1.674   2.338   6.714
 8950WAT      O27091   2.365   5.892   2.453
 8950WAT     H127092   2.363   5.966   2.520
 8950WAT     H227093   2.443   5.905   2.391
 8951WAT      O27094   3.886   0.694   4.389
 8951WAT     H127095   3.973   0.667   4.430
 8951WAT     H227096   3.902   0.764   4.320
 8952WAT      O27097   2.239   6.849   8.710
 8952WAT     H127098   2.283   6.781   8.653
 8952WAT     H227099   2.208   6.925   8.653
 8953WAT      O27100   7.309   7.849   0.895
 8953WAT     H127101   7.340   7.916   0.828
 8953WAT     H227102   7.385   7.790   0.921
 8954WAT      O27103   9.816   7.051   5.742
 8954WAT     H127104   9.882   7.073   5.670
 8954WAT     H227105   9.851   6.975   5.797
 8955WAT      O27106   4.361   1.956   5.601
 8955WAT     H127107   4.428   1.888   5.630
 8955WAT     H227108   4.276   1.944   5.654
 8956WAT      O27109   6.906   8.032   7.889
 8956WAT     H127110   6.904   8.029   7.989
 8956WAT     H227111   6.832   7.976   7.852
 8957WAT      O27112   5.997   9.669   6.364
 8957WAT     H127113   6.020   9.661   6.267
 8957WAT     H227114   6.081   9.687   6.416
 8958WAT      O27115   6.990   1.451   1.826
 8958WAT     H127116   7.056   1.395   1.776
 8958WAT     H227117   6.902   1.402   1.832
 8959WAT      O27118   8.997   3.508   5.428
 8959WAT     H127119   8.911   3.463   5.449
 8959WAT     H227120   8.980   3.587   5.369
 8960WAT      O27121   9.070   7.291   1.713
 8960WAT     H127122   9.062   7.271   1.615
 8960WAT     H227123   9.166   7.307   1.736
 8961WAT      O27124   0.651   3.734   4.626
 8961WAT     H127125   0.673   3.642   4.661
 8961WAT     H227126   0.554   3.753   4.642
 8962WAT      O27127   8.414   3.423   7.929
 8962WAT     H127128   8.374   3.479   7.857
 8962WAT     H227129   8.507   3.397   7.903
 8963WAT      O27130   5.345   7.824   7.730
 8963WAT     H127131   5.355   7.858   7.637
 8963WAT     H227132   5.341   7.724   7.730
 8964WAT      O27133   5.679   2.932   1.648
 8964WAT     H127134   5.777   2.910   1.643
 8964WAT     H227135   5.662   3.017   1.599
 8965WAT      O27136   4.325   8.537   4.918
 8965WAT     H127137   4.407   8.482   4.899
 8965WAT     H227138   4.252   8.511   4.855
 8966WAT      O27139   8.110   2.372   9.254
 8966WAT     H127140   8.137   2.276   9.257
 8966WAT     H227141   8.159   2.422   9.326
 8967WAT      O27142   5.091   1.752   9.270
 8967WAT     H127143   5.188   1.749   9.249
 8967WAT     H227144   5.072   1.831   9.329
 8968WAT      O27145   6.154   9.008   7.824
 8968WAT     H127146   6.221   9.074   7.789
 8968WAT     H227147   6.077   9.001   7.760
 8969WAT      O27148   3.558   8.838   9.442
 8969WAT     H127149   3.616   8.822   9.522
 8969WAT     H227150   3.551   8.937   9.426
 8970WAT      O27151   4.756   8.470   0.302
 8970WAT     H127152   4.838   8.517   0.334
 8970WAT     H227153   4.736   8.392   0.362
 8971WAT      O27154   0.269   8.485   6.354
 8971WAT     H127155   0.268   8.418   6.429
 8971WAT     H227156   0.293   8.575   6.390
 8972WAT      O27157   0.530   6.662   1.892
 8972WAT     H127158   0.473   6.652   1.810
 8972WAT     H227159   0.601   6.731   1.874
 8973WAT      O27160   4.498   3.143   5.712
 8973WAT     H127161   4.528   3.072   5.776
 8973WAT     H227162   4.409   3.179   5.741
 8974WAT      O27163   7.922   8.179   9.576
 8974WAT     H127164   7.936   8.170   9.675
 8974WAT     H227165   7.825   8.193   9.557
 8975WAT      O27166   1.964   6.068   3.488
 8975WAT     H127167   1.892   6.067   3.558
 8975WAT     H227168   1.940   6.132   3.416
 8976WAT      O27169   9.795   6.094   5.274
 8976WAT     H127170   9.759   6.012   5.229
 8976WAT     H227171   9.878   6.125   5.228
 8977WAT      O27172   1.025   1.934   7.663
 8977WAT     H127173   1.019   1.923   7.762
 8977WAT     H227174   1.076   1.858   7.623
 8978WAT      O27175   9.476   6.379   2.495
 8978WAT     H127176   9.388   6.340   2.519
 8978WAT     H227177   9.547   6.341   2.554
 8979WAT      O27178   0.491   3.405   0.883
 8979WAT     H127179   0.490   3.306   0.869
 8979WAT     H227180   0.556   3.428   0.955
 8980WAT      O27181   2.450   2.743   8.971
 8980WAT     H127182   2.401   2.726   8.885
 8980WAT     H227183   2.491   2.834   8.969
 8981WAT      O27184   5.327   6.823   3.563
 8981WAT     H127185   5.346   6.876   3.646
 8981WAT     H227186   5.403   6.760   3.546
 8982WAT      O27187   3.153   3.843   9.520
 8982WAT     H127188   3.113   3.761   9.562
 8982WAT     H227189   3.246   3.823   9.488
 8983WAT      O27190   5.423   5.298   6.159
 8983WAT     H127191   5.404   5.200   6.172
 8983WAT     H227192   5.402   5.348   6.243
 8984WAT      O27193   0.214   0.249   1.912
 8984WAT     H127194   0.130   0.265   1.861
 8984WAT     H227195   0.281   0.204   1.853
 8985WAT      O27196   4.467   2.557   2.544
 8985WAT     H127197   4.504   2.574   2.453
 8985WAT     H227198   4.421   2.640   2.578
 8986WAT      O27199   6.243   7.987   6.192
 8986WAT     H127200   6.338   7.967   6.217
 8986WAT     H227201   6.195   8.028   6.270
 8987WAT      O27202   6.303   7.657   3.727
 8987WAT     H127203   6.303   7.557   3.732
 8987WAT     H227204   6.215   7.689   3.693
 8988WAT      O27205   0.278   7.570   8.546
 8988WAT     H127206   0.196   7.529   8.505
 8988WAT     H227207   0.325   7.502   8.602
 8989WAT      O27208   1.103   1.008   6.007
 8989WAT     H127209   1.188   1.061   6.018
 8989WAT     H227210   1.028   1.070   5.984
 8990WAT      O27211   2.465   6.990   9.584
 8990WAT     H127212   2.459   6.926   9.661
 8990WAT     H227213   2.558   6.990   9.548
 8991WAT      O27214   4.458   6.123   8.815
 8991WAT     H127215   4.420   6.063   8.886
 8991WAT     H227216   4.408   6.109   8.730
 8992WAT      O27217   4.269   9.136   4.714
 8992WAT     H127218   4.252   9.065   4.647
 8992WAT     H227219   4.354   9.116   4.763
 8993WAT      O27220   3.564   5.136   7.090
 8993WAT     H127221   3.578   5.089   7.177
 8993WAT     H227222   3.563   5.069   7.016
 8994WAT      O27223   4.458   6.797   0.751
 8994WAT     H127224   4.366   6.778   0.719
 8994WAT     H227225   4.524   6.776   0.678
 8995WAT      O27226   6.696   0.072   2.647
 8995WAT     H127227   6.730   0.136   2.716
 8995WAT     H227228   6.708  -0.022   2.680
 8996WAT      O27229   0.452   1.373   7.999
 8996WAT     H127230   0.550   1.377   8.019
 8996WAT     H227231   0.426   1.279   7.979
 8997WAT      O27232   2.551   6.018   4.425
 8997WAT     H127233   2.582   6.022   4.520
 8997WAT     H227234   2.615   5.962   4.371
 8998WAT      O27235   4.791   3.480   7.770
 8998WAT     H127236   4.789   3.389   7.728
 8998WAT     H227237   4.833   3.545   7.706
 8999WAT      O27238   6.287   4.622   2.731
 8999WAT     H127239   6.323   4.545   2.783
 8999WAT     H227240   6.187   4.621   2.735
 9000WAT      O27241   7.222   4.786   2.439
 9000WAT     H127242   7.188   4.877   2.461
 9000WAT     H227243   7.319   4.791   2.414
 9001WAT      O27244   4.017   2.261   0.750
 9001WAT     H127245   4.034   2.262   0.849
 9001WAT     H227246   4.087   2.207   0.705
 9002WAT      O27247   8.401   2.683   7.714
 9002WAT     H127248   8.345   2.741   7.772
 9002WAT     H227249   8.479   2.735   7.680
 9003WAT      O27250   1.173   6.726   7.845
 9003WAT     H127251   1.260   6.762   7.812
 9003WAT     H227252   1.143   6.650   7.787
 9004WAT      O27253   9.735   5.854   9.274
 9004WAT     H127254   9.636   5.847   9.277
 9004WAT     H227255   9.774   5.763   9.259
 9005WAT      O27256   2.274   3.828   0.319
 9005WAT     H127257   2.355   3.768   0.321
 9005WAT     H227258   2.243   3.846   0.412
 9006WAT      O27259   4.453   4.833   3.944
 9006WAT     H127260   4.390   4.883   4.004
 9006WAT     H227261   4.522   4.786   3.998
 9007WAT      O27262   8.816   6.711   4.972
 9007WAT     H127263   8.772   6.729   5.060
 9007WAT     H227264   8.795   6.617   4.942
 9008WAT      O27265   4.667   2.359   3.639
 9008WAT     H127266   4.746   2.378   3.697
 9008WAT     H227267   4.643   2.262   3.646
 9009WAT      O27268   1.478   6.992   7.930
 9009WAT     H127269   1.473   7.091   7.929
 9009WAT     H227270   1.513   6.962   8.019
 9010WAT      O27271   7.577   6.829   3.536
 9010WAT     H127272   7.590   6.732   3.512
 9010WAT     H227273   7.643   6.854   3.607
 9011WAT      O27274   1.043   0.517   4.114
 9011WAT     H127275   1.103   0.445   4.149
 9011WAT     H227276   1.079   0.551   4.027
 9012WAT      O27277   2.394   1.388   7.172
 9012WAT     H127278   2.349   1.302   7.196
 9012WAT     H227279   2.375   1.456   7.242
 9013WAT      O27280   4.623   5.749   4.888
 9013WAT     H127281   4.700   5.772   4.947
 9013WAT     H227282   4.629   5.652   4.861
 9014WAT      O27283   7.134   6.724   7.941
 9014WAT     H127284   7.050   6.764   7.904
 9014WAT     H227285   7.195   6.700   7.865
 9015WAT      O27286   3.857   2.891   6.537
 9015WAT     H127287   3.899   2.821   6.480
 9015WAT     H227288   3.928   2.945   6.581
 9016WAT      O27289   5.712   0.179   9.416
 9016WAT     H127290   5.773   0.185   9.495
 9016WAT     H227291   5.696   0.083   9.393
 9017WAT      O27292   0.904   7.898   4.930
 9017WAT     H127293   0.895   7.808   4.888
 9017WAT     H227294   0.814   7.943   4.933
 9018WAT      O27295   6.755   7.342   7.105
 9018WAT     H127296   6.746   7.281   7.184
 9018WAT     H227297   6.677   7.330   7.045
 9019WAT      O27298   1.372   5.306   8.885
 9019WAT     H127299   1.464   5.316   8.846
 9019WAT     H227300   1.333   5.218   8.859
 9020WAT      O27301   5.386   7.158   3.004
 9020WAT     H127302   5.379   7.217   2.923
 9020WAT     H227303   5.294   7.140   3.040
 9021WAT      O27304   2.120   3.573   3.661
 9021WAT     H127305   2.170   3.510   3.601
 9021WAT     H227306   2.068   3.638   3.606
 9022WAT      O27307   6.215   2.844   4.072
 9022WAT     H127308   6.185   2.877   3.983
 9022WAT     H227309   6.314   2.855   4.081
 9023WAT      O27310   4.450   5.751   7.693
 9023WAT     H127311   4.421   5.814   7.621
 9023WAT     H227312   4.399   5.665   7.685
 9024WAT      O27313   9.790   3.933   2.109
 9024WAT     H127314   9.724   3.981   2.166
 9024WAT     H227315   9.788   3.835   2.130
 9025WAT      O27316   0.422   4.366   0.765
 9025WAT     H127317   0.409   4.332   0.673
 9025WAT     H227318   0.520   4.367   0.787
 9026WAT      O27319   0.105   9.348   5.073
 9026WAT     H127320   0.123   9.283   4.999
 9026WAT     H227321   0.176   9.338   5.143
 9027WAT      O27322   3.771   8.079   8.542
 9027WAT     H127323   3.770   7.985   8.510
 9027WAT     H227324   3.679   8.106   8.570
 9028WAT      O27325   5.205   0.269   8.576
 9028WAT     H127326   5.282   0.227   8.528
 9028WAT     H227327   5.135   0.200   8.594
 9029WAT      O27328   9.568   5.440   2.073
 9029WAT     H127329   9.477   5.457   2.036
 9029WAT     H227330   9.567   5.355   2.126
 9030WAT      O27331   1.965   6.812   0.347
 9030WAT     H127332   1.947   6.804   0.445
 9030WAT     H227333   1.895   6.869   0.305
 9031WAT      O27334   6.304   3.327   6.528
 9031WAT     H127335   6.265   3.418   6.544
 9031WAT     H227336   6.265   3.287   6.445
 9032WAT      O27337   5.887   0.240   6.091
 9032WAT     H127338   5.794   0.264   6.119
 9032WAT     H227339   5.915   0.298   6.015
 9033WAT      O27340   4.309   1.848   9.077
 9033WAT     H127341   4.399   1.855   9.120
 9033WAT     H227342   4.320   1.824   8.981
 9034WAT      O27343   2.336   6.284   2.938
 9034WAT     H127344   2.372   6.205   2.888
 9034WAT     H227345   2.395   6.363   2.920
 9035WAT      O27346   9.258   2.099   8.726
 9035WAT     H127347   9.172   2.129   8.686
 9035WAT     H227348   9.326   2.172   8.718
 9036WAT      O27349   8.610   3.467   7.489
 9036WAT     H127350   8.695   3.505   7.450
 9036WAT     H227351   8.588   3.381   7.443
 9037WAT      O27352   5.690   5.670   7.334
 9037WAT     H127353   5.729   5.731   7.264
 9037WAT     H227354   5.749   5.669   7.415
 9038WAT      O27355   4.962   8.768   0.886
 9038WAT     H127356   4.922   8.721   0.808
 9038WAT     H227357   5.058   8.789   0.868
 9039WAT      O27358   5.170   0.832   5.444
 9039WAT     H127359   5.201   0.751   5.495
 9039WAT     H227360   5.200   0.915   5.492
 9040WAT      O27361   7.712   9.228   9.400
 9040WAT     H127362   7.680   9.320   9.425
 9040WAT     H227363   7.745   9.181   9.481
 9041WAT      O27364   0.852   6.746   9.379
 9041WAT     H127365   0.923   6.787   9.436
 9041WAT     H227366   0.853   6.646   9.392
 9042WAT      O27367   1.606   2.034   5.061
 9042WAT     H127368   1.628   1.989   4.974
 9042WAT     H227369   1.586   2.130   5.044
 9043WAT      O27370   9.434   3.376   6.468
 9043WAT     H127371   9.523   3.334   6.487
 9043WAT     H227372   9.395   3.336   6.385
 9044WAT      O27373   3.903   7.218   3.637
 9044WAT     H127374   3.968   7.142   3.631
 9044WAT     H227375   3.853   7.213   3.723
 9045WAT      O27376   1.583   8.034   6.676
 9045WAT     H127377   1.676   8.054   6.647
 9045WAT     H227378   1.526   8.115   6.665
 9046WAT      O27379   1.173   3.024   1.797
 9046WAT     H127380   1.085   2.984   1.770
 9046WAT     H227381   1.235   2.950   1.825
 9047WAT      O27382   8.091   0.143   0.270
 9047WAT     H127383   8.078   0.242   0.262
 9047WAT     H227384   8.126   0.107   0.184
 9048WAT      O27385   4.528   4.676   2.509
 9048WAT     H127386   4.557   4.712   2.597
 9048WAT     H227387   4.609   4.659   2.452
 9049WAT      O27388   9.376   1.752   2.328
 9049WAT     H127389   9.452   1.752   2.263
 9049WAT     H227390   9.306   1.688   2.296
 9050WAT      O27391   2.084   6.828   6.244
 9050WAT     H127392   2.032   6.746   6.222
 9050WAT     H227393   2.066   6.856   6.338
 9051WAT      O27394   0.872   8.904   3.316
 9051WAT     H127395   0.915   8.992   3.296
 9051WAT     H227396   0.777   8.905   3.284
 9052WAT      O27397   8.331   0.249   4.337
 9052WAT     H127398   8.295   0.300   4.259
 9052WAT     H227399   8.333   0.307   4.417
 9053WAT      O27400   2.775   6.246   0.097
 9053WAT     H127401   2.841   6.310   0.136
 9053WAT     H227402   2.682   6.278   0.115
 9054WAT      O27403   6.120   8.771   4.375
 9054WAT     H127404   6.069   8.857   4.374
 9054WAT     H227405   6.070   8.702   4.322
 9055WAT      O27406   3.265   6.554   1.368
 9055WAT     H127407   3.177   6.535   1.411
 9055WAT     H227408   3.335   6.568   1.439
 9056WAT      O27409   0.051   7.469   1.490
 9056WAT     H127410   0.080   7.550   1.540
 9056WAT     H227411   0.050   7.489   1.392
 9057WAT      O27412   8.104   5.960   6.666
 9057WAT     H127413   8.127   6.035   6.605
 9057WAT     H227414   8.110   5.990   6.761
 9058WAT      O27415   8.001   9.516   6.872
 9058WAT     H127416   7.953   9.483   6.791
 9058WAT     H227417   7.995   9.449   6.945
 9059WAT      O27418   3.665   6.087   5.427
 9059WAT     H127419   3.695   6.014   5.365
 9059WAT     H227420   3.689   6.176   5.387
 9060WAT      O27421   6.836   9.744   2.000
 9060WAT     H127422   6.861   9.840   1.989
 9060WAT     H227423   6.776   9.734   2.079
 9061WAT      O27424   8.831   6.595   1.818
 9061WAT     H127425   8.781   6.655   1.879
 9061WAT     H227426   8.790   6.504   1.818
 9062WAT      O27427   0.394   4.252   6.834
 9062WAT     H127428   0.300   4.233   6.864
 9062WAT     H227429   0.392   4.317   6.758
 9063WAT      O27430   0.731   9.784   5.559
 9063WAT     H127431   0.689   9.813   5.645
 9063WAT     H227432   0.727   9.859   5.493
 9064WAT      O27433   7.926   6.215   6.501
 9064WAT     H127434   7.865   6.228   6.423
 9064WAT     H227435   7.917   6.294   6.563
 9065WAT      O27436   9.292   2.793   1.437
 9065WAT     H127437   9.304   2.878   1.490
 9065WAT     H227438   9.372   2.734   1.451
 9066WAT      O27439   6.416   8.970   0.607
 9066WAT     H127440   6.359   8.922   0.674
 9066WAT     H227441   6.460   9.048   0.651
 9067WAT      O27442   5.283   8.414   6.128
 9067WAT     H127443   5.295   8.328   6.078
 9067WAT     H227444   5.228   8.477   6.072
 9068WAT      O27445   6.776   2.779   7.817
 9068WAT     H127446   6.869   2.746   7.800
 9068WAT     H227447   6.767   2.805   7.913
 9069WAT      O27448   5.603   7.823   9.597
 9069WAT     H127449   5.696   7.800   9.567
 9069WAT     H227450   5.564   7.744   9.644
 9070WAT      O27451   9.564   9.304   0.314
 9070WAT     H127452   9.506   9.281   0.236
 9070WAT     H227453   9.526   9.382   0.364
 9071WAT      O27454   9.882   7.474   8.521
 9071WAT     H127455   9.819   7.541   8.483
 9071WAT     H227456   9.888   7.486   8.620
 9072WAT      O27457   0.027   1.525   8.646
 9072WAT     H127458  -0.054   1.495   8.596
 9072WAT     H227459   0.079   1.590   8.591
 9073WAT      O27460   1.116   2.184   5.289
 9073WAT     H127461   1.064   2.146   5.213
 9073WAT     H227462   1.211   2.200   5.261
 9074WAT      O27463   7.877   8.260   2.053
 9074WAT     H127464   7.892   8.277   1.955
 9074WAT     H227465   7.881   8.346   2.103
 9075WAT      O27466   1.065   4.143   8.068
 9075WAT     H127467   0.983   4.087   8.084
 9075WAT     H227468   1.049   4.235   8.103
 9076WAT      O27469   9.088   4.021   1.843
 9076WAT     H127470   9.150   4.086   1.801
 9076WAT     H227471   9.071   4.048   1.938
 9077WAT      O27472   2.180   8.050   6.366
 9077WAT     H127473   2.206   8.135   6.321
 9077WAT     H227474   2.186   8.062   6.466
 9078WAT      O27475   8.660   1.191   6.085
 9078WAT     H127476   8.580   1.140   6.116
 9078WAT     H227477   8.743   1.143   6.116
 9079WAT      O27478   5.875   1.701   4.907
 9079WAT     H127479   5.839   1.661   4.823
 9079WAT     H227480   5.975   1.700   4.905
 9080WAT      O27481   6.673   0.399   8.836
 9080WAT     H127482   6.716   0.392   8.746
 9080WAT     H227483   6.668   0.308   8.877
 9081WAT      O27484   5.205   8.100   3.217
 9081WAT     H127485   5.121   8.059   3.180
 9081WAT     H227486   5.225   8.060   3.306
 9082WAT      O27487   6.044   0.852   0.912
 9082WAT     H127488   6.122   0.904   0.878
 9082WAT     H227489   5.960   0.900   0.889
 9083WAT      O27490   7.754   0.361   7.745
 9083WAT     H127491   7.842   0.344   7.790
 9083WAT     H227492   7.721   0.452   7.768
 9084WAT      O27493   6.264   1.117   8.965
 9084WAT     H127494   6.181   1.062   8.977
 9084WAT     H227495   6.339   1.077   9.018
 9085WAT      O27496   0.287   2.286   1.634
 9085WAT     H127497   0.374   2.313   1.594
 9085WAT     H227498   0.221   2.266   1.562
 9086WAT      O27499   5.088   7.019   1.576
 9086WAT     H127500   5.062   7.032   1.480
 9086WAT     H227501   5.116   6.924   1.591
 9087WAT      O27502   0.503   4.320   0.407
 9087WAT     H127503   0.421   4.349   0.356
 9087WAT     H227504   0.530   4.229   0.377
 9088WAT      O27505   7.439   1.983   4.751
 9088WAT     H127506   7.414   1.972   4.655
 9088WAT     H227507   7.534   2.014   4.757
 9089WAT      O27508   0.258   6.138   6.383
 9089WAT     H127509   0.268   6.039   6.392
 9089WAT     H227510   0.341   6.176   6.342
 9090WAT      O27511   8.667   5.413   0.785
 9090WAT     H127512   8.724   5.375   0.858
 9090WAT     H227513   8.571   5.414   0.814
 9091WAT      O27514   1.268   4.870   3.650
 9091WAT     H127515   1.309   4.947   3.600
 9091WAT     H227516   1.280   4.787   3.596
 9092WAT      O27517   2.746   6.125   0.411
 9092WAT     H127518   2.818   6.084   0.467
 9092WAT     H227519   2.678   6.055   0.389
 9093WAT      O27520   2.734   9.438   8.228
 9093WAT     H127521   2.827   9.432   8.190
 9093WAT     H227522   2.712   9.353   8.275
 9094WAT      O27523   1.772   4.635   6.962
 9094WAT     H127524   1.791   4.724   6.922
 9094WAT     H227525   1.755   4.569   6.889
 9095WAT      O27526   3.127   4.089   6.010
 9095WAT     H127527   3.069   4.021   6.055
 9095WAT     H227528   3.075   4.174   5.997
 9096WAT      O27529   2.747   1.635   2.642
 9096WAT     H127530   2.730   1.580   2.724
 9096WAT     H227531   2.679   1.611   2.573
 9097WAT      O27532   4.850   5.219   6.556
 9097WAT     H127533   4.902   5.237   6.473
 9097WAT     H227534   4.811   5.127   6.552
 9098WAT      O27535   4.041   4.177   7.108
 9098WAT     H127536   4.058   4.160   7.205
 9098WAT     H227537   4.046   4.275   7.090
 9099WAT      O27538   6.179   3.872   8.211
 9099WAT     H127539   6.150   3.840   8.120
 9099WAT     H227540   6.245   3.808   8.249
 9100WAT      O27541   3.853   3.660   0.322
 9100WAT     H127542   3.917   3.625   0.389
 9100WAT     H227543   3.825   3.587   0.260
 9101WAT      O27544   6.565   2.526   3.953
 9101WAT     H127545   6.470   2.530   3.921
 9101WAT     H227546   6.609   2.614   3.937
 9102WAT      O27547   4.776   7.461   3.126
 9102WAT     H127548   4.771   7.399   3.204
 9102WAT     H227549   4.869   7.496   3.117
 9103WAT      O27550   6.246   6.902   3.129
 9103WAT     H127551   6.240   6.887   3.227
 9103WAT     H227552   6.268   6.998   3.111
 9104WAT      O27553   9.046   5.327   5.327
 9104WAT     H127554   9.032   5.237   5.286
 9104WAT     H227555   9.137   5.360   5.305
 9105WAT      O27556   1.762   4.178   1.032
 9105WAT     H127557   1.827   4.213   0.965
 9105WAT     H227558   1.687   4.244   1.042
 9106WAT      O27559   5.961   6.292   9.310
 9106WAT     H127560   6.034   6.241   9.264
 9106WAT     H227561   5.900   6.332   9.241
 9107WAT      O27562   9.474   7.332   0.861
 9107WAT     H127563   9.558   7.385   0.865
 9107WAT     H227564   9.469   7.270   0.939
 9108WAT      O27565   1.047   2.432   2.811
 9108WAT     H127566   1.011   2.450   2.719
 9108WAT     H227567   1.145   2.416   2.805
 9109WAT      O27568   6.699   6.555   5.969
 9109WAT     H127569   6.765   6.579   6.039
 9109WAT     H227570   6.720   6.464   5.933
 9110WAT      O27571   8.996   1.201   2.985
 9110WAT     H127572   8.905   1.178   3.019
 9110WAT     H227573   8.989   1.258   2.903
 9111WAT      O27574   5.477   0.963   5.307
 9111WAT     H127575   5.546   1.005   5.247
 9111WAT     H227576   5.519   0.888   5.358
 9112WAT      O27577   2.506   2.009   0.074
 9112WAT     H127578   2.421   2.012   0.022
 9112WAT     H227579   2.506   2.082   0.143
 9113WAT      O27580   1.625   1.741   5.927
 9113WAT     H127581   1.540   1.689   5.919
 9113WAT     H227582   1.607   1.826   5.976
 9114WAT      O27583   9.239   6.888   1.385
 9114WAT     H127584   9.284   6.814   1.337
 9114WAT     H227585   9.151   6.909   1.341
 9115WAT      O27586   1.561   4.906   9.764
 9115WAT     H127587   1.645   4.916   9.817
 9115WAT     H227588   1.501   4.984   9.780
 9116WAT      O27589   1.625   5.895   0.640
 9116WAT     H127590   1.565   5.915   0.717
 9116WAT     H227591   1.636   5.977   0.584
 9117WAT      O27592   8.486   9.344   7.187
 9117WAT     H127593   8.440   9.352   7.275
 9117WAT     H227594   8.484   9.249   7.156
 9118WAT      O27595   7.643   1.965   3.964
 9118WAT     H127596   7.650   1.872   3.998
 9118WAT     H227597   7.614   1.963   3.868
 9119WAT      O27598   1.417   0.229   5.539
 9119WAT     H127599   1.437   0.289   5.462
 9119WAT     H227600   1.361   0.278   5.606
 9120WAT      O27601   8.297   3.418   0.569
 9120WAT     H127602   8.270   3.322   0.564
 9120WAT     H227603   8.238   3.473   0.510
 9121WAT      O27604   5.576   3.876   4.610
 9121WAT     H127605   5.615   3.810   4.546
 9121WAT     H227606   5.648   3.912   4.669
 9122WAT      O27607   8.560   9.302   2.285
 9122WAT     H127608   8.659   9.316   2.278
 9122WAT     H227609   8.527   9.256   2.202
 9123WAT      O27610   4.961   6.742   9.537
 9123WAT     H127611   5.001   6.825   9.496
 9123WAT     H227612   4.880   6.715   9.484
 9124WAT      O27613   3.264   4.044   7.717
 9124WAT     H127614   3.230   4.137   7.699
 9124WAT     H227615   3.188   3.985   7.745
 9125WAT      O27616   4.433   8.800   2.001
 9125WAT     H127617   4.339   8.778   1.976
 9125WAT     H227618   4.433   8.858   2.082
 9126WAT      O27619   6.000   5.277   6.590
 9126WAT     H127620   6.072   5.224   6.545
 9126WAT     H227621   5.924   5.291   6.527
 9127WAT      O27622   1.656   1.178   8.097
 9127WAT     H127623   1.569   1.214   8.131
 9127WAT     H227624   1.690   1.108   8.160
 9128WAT      O27625   6.294   7.368   6.255
 9128WAT     H127626   6.322   7.289   6.202
 9128WAT     H227627   6.296   7.450   6.197
 9129WAT      O27628   0.309   0.409   6.916
 9129WAT     H127629   0.288   0.476   6.987
 9129WAT     H227630   0.272   0.440   6.828
 9130WAT      O27631   5.251   2.524   7.645
 9130WAT     H127632   5.257   2.621   7.621
 9130WAT     H227633   5.198   2.476   7.575
 9131WAT      O27634   3.054   7.056   5.737
 9131WAT     H127635   3.010   7.073   5.649
 9131WAT     H227636   2.985   7.026   5.803
 9132WAT      O27637   2.174   8.013   5.671
 9132WAT     H127638   2.083   7.978   5.693
 9132WAT     H227639   2.180   8.030   5.573
 9133WAT      O27640   3.446   1.668   5.846
 9133WAT     H127641   3.493   1.741   5.797
 9133WAT     H227642   3.351   1.693   5.862
 9134WAT      O27643   7.204   3.496   7.479
 9134WAT     H127644   7.180   3.586   7.444
 9134WAT     H227645   7.179   3.489   7.575
 9135WAT      O27646   9.724   5.028   1.952
 9135WAT     H127647   9.708   4.983   2.040
 9135WAT     H227648   9.804   5.088   1.960
 9136WAT      O27649   5.476   6.947   1.803
 9136WAT     H127650   5.492   7.041   1.774
 9136WAT     H227651   5.563   6.902   1.823
 9137WAT      O27652   6.967   4.546   9.823
 9137WAT     H127653   6.923   4.462   9.855
 9137WAT     H227654   7.032   4.579   9.891
 9138WAT      O27655   2.200   1.999   5.907
 9138WAT     H127656   2.245   1.999   5.818
 9138WAT     H227657   2.151   1.913   5.920
 9139WAT      O27658   5.536   0.589   6.882
 9139WAT     H127659   5.611   0.540   6.927
 9139WAT     H227660   5.514   0.543   6.796
 9140WAT      O27661   2.094   4.772   7.308
 9140WAT     H127662   2.061   4.698   7.249
 9140WAT     H227663   2.017   4.831   7.333
 9141WAT      O27664   1.260   5.577   2.973
 9141WAT     H127665   1.325   5.653   2.966
 9141WAT     H227666   1.287   5.505   2.909
 9142WAT      O27667   6.131   2.825   8.816
 9142WAT     H127668   6.062   2.781   8.873
 9142WAT     H227669   6.176   2.757   8.759
 9143WAT      O27670   1.787   0.091   5.961
 9143WAT     H127671   1.809   0.012   6.019
 9143WAT     H227672   1.830   0.173   5.998
 9144WAT      O27673   8.183   3.434   2.572
 9144WAT     H127674   8.103   3.493   2.571
 9144WAT     H227675   8.155   3.338   2.568
 9145WAT      O27676   8.728   9.538   6.471
 9145WAT     H127677   8.793   9.523   6.546
 9145WAT     H227678   8.639   9.499   6.497
 9146WAT      O27679   2.524   3.809   4.095
 9146WAT     H127680   2.581   3.828   4.175
 9146WAT     H227681   2.555   3.864   4.018
 9147WAT      O27682   0.913   2.413   2.314
 9147WAT     H127683   0.937   2.461   2.399
 9147WAT     H227684   0.868   2.327   2.336
 9148WAT      O27685   3.477   9.085   7.948
 9148WAT     H127686   3.546   9.015   7.967
 9148WAT     H227687   3.436   9.116   8.034
 9149WAT      O27688   4.543   5.503   3.545
 9149WAT     H127689   4.595   5.439   3.601
 9149WAT     H227690   4.598   5.585   3.528
 9150WAT      O27691   3.590   1.178   5.982
 9150WAT     H127692   3.618   1.174   5.887
 9150WAT     H227693   3.650   1.120   6.037
 9151WAT      O27694   8.331   0.464   0.350
 9151WAT     H127695   8.396   0.392   0.325
 9151WAT     H227696   8.265   0.477   0.275
 9152WAT      O27697   6.099   5.325   9.356
 9152WAT     H127698   6.120   5.266   9.279
 9152WAT     H227699   6.183   5.346   9.407
 9153WAT      O27700   0.550   4.054   0.350
 9153WAT     H127701   0.616   3.989   0.389
 9153WAT     H227702   0.464   4.050   0.401
 9154WAT      O27703   4.893   9.115   5.692
 9154WAT     H127704   4.976   9.123   5.636
 9154WAT     H227705   4.889   9.023   5.731
 9155WAT      O27706   3.752   2.564   1.187
 9155WAT     H127707   3.839   2.569   1.140
 9155WAT     H227708   3.724   2.656   1.215
 9156WAT      O27709   6.688   3.757   1.878
 9156WAT     H127710   6.744   3.839   1.866
 9156WAT     H227711   6.597   3.783   1.910
 9157WAT      O27712   9.091   1.948   8.071
 9157WAT     H127713   9.132   1.879   8.131
 9157WAT     H227714   9.123   2.038   8.098
 9158WAT      O27715   1.035   4.838   9.435
 9158WAT     H127716   1.110   4.780   9.465
 9158WAT     H227717   0.964   4.841   9.506
 9159WAT      O27718   6.275   9.403   9.207
 9159WAT     H127719   6.202   9.453   9.255
 9159WAT     H227720   6.362   9.451   9.221
 9160WAT      O27721   9.443   2.916   5.624
 9160WAT     H127722   9.482   2.922   5.716
 9160WAT     H227723   9.489   2.981   5.564
 9161WAT      O27724   2.000   9.553   7.477
 9161WAT     H127725   2.088   9.515   7.508
 9161WAT     H227726   1.935   9.551   7.553
 9162WAT      O27727   3.943   6.276   8.340
 9162WAT     H127728   3.995   6.308   8.418
 9162WAT     H227729   4.003   6.227   8.277
 9163WAT      O27730   5.485   4.275   0.335
 9163WAT     H127731   5.494   4.235   0.425
 9163WAT     H227732   5.498   4.374   0.341
 9164WAT      O27733   6.022   8.809   6.525
 9164WAT     H127734   6.026   8.896   6.476
 9164WAT     H227735   6.045   8.823   6.621
 9165WAT      O27736   0.716   8.753   8.269
 9165WAT     H127737   0.745   8.659   8.285
 9165WAT     H227738   0.796   8.812   8.260
 9166WAT      O27739   1.665   7.044   5.734
 9166WAT     H127740   1.605   7.031   5.813
 9166WAT     H227741   1.760   7.047   5.765
 9167WAT      O27742   5.858   3.978   6.372
 9167WAT     H127743   5.780   3.928   6.333
 9167WAT     H227744   5.920   4.006   6.298
 9168WAT      O27745   0.353   4.069   6.028
 9168WAT     H127746   0.367   3.970   6.023
 9168WAT     H227747   0.260   4.091   6.000
 9169WAT      O27748   8.202   5.831   0.380
 9169WAT     H127749   8.177   5.734   0.382
 9169WAT     H227750   8.157   5.878   0.455
 9170WAT      O27751   2.103   1.381   9.094
 9170WAT     H127752   2.054   1.465   9.071
 9170WAT     H227753   2.039   1.304   9.090
 9171WAT      O27754   8.525   6.600   0.550
 9171WAT     H127755   8.563   6.569   0.463
 9171WAT     H227756   8.556   6.693   0.569
 9172WAT      O27757   0.522   9.072   6.809
 9172WAT     H127758   0.613   9.075   6.850
 9172WAT     H227759   0.460   9.019   6.868
 9173WAT      O27760   5.626   5.309   6.913
 9173WAT     H127761   5.623   5.408   6.894
 9173WAT     H227762   5.664   5.261   6.834
 9174WAT      O27763   3.196   1.390   8.742
 9174WAT     H127764   3.251   1.405   8.823
 9174WAT     H227765   3.196   1.293   8.718
 9175WAT      O27766   6.745   4.101   7.539
 9175WAT     H127767   6.697   4.113   7.625
 9175WAT     H227768   6.713   4.169   7.473
 9176WAT      O27769   6.100   8.388   6.672
 9176WAT     H127770   6.165   8.441   6.617
 9176WAT     H227771   6.077   8.440   6.754
 9177WAT      O27772   6.343   2.783   7.503
 9177WAT     H127773   6.365   2.737   7.589
 9177WAT     H227774   6.244   2.796   7.496
 9178WAT      O27775   3.517   4.878   1.854
 9178WAT     H127776   3.583   4.814   1.814
 9178WAT     H227777   3.465   4.831   1.925
 9179WAT      O27778   0.598   3.605   3.184
 9179WAT     H127779   0.670   3.614   3.253
 9179WAT     H227780   0.628   3.541   3.113
 9180WAT      O27781   3.299   6.037   8.195
 9180WAT     H127782   3.247   5.977   8.255
 9180WAT     H227783   3.301   6.129   8.234
 9181WAT      O27784   8.527   4.755   4.278
 9181WAT     H127785   8.472   4.757   4.362
 9181WAT     H227786   8.614   4.709   4.296
 9182WAT      O27787   9.010   2.739   6.527
 9182WAT     H127788   8.951   2.815   6.499
 9182WAT     H227789   9.020   2.675   6.451
 9183WAT      O27790   9.760   3.242   7.596
 9183WAT     H127791   9.817   3.232   7.514
 9183WAT     H227792   9.800   3.188   7.670
 9184WAT      O27793   4.633   9.198   1.655
 9184WAT     H127794   4.564   9.127   1.674
 9184WAT     H227795   4.644   9.256   1.736
 9185WAT      O27796   1.596   5.929   7.093
 9185WAT     H127797   1.530   5.997   7.125
 9185WAT     H227798   1.597   5.851   7.155
 9186WAT      O27799   9.252   6.413   0.366
 9186WAT     H127800   9.172   6.405   0.426
 9186WAT     H227801   9.228   6.465   0.284
 9187WAT      O27802   0.412   6.692   4.998
 9187WAT     H127803   0.445   6.780   5.032
 9187WAT     H227804   0.432   6.621   5.065
 9188WAT      O27805   1.692   1.047   9.392
 9188WAT     H127806   1.689   0.975   9.322
 9188WAT     H227807   1.726   1.131   9.351
 9189WAT      O27808   0.564   2.283   4.139
 9189WAT     H127809   0.466   2.294   4.124
 9189WAT     H227810   0.595   2.199   4.095
 9190WAT      O27811   9.817   8.214   4.414
 9190WAT     H127812   9.820   8.124   4.369
 9190WAT     H227813   9.808   8.286   4.345
 9191WAT      O27814   5.029   6.545   7.549
 9191WAT     H127815   4.932   6.519   7.554
 9191WAT     H227816   5.085   6.463   7.544
 9192WAT      O27817   2.749   5.201   1.573
 9192WAT     H127818   2.702   5.250   1.499
 9192WAT     H227819   2.826   5.150   1.535
 9193WAT      O27820   6.995   1.796   6.824
 9193WAT     H127821   6.953   1.776   6.913
 9193WAT     H227822   7.081   1.844   6.839
 9194WAT      O27823   0.836   8.561   2.352
 9194WAT     H127824   0.776   8.497   2.400
 9194WAT     H227825   0.922   8.570   2.402
 9195WAT      O27826   4.054   2.270   9.516
 9195WAT     H127827   4.078   2.361   9.549
 9195WAT     H227828   4.131   2.231   9.466
 9196WAT      O27829   2.590   3.145   3.147
 9196WAT     H127830   2.500   3.175   3.116
 9196WAT     H227831   2.653   3.143   3.069
 9197WAT      O27832   8.965   1.309   2.715
 9197WAT     H127833   9.020   1.392   2.705
 9197WAT     H227834   8.888   1.312   2.652
 9198WAT      O27835   4.826   9.771   9.706
 9198WAT     H127836   4.886   9.843   9.743
 9198WAT     H227837   4.811   9.702   9.776
 9199WAT      O27838   9.421   4.178   1.528
 9199WAT     H127839   9.464   4.152   1.614
 9199WAT     H227840   9.414   4.278   1.524
 9200WAT      O27841   0.551   3.115   5.158
 9200WAT     H127842   0.598   3.115   5.070
 9200WAT     H227843   0.523   3.208   5.181
 9201WAT      O27844   6.539   8.133   0.886
 9201WAT     H127845   6.628   8.158   0.847
 9201WAT     H227846   6.490   8.074   0.822
 9202WAT      O27847   8.430   6.755   6.771
 9202WAT     H127848   8.436   6.699   6.854
 9202WAT     H227849   8.350   6.815   6.778
 9203WAT      O27850   3.800   0.989   7.136
 9203WAT     H127851   3.883   0.936   7.120
 9203WAT     H227852   3.819   1.061   7.204
 9204WAT      O27853   8.579   9.577   0.651
 9204WAT     H127854   8.561   9.673   0.670
 9204WAT     H227855   8.563   9.558   0.555
 9205WAT      O27856   4.749   2.482   0.447
 9205WAT     H127857   4.739   2.577   0.478
 9205WAT     H227858   4.662   2.449   0.411
 9206WAT      O27859   6.860   0.969   5.423
 9206WAT     H127860   6.880   0.963   5.325
 9206WAT     H227861   6.841   0.878   5.459
 9207WAT      O27862   3.460   5.237   2.071
 9207WAT     H127863   3.380   5.233   2.011
 9207WAT     H227864   3.489   5.333   2.082
 9208WAT      O27865   9.329   9.798   0.100
 9208WAT     H127866   9.231   9.819   0.092
 9208WAT     H227867   9.370   9.792   0.010
 9209WAT      O27868   3.771   9.150   5.995
 9209WAT     H127869   3.716   9.159   5.911
 9209WAT     H227870   3.711   9.132   6.072
 9210WAT      O27871   0.377   7.867   3.934
 9210WAT     H127872   0.446   7.802   3.904
 9210WAT     H227873   0.328   7.829   4.013
 9211WAT      O27874   7.451   8.309   5.627
 9211WAT     H127875   7.372   8.297   5.567
 9211WAT     H227876   7.430   8.376   5.697
 9212WAT      O27877   9.081   3.126   8.285
 9212WAT     H127878   9.175   3.118   8.317
 9212WAT     H227879   9.050   3.221   8.296
 9213WAT      O27880   6.587   2.017   0.488
 9213WAT     H127881   6.518   2.016   0.416
 9213WAT     H227882   6.545   2.049   0.574
 9214WAT      O27883   0.928   3.879   3.261
 9214WAT     H127884   0.877   3.805   3.305
 9214WAT     H227885   0.910   3.965   3.308
 9215WAT      O27886   4.205   3.254   8.458
 9215WAT     H127887   4.170   3.202   8.380
 9215WAT     H227888   4.300   3.278   8.441
 9216WAT      O27889   6.649   2.036   8.771
 9216WAT     H127890   6.587   1.958   8.767
 9216WAT     H227891   6.643   2.088   8.686
 9217WAT      O27892   9.611   4.704   8.596
 9217WAT     H127893   9.525   4.754   8.592
 9217WAT     H227894   9.671   4.745   8.665
 9218WAT      O27895   0.540   4.661   1.778
 9218WAT     H127896   0.612   4.707   1.829
 9218WAT     H227897   0.465   4.725   1.761
 9219WAT      O27898   9.769   9.059   8.044
 9219WAT     H127899   9.732   9.026   8.131
 9219WAT     H227900   9.774   8.983   7.979
 9220WAT      O27901   6.177   1.280   0.341
 9220WAT     H127902   6.257   1.270   0.282
 9220WAT     H227903   6.100   1.313   0.287
 9221WAT      O27904   9.015   2.163   7.349
 9221WAT     H127905   8.962   2.186   7.430
 9221WAT     H227906   9.030   2.245   7.294
 9222WAT      O27907   7.435   1.719   5.172
 9222WAT     H127908   7.356   1.669   5.135
 9222WAT     H227909   7.404   1.781   5.243
 9223WAT      O27910   5.761   5.055   0.438
 9223WAT     H127911   5.698   5.073   0.363
 9223WAT     H227912   5.710   5.049   0.524
 9224WAT      O27913   6.011   5.078   1.251
 9224WAT     H127914   6.104   5.106   1.225
 9224WAT     H227915   5.990   4.989   1.211
 9225WAT      O27916   4.919   3.675   7.620
 9225WAT     H127917   4.895   3.714   7.531
 9225WAT     H227918   5.012   3.703   7.645
 9226WAT      O27919   4.926   4.632   8.643
 9226WAT     H127920   5.022   4.657   8.646
 9226WAT     H227921   4.917   4.538   8.611
 9227WAT      O27922   7.514   2.916   7.035
 9227WAT     H127923   7.459   2.873   6.964
 9227WAT     H227924   7.458   2.930   7.117
 9228WAT      O27925   0.422   5.574   2.713
 9228WAT     H127926   0.425   5.483   2.671
 9228WAT     H227927   0.399   5.642   2.643
 9229WAT      O27928   2.314   1.559   1.120
 9229WAT     H127929   2.403   1.602   1.109
 9229WAT     H227930   2.315   1.469   1.077
 9230WAT      O27931   3.641   5.553   4.050
 9230WAT     H127932   3.667   5.478   3.990
 9230WAT     H227933   3.542   5.568   4.044
 9231WAT      O27934   7.852   6.265   5.762
 9231WAT     H127935   7.860   6.365   5.755
 9231WAT     H227936   7.774   6.242   5.821
 9232WAT      O27937   7.106   0.484   2.134
 9232WAT     H127938   7.047   0.421   2.184
 9232WAT     H227939   7.186   0.435   2.100
 9233WAT      O27940   5.975   2.758   6.428
 9233WAT     H127941   6.069   2.759   6.462
 9233WAT     H227942   5.973   2.783   6.331
 9234WAT      O27943   9.511   5.597   3.097
 9234WAT     H127944   9.507   5.588   3.196
 9234WAT     H227945   9.559   5.681   3.073
 9235WAT      O27946   2.855   0.373   2.603
 9235WAT     H127947   2.845   0.318   2.685
 9235WAT     H227948   2.934   0.434   2.612
 9236WAT      O27949   0.178   5.275   6.468
 9236WAT     H127950   0.096   5.279   6.411
 9236WAT     H227951   0.188   5.362   6.518
 9237WAT      O27952   3.108   8.236   1.384
 9237WAT     H127953   3.020   8.213   1.426
 9237WAT     H227954   3.156   8.303   1.441
 9238WAT      O27955   3.827   4.704   9.201
 9238WAT     H127956   3.740   4.740   9.168
 9238WAT     H227957   3.814   4.660   9.290
 9239WAT      O27958   0.860   3.170   5.545
 9239WAT     H127959   0.877   3.187   5.448
 9239WAT     H227960   0.942   3.131   5.587
 9240WAT      O27961   3.798   9.331   7.829
 9240WAT     H127962   3.846   9.357   7.913
 9240WAT     H227963   3.851   9.263   7.779
 9241WAT      O27964   4.136   6.872   0.976
 9241WAT     H127965   4.075   6.793   0.989
 9241WAT     H227966   4.165   6.876   0.881
 9242WAT      O27967   2.121   8.325   7.097
 9242WAT     H127968   2.218   8.327   7.070
 9242WAT     H227969   2.074   8.403   7.057
 9243WAT      O27970   4.256   0.083   0.200
 9243WAT     H127971   4.327   0.153   0.210
 9243WAT     H227972   4.249   0.057   0.104
 9244WAT      O27973   8.905   2.224   3.166
 9244WAT     H127974   8.909   2.136   3.214
 9244WAT     H227975   8.810   2.257   3.165
 9245WAT      O27976   9.024   9.788   2.830
 9245WAT     H127977   9.085   9.754   2.758
 9245WAT     H227978   8.936   9.813   2.790
 9246WAT      O27979   1.217   0.772   5.889
 9246WAT     H127980   1.170   0.851   5.929
 9246WAT     H227981   1.311   0.768   5.925
 9247WAT      O27982   8.653   3.378   9.519
 9247WAT     H127983   8.666   3.362   9.617
 9247WAT     H227984   8.733   3.427   9.483
 9248WAT      O27985   7.452   7.772   2.631
 9248WAT     H127986   7.357   7.742   2.641
 9248WAT     H227987   7.483   7.814   2.717
 9249WAT      O27988   8.136   4.443   0.620
 9249WAT     H127989   8.079   4.362   0.608
 9249WAT     H227990   8.232   4.415   0.630
 9250WAT      O27991   5.275   0.490   6.909
 9250WAT     H127992   5.346   0.560   6.910
 9250WAT     H227993   5.311   0.406   6.868
 9251WAT      O27994   0.176   5.650   6.261
 9251WAT     H127995   0.111   5.693   6.199
 9251WAT     H227996   0.134   5.570   6.303
 9252WAT      O27997   1.585   5.605   8.055
 9252WAT     H127998   1.645   5.629   7.980
 9252WAT     H227999   1.615   5.518   8.095
 9253WAT      O28000   9.570   8.371   1.242
 9253WAT     H128001   9.571   8.440   1.315
 9253WAT     H228002   9.664   8.349   1.217
 9254WAT      O28003   4.420   9.327   1.178
 9254WAT     H128004   4.450   9.337   1.273
 9254WAT     H228005   4.321   9.314   1.176
 9255WAT      O28006   3.262   4.869   3.362
 9255WAT     H128007   3.312   4.793   3.321
 9255WAT     H228008   3.166   4.843   3.374
 9256WAT      O28009   9.832   8.270   4.890
 9256WAT     H128010   9.856   8.357   4.933
 9256WAT     H228011   9.860   8.195   4.949
 9257WAT      O28012   7.874   5.520   4.777
 9257WAT     H128013   7.893   5.617   4.762
 9257WAT     H228014   7.932   5.485   4.851
 9258WAT      O28015   4.238   3.905   3.846
 9258WAT     H128016   4.275   3.853   3.923
 9258WAT     H228017   4.177   3.976   3.880
 9259WAT      O28018   6.673   7.748   4.307
 9259WAT     H128019   6.585   7.771   4.266
 9259WAT     H228020   6.694   7.813   4.380
 9260WAT      O28021   2.094   3.229   4.689
 9260WAT     H128022   2.026   3.155   4.697
 9260WAT     H228023   2.130   3.251   4.779
 9261WAT      O28024   1.345   1.939   3.421
 9261WAT     H128025   1.393   1.979   3.499
 9261WAT     H228026   1.396   1.959   3.338
 9262WAT      O28027   8.019   8.163   8.940
 9262WAT     H128028   7.988   8.143   9.033
 9262WAT     H228029   7.939   8.179   8.881
 9263WAT      O28030   1.573   7.254   5.610
 9263WAT     H128031   1.480   7.229   5.580
 9263WAT     H228032   1.616   7.177   5.655
 9264WAT      O28033   6.579   6.290   2.114
 9264WAT     H128034   6.612   6.217   2.053
 9264WAT     H228035   6.619   6.377   2.085
 9265WAT      O28036   9.781   7.025   8.524
 9265WAT     H128037   9.795   7.074   8.438
 9265WAT     H228038   9.722   6.946   8.508
 9266WAT      O28039   5.488   0.185   6.582
 9266WAT     H128040   5.563   0.209   6.520
 9266WAT     H228041   5.419   0.132   6.532
 9267WAT      O28042   3.797   6.949   5.054
 9267WAT     H128043   3.821   6.875   5.117
 9267WAT     H228044   3.826   7.037   5.092
 9268WAT      O28045   1.594   7.535   6.671
 9268WAT     H128046   1.621   7.613   6.728
 9268WAT     H228047   1.615   7.450   6.719
 9269WAT      O28048   2.299   2.082   7.484
 9269WAT     H128049   2.343   1.999   7.450
 9269WAT     H228050   2.328   2.099   7.578
 9270WAT      O28051   2.741   3.886   3.094
 9270WAT     H128052   2.839   3.906   3.089
 9270WAT     H228053   2.723   3.836   3.179
 9271WAT      O28054   7.919   5.733   0.544
 9271WAT     H128055   7.843   5.780   0.498
 9271WAT     H228056   7.997   5.795   0.551
 9272WAT      O28057   0.912   8.507   1.662
 9272WAT     H128058   0.915   8.595   1.616
 9272WAT     H228059   0.825   8.497   1.710
 9273WAT      O28060   6.440   1.702   5.739
 9273WAT     H128061   6.385   1.782   5.761
 9273WAT     H228062   6.528   1.731   5.702
 9274WAT      O28063   3.613   5.279   5.619
 9274WAT     H128064   3.549   5.247   5.687
 9274WAT     H228065   3.590   5.373   5.593
 9275WAT      O28066   1.718   9.147   0.030
 9275WAT     H128067   1.789   9.077   0.022
 9275WAT     H228068   1.751   9.233  -0.010
 9276WAT      O28069   3.316   3.924   7.465
 9276WAT     H128070   3.406   3.950   7.430
 9276WAT     H228071   3.298   3.972   7.551
 9277WAT      O28072   9.176   5.043   4.712
 9277WAT     H128073   9.227   4.963   4.683
 9277WAT     H228074   9.117   5.019   4.789
 9278WAT      O28075   0.748   0.521   6.462
 9278WAT     H128076   0.654   0.500   6.490
 9278WAT     H228077   0.804   0.538   6.544
 9279WAT      O28078   4.713   5.021   2.652
 9279WAT     H128079   4.775   5.062   2.719
 9279WAT     H228080   4.656   5.092   2.611
 9280WAT      O28081   8.667   0.821   7.646
 9280WAT     H128082   8.698   0.824   7.551
 9280WAT     H228083   8.650   0.726   7.672
 9281WAT      O28084   6.750   8.327   4.384
 9281WAT     H128085   6.661   8.284   4.372
 9281WAT     H228086   6.796   8.336   4.295
 9282WAT      O28087   4.115   6.240   5.412
 9282WAT     H128088   4.162   6.328   5.407
 9282WAT     H228089   4.176   6.172   5.455
 9283WAT      O28090   7.757   9.424   7.504
 9283WAT     H128091   7.736   9.509   7.553
 9283WAT     H228092   7.672   9.373   7.491
 9284WAT      O28093   9.651   1.187   8.139
 9284WAT     H128094   9.637   1.232   8.050
 9284WAT     H228095   9.641   1.088   8.128
 9285WAT      O28096   6.383   7.639   6.723
 9285WAT     H128097   6.429   7.602   6.642
 9285WAT     H228098   6.352   7.563   6.781
 9286WAT      O28099   3.685   3.797   5.620
 9286WAT     H128100   3.781   3.823   5.621
 9286WAT     H228101   3.638   3.846   5.546
 9287WAT      O28102   0.439   7.971   6.844
 9287WAT     H128103   0.501   7.893   6.843
 9287WAT     H228104   0.488   8.052   6.812
 9288WAT      O28105   8.669   8.358   6.246
 9288WAT     H128106   8.573   8.338   6.227
 9288WAT     H228107   8.706   8.288   6.307
 9289WAT      O28108   3.460   8.471   8.181
 9289WAT     H128109   3.470   8.517   8.092
 9289WAT     H228110   3.364   8.454   8.200
 9290WAT      O28111   1.854   8.934   2.448
 9290WAT     H128112   1.948   8.902   2.455
 9290WAT     H228113   1.792   8.860   2.473
 9291WAT      O28114   3.565   6.084   9.058
 9291WAT     H128115   3.507   6.097   8.978
 9291WAT     H228116   3.509   6.077   9.140
 9292WAT      O28117   1.021   0.897   7.013
 9292WAT     H128118   0.942   0.865   7.065
 9292WAT     H228119   1.098   0.913   7.074
 9293WAT      O28120   1.967   5.610   0.490
 9293WAT     H128121   1.980   5.627   0.393
 9293WAT     H228122   1.938   5.694   0.535
 9294WAT      O28123   0.419   1.275   5.386
 9294WAT     H128124   0.377   1.303   5.472
 9294WAT     H228125   0.474   1.193   5.401
 9295WAT      O28126   2.947   3.262   8.882
 9295WAT     H128127   3.028   3.259   8.823
 9295WAT     H228128   2.908   3.170   8.888
 9296WAT      O28129   0.727   5.349   7.478
 9296WAT     H128130   0.678   5.428   7.512
 9296WAT     H228131   0.776   5.304   7.553
 9297WAT      O28132   8.386   5.559   2.958
 9297WAT     H128133   8.472   5.585   3.002
 9297WAT     H228134   8.378   5.459   2.954
 9298WAT      O28135   3.654   5.128   1.535
 9298WAT     H128136   3.606   5.155   1.452
 9298WAT     H228137   3.696   5.039   1.522
 9299WAT      O28138   6.955   8.266   0.530
 9299WAT     H128139   6.939   8.201   0.455
 9299WAT     H228140   7.013   8.340   0.497
 9300WAT      O28141   3.121   4.938   8.409
 9300WAT     H128142   3.165   5.027   8.394
 9300WAT     H228143   3.136   4.880   8.329
 9301WAT      O28144   3.497   6.925   5.305
 9301WAT     H128145   3.487   6.934   5.206
 9301WAT     H228146   3.462   7.007   5.350
 9302WAT      O28147   6.829   3.101   6.066
 9302WAT     H128148   6.857   3.126   6.159
 9302WAT     H228149   6.810   3.184   6.014
 9303WAT      O28150   0.202   3.749   5.118
 9303WAT     H128151   0.237   3.837   5.087
 9303WAT     H228152   0.135   3.715   5.053
 9304WAT      O28153   8.279   2.865   1.915
 9304WAT     H128154   8.192   2.859   1.867
 9304WAT     H228155   8.353   2.846   1.850
 9305WAT      O28156   1.905   1.717   3.946
 9305WAT     H128157   1.825   1.656   3.953
 9305WAT     H228158   1.894   1.776   3.866
 9306WAT      O28159   3.105   7.427   5.685
 9306WAT     H128160   3.077   7.377   5.603
 9306WAT     H228161   3.026   7.438   5.746
 9307WAT      O28162   9.655   2.068   9.686
 9307WAT     H128163   9.736   2.009   9.681
 9307WAT     H228164   9.608   2.053   9.773
 9308WAT      O28165   7.186   3.179   4.960
 9308WAT     H128166   7.265   3.235   4.939
 9308WAT     H228167   7.129   3.225   5.028
 9309WAT      O28168   6.219   0.218   1.757
 9309WAT     H128169   6.137   0.238   1.810
 9309WAT     H228170   6.196   0.158   1.680
 9310WAT      O28171   9.575   1.611   2.174
 9310WAT     H128172   9.525   1.534   2.213
 9310WAT     H228173   9.568   1.609   2.074
 9311WAT      O28174   1.433   6.922   0.908
 9311WAT     H128175   1.490   6.958   0.835
 9311WAT     H228176   1.465   6.957   0.996
 9312WAT      O28177   5.213   8.818   3.202
 9312WAT     H128178   5.291   8.840   3.145
 9312WAT     H228179   5.225   8.727   3.242
 9313WAT      O28180   3.768   5.613   9.719
 9313WAT     H128181   3.829   5.608   9.640
 9313WAT     H228182   3.821   5.598   9.803
 9314WAT      O28183   6.717   6.672   1.223
 9314WAT     H128184   6.802   6.650   1.174
 9314WAT     H228185   6.706   6.608   1.299
 9315WAT      O28186   5.956   7.733   7.573
 9315WAT     H128187   5.926   7.654   7.625
 9315WAT     H228188   6.015   7.791   7.630
 9316WAT      O28189   2.769   0.128   7.302
 9316WAT     H128190   2.828   0.086   7.371
 9316WAT     H228191   2.765   0.069   7.221
 9317WAT      O28192   1.852   9.572   6.724
 9317WAT     H128193   1.804   9.610   6.803
 9317WAT     H228194   1.928   9.515   6.755
 9318WAT      O28195   5.608   1.770   1.812
 9318WAT     H128196   5.578   1.695   1.871
 9318WAT     H228197   5.685   1.740   1.756
 9319WAT      O28198   1.152   8.622   8.149
 9319WAT     H128199   1.248   8.651   8.152
 9319WAT     H228200   1.098   8.690   8.100
 9320WAT      O28201   8.776   6.420   6.024
 9320WAT     H128202   8.807   6.460   5.938
 9320WAT     H228203   8.788   6.321   6.021
 9321WAT      O28204   9.585   6.837   4.896
 9321WAT     H128205   9.554   6.917   4.844
 9321WAT     H228206   9.669   6.860   4.945
 9322WAT      O28207   9.177   0.779   1.127
 9322WAT     H128208   9.139   0.686   1.128
 9322WAT     H228209   9.103   0.844   1.110
 9323WAT      O28210   5.567   5.569   7.035
 9323WAT     H128211   5.531   5.662   7.034
 9323WAT     H228212   5.526   5.518   7.111
 9324WAT      O28213   4.857   0.615   5.778
 9324WAT     H128214   4.817   0.545   5.838
 9324WAT     H228215   4.924   0.572   5.717
 9325WAT      O28216   1.931   5.701   0.249
 9325WAT     H128217   1.934   5.788   0.300
 9325WAT     H228218   1.922   5.720   0.151
 9326WAT      O28219   0.687   1.092   3.120
 9326WAT     H128220   0.604   1.061   3.074
 9326WAT     H228221   0.678   1.076   3.219
 9327WAT      O28222   9.318   1.739   4.095
 9327WAT     H128223   9.403   1.723   4.045
 9327WAT     H228224   9.267   1.813   4.050
 9328WAT      O28225   0.355   7.589   2.413
 9328WAT     H128226   0.383   7.577   2.508
 9328WAT     H228227   0.434   7.576   2.353
 9329WAT      O28228   6.952   8.358   6.985
 9329WAT     H128229   6.936   8.366   6.887
 9329WAT     H228230   6.876   8.399   7.035
 9330WAT      O28231   9.206   9.011   1.505
 9330WAT     H128232   9.119   9.025   1.552
 9330WAT     H228233   9.277   9.066   1.548
 9331WAT      O28234   3.425   7.833   7.844
 9331WAT     H128235   3.403   7.927   7.870
 9331WAT     H228236   3.341   7.778   7.844
 9332WAT      O28237   4.311   0.921   0.728
 9332WAT     H128238   4.234   0.861   0.750
 9332WAT     H228239   4.279   1.016   0.725
 9333WAT      O28240   7.834   1.553   5.859
 9333WAT     H128241   7.889   1.580   5.938
 9333WAT     H228242   7.891   1.501   5.795
 9334WAT      O28243   9.070   2.806   2.948
 9334WAT     H128244   9.125   2.757   3.016
 9334WAT     H228245   9.076   2.758   2.860
 9335WAT      O28246   4.129   7.863   7.913
 9335WAT     H128247   4.090   7.903   7.996
 9335WAT     H228248   4.105   7.919   7.834
 9336WAT      O28249   1.034   3.659   6.700
 9336WAT     H128250   1.067   3.644   6.793
 9336WAT     H228251   1.086   3.733   6.658
 9337WAT      O28252   3.843   7.088   7.769
 9337WAT     H128253   3.932   7.076   7.724
 9337WAT     H228254   3.818   7.185   7.767
 9338WAT      O28255   6.415   6.091   6.954
 9338WAT     H128256   6.419   5.994   6.980
 9338WAT     H228257   6.502   6.135   6.976
 9339WAT      O28258   6.527   3.332   1.107
 9339WAT     H128259   6.621   3.298   1.108
 9339WAT     H228260   6.484   3.317   1.196
 9340WAT      O28261   4.471   3.073   7.348
 9340WAT     H128262   4.484   3.158   7.298
 9340WAT     H228263   4.538   3.005   7.316
 9341WAT      O28264   9.788   2.770   6.842
 9341WAT     H128265   9.834   2.840   6.786
 9341WAT     H228266   9.800   2.680   6.800
 9342WAT      O28267   6.878   4.362   1.431
 9342WAT     H128268   6.870   4.354   1.331
 9342WAT     H228269   6.972   4.383   1.455
 9343WAT      O28270   8.825   7.697   3.089
 9343WAT     H128271   8.838   7.683   3.187
 9343WAT     H228272   8.825   7.795   3.069
 9344WAT      O28273   7.340   2.020   0.208
 9344WAT     H128274   7.379   2.069   0.286
 9344WAT     H228275   7.260   2.069   0.175
 9345WAT      O28276   4.860   3.425   6.582
 9345WAT     H128277   4.772   3.413   6.628
 9345WAT     H228278   4.845   3.454   6.487
 9346WAT      O28279   8.358   4.358   1.097
 9346WAT     H128280   8.346   4.456   1.080
 9346WAT     H228281   8.294   4.307   1.040
 9347WAT      O28282   1.167   7.777   7.338
 9347WAT     H128283   1.242   7.841   7.349
 9347WAT     H228284   1.164   7.745   7.243
 9348WAT      O28285   1.868   4.204   5.999
 9348WAT     H128286   1.964   4.217   6.020
 9348WAT     H228287   1.813   4.268   6.052
 9349WAT      O28288   4.256   0.682   9.278
 9349WAT     H128289   4.254   0.619   9.356
 9349WAT     H228290   4.220   0.771   9.307
 9350WAT      O28291   5.432   0.666   9.321
 9350WAT     H128292   5.530   0.659   9.340
 9350WAT     H228293   5.395   0.748   9.365
 9351WAT      O28294   7.699   9.445   8.516
 9351WAT     H128295   7.724   9.435   8.613
 9351WAT     H228296   7.722   9.538   8.486
 9352WAT      O28297   9.457   5.451   6.650
 9352WAT     H128298   9.489   5.498   6.567
 9352WAT     H228299   9.504   5.490   6.729
 9353WAT      O28300   1.716   0.081   3.921
 9353WAT     H128301   1.627   0.126   3.922
 9353WAT     H228302   1.720   0.015   3.846
 9354WAT      O28303   4.558   6.341   7.170
 9354WAT     H128304   4.577   6.344   7.268
 9354WAT     H228305   4.470   6.297   7.155
 9355WAT      O28306   0.261   9.333   2.784
 9355WAT     H128307   0.308   9.411   2.743
 9355WAT     H228308   0.192   9.366   2.848
 9356WAT      O28309   2.253   7.684   8.600
 9356WAT     H128310   2.178   7.630   8.638
 9356WAT     H228311   2.330   7.624   8.580
 9357WAT      O28312   4.810   6.631   6.690
 9357WAT     H128313   4.725   6.653   6.738
 9357WAT     H228314   4.861   6.561   6.741
 9358WAT      O28315   5.441   4.731   0.789
 9358WAT     H128316   5.418   4.777   0.875
 9358WAT     H228317   5.383   4.766   0.716
 9359WAT      O28318   3.707   1.519   0.683
 9359WAT     H128319   3.674   1.478   0.769
 9359WAT     H228320   3.649   1.489   0.608
 9360WAT      O28321   6.633   7.554   3.332
 9360WAT     H128322   6.685   7.622   3.384
 9360WAT     H228323   6.560   7.517   3.389
 9361WAT      O28324   2.893   7.552   0.631
 9361WAT     H128325   2.816   7.511   0.581
 9361WAT     H228326   2.950   7.479   0.669
 9362WAT      O28327   8.900   2.045   7.081
 9362WAT     H128328   8.984   2.017   7.033
 9362WAT     H228329   8.855   2.118   7.030
 9363WAT      O28330   0.883   1.982   7.322
 9363WAT     H128331   0.948   1.915   7.356
 9363WAT     H228332   0.834   2.023   7.399
 9364WAT      O28333   0.196   5.509   5.468
 9364WAT     H128334   0.254   5.564   5.408
 9364WAT     H228335   0.234   5.417   5.475
 9365WAT      O28336   6.053   6.755   5.569
 9365WAT     H128337   5.990   6.695   5.520
 9365WAT     H228338   6.144   6.750   5.527
 9366WAT      O28339   1.484   4.813   7.598
 9366WAT     H128340   1.424   4.753   7.545
 9366WAT     H228341   1.504   4.771   7.686
 9367WAT      O28342   8.301   5.915   6.466
 9367WAT     H128343   8.255   6.001   6.446
 9367WAT     H228344   8.233   5.845   6.490
 9368WAT      O28345   6.651   7.714   8.592
 9368WAT     H128346   6.583   7.786   8.582
 9368WAT     H228347   6.605   7.629   8.620
 9369WAT      O28348   1.723   2.570   3.883
 9369WAT     H128349   1.674   2.505   3.941
 9369WAT     H228350   1.688   2.663   3.899
 9370WAT      O28351   2.682   0.131   5.430
 9370WAT     H128352   2.750   0.182   5.377
 9370WAT     H228353   2.702   0.033   5.424
 9371WAT      O28354   0.824   6.516   5.097
 9371WAT     H128355   0.762   6.444   5.130
 9371WAT     H228356   0.886   6.477   5.029
 9372WAT      O28357   0.584   9.319   1.677
 9372WAT     H128358   0.509   9.373   1.639
 9372WAT     H228359   0.601   9.240   1.618
 9373WAT      O28360   7.510   0.735   8.375
 9373WAT     H128361   7.415   0.767   8.379
 9373WAT     H228362   7.524   0.663   8.443
 9374WAT      O28363   5.027   4.899   0.796
 9374WAT     H128364   4.984   4.816   0.831
 9374WAT     H228365   5.124   4.898   0.819
 9375WAT      O28366   8.253   8.003   0.535
 9375WAT     H128367   8.218   7.910   0.523
 9375WAT     H228368   8.310   8.007   0.617
 9376WAT      O28369   3.143   0.282   8.272
 9376WAT     H128370   3.116   0.231   8.354
 9376WAT     H228371   3.242   0.292   8.271
 9377WAT      O28372   7.576   5.210   6.692
 9377WAT     H128373   7.670   5.198   6.659
 9377WAT     H228374   7.518   5.241   6.617
 9378WAT      O28375   3.094   8.133   2.168
 9378WAT     H128376   3.089   8.048   2.115
 9378WAT     H228377   3.143   8.115   2.253
 9379WAT      O28378   3.828   5.686   0.507
 9379WAT     H128379   3.791   5.741   0.582
 9379WAT     H228380   3.915   5.725   0.477
 9380WAT      O28381   0.108   3.662   2.835
 9380WAT     H128382   0.110   3.701   2.927
 9380WAT     H228383   0.030   3.599   2.827
 9381WAT      O28384   0.476   9.303   4.405
 9381WAT     H128385   0.401   9.344   4.457
 9381WAT     H228386   0.473   9.336   4.311
 9382WAT      O28387   6.155   8.902   8.812
 9382WAT     H128388   6.142   8.821   8.754
 9382WAT     H228389   6.178   8.981   8.754
 9383WAT      O28390   1.948   3.353   6.835
 9383WAT     H128391   1.942   3.440   6.786
 9383WAT     H228392   2.036   3.310   6.816
 9384WAT      O28393   0.336   8.224   0.413
 9384WAT     H128394   0.254   8.171   0.390
 9384WAT     H228395   0.417   8.167   0.401
 9385WAT      O28396   3.604   6.335   9.458
 9385WAT     H128397   3.704   6.326   9.457
 9385WAT     H228398   3.565   6.279   9.385
 9386WAT      O28399   3.625   2.811   5.556
 9386WAT     H128400   3.617   2.732   5.494
 9386WAT     H228401   3.533   2.847   5.575
 9387WAT      O28402   1.001   2.080   3.820
 9387WAT     H128403   0.995   1.981   3.830
 9387WAT     H228404   0.974   2.124   3.906
 9388WAT      O28405   6.138   9.654   8.255
 9388WAT     H128406   6.191   9.703   8.325
 9388WAT     H228407   6.167   9.559   8.253
 9389WAT      O28408   4.625   2.370   7.170
 9389WAT     H128409   4.662   2.403   7.083
 9389WAT     H228410   4.640   2.271   7.176
 9390WAT      O28411   5.286   2.282   5.827
 9390WAT     H128412   5.307   2.365   5.776
 9390WAT     H228413   5.354   2.269   5.900
 9391WAT      O28414   2.086   1.367   6.119
 9391WAT     H128415   2.051   1.426   6.192
 9391WAT     H228416   2.066   1.271   6.141
 9392WAT      O28417   2.158   6.343   8.817
 9392WAT     H128418   2.117   6.339   8.727
 9392WAT     H228419   2.143   6.433   8.858
 9393WAT      O28420   0.288   3.049   3.263
 9393WAT     H128421   0.281   3.137   3.216
 9393WAT     H228422   0.368   2.999   3.229
 9394WAT      O28423   5.826   2.920   8.773
 9394WAT     H128424   5.895   2.983   8.737
 9394WAT     H228425   5.857   2.825   8.759
 9395WAT      O28426   8.862   4.626   2.797
 9395WAT     H128427   8.954   4.592   2.810
 9395WAT     H228428   8.865   4.725   2.783
 9396WAT      O28429   6.056   3.695   4.529
 9396WAT     H128430   5.971   3.731   4.492
 9396WAT     H228431   6.117   3.668   4.454
 9397WAT      O28432   6.123   3.827   9.611
 9397WAT     H128433   6.057   3.881   9.662
 9397WAT     H228434   6.212   3.833   9.655
 9398WAT      O28435   3.494   5.337   8.699
 9398WAT     H128436   3.489   5.261   8.635
 9398WAT     H228437   3.589   5.353   8.726
 9399WAT      O28438   4.978   5.264   7.827
 9399WAT     H128439   4.896   5.298   7.874
 9399WAT     H228440   4.961   5.263   7.728
 9400WAT      O28441   8.618   8.704   7.970
 9400WAT     H128442   8.626   8.709   7.871
 9400WAT     H228443   8.683   8.636   8.005
 9401WAT      O28444   6.521   9.768   1.879
 9401WAT     H128445   6.597   9.781   1.816
 9401WAT     H228446   6.548   9.705   1.951
 9402WAT      O28447   7.123   7.375   7.462
 9402WAT     H128448   7.173   7.460   7.450
 9402WAT     H228449   7.146   7.311   7.388
 9403WAT      O28450   2.785   9.746   6.308
 9403WAT     H128451   2.809   9.761   6.213
 9403WAT     H228452   2.749   9.831   6.347
 9404WAT      O28453   8.175   3.026   4.376
 9404WAT     H128454   8.138   3.117   4.395
 9404WAT     H228455   8.142   2.962   4.446
 9405WAT      O28456   7.864   0.408   7.179
 9405WAT     H128457   7.773   0.367   7.171
 9405WAT     H228458   7.902   0.388   7.269
 9406WAT      O28459   0.268   1.243   0.982
 9406WAT     H128460   0.305   1.332   0.956
 9406WAT     H228461   0.340   1.173   0.977
 9407WAT      O28462   2.722   3.910   5.601
 9407WAT     H128463   2.752   4.004   5.584
 9407WAT     H228464   2.643   3.910   5.661
 9408WAT      O28465   8.121   7.880   2.997
 9408WAT     H128466   8.024   7.861   3.008
 9408WAT     H228467   8.164   7.806   2.945
 9409WAT      O28468   6.389   9.369   0.460
 9409WAT     H128469   6.367   9.274   0.434
 9409WAT     H228470   6.449   9.408   0.391
 9410WAT      O28471   5.287   5.256   9.647
 9410WAT     H128472   5.319   5.304   9.566
 9410WAT     H228473   5.319   5.304   9.729
 9411WAT      O28474   7.310   5.401   8.134
 9411WAT     H128475   7.395   5.430   8.091
 9411WAT     H228476   7.329   5.324   8.196
 9412WAT      O28477   8.202   0.547   1.184
 9412WAT     H128478   8.157   0.486   1.250
 9412WAT     H228479   8.133   0.588   1.124
 9413WAT      O28480   1.089   8.307   8.808
 9413WAT     H128481   1.120   8.364   8.884
 9413WAT     H228482   1.164   8.251   8.775
 9414WAT      O28483   1.109   0.292   6.402
 9414WAT     H128484   1.168   0.211   6.397
 9414WAT     H228485   1.034   0.283   6.336
 9415WAT      O28486   1.888   2.754   7.636
 9415WAT     H128487   1.905   2.841   7.590
 9415WAT     H228488   1.970   2.697   7.632
 9416WAT      O28489   9.046   8.688   7.788
 9416WAT     H128490   9.118   8.756   7.798
 9416WAT     H228491   9.027   8.647   7.877
 9417WAT      O28492   6.844   5.322   0.864
 9417WAT     H128493   6.794   5.248   0.819
 9417WAT     H228494   6.836   5.405   0.808
 9418WAT      O28495   9.066   8.221   3.122
 9418WAT     H128496   9.056   8.179   3.031
 9418WAT     H228497   9.152   8.271   3.127
 9419WAT      O28498   7.496   6.886   3.151
 9419WAT     H128499   7.583   6.934   3.140
 9419WAT     H228500   7.453   6.875   3.061
 9420WAT      O28501   2.423   3.699   2.833
 9420WAT     H128502   2.352   3.682   2.765
 9420WAT     H228503   2.510   3.666   2.798
 9421WAT      O28504   2.895   4.063   7.572
 9421WAT     H128505   2.967   4.027   7.514
 9421WAT     H228506   2.848   4.138   7.525
 9422WAT      O28507   8.084   6.142   0.370
 9422WAT     H128508   7.985   6.151   0.367
 9422WAT     H228509   8.126   6.229   0.345
 9423WAT      O28510   9.432   4.899   9.347
 9423WAT     H128511   9.357   4.918   9.284
 9423WAT     H228512   9.487   4.982   9.358
 9424WAT      O28513   8.102   1.162   7.880
 9424WAT     H128514   8.019   1.156   7.936
 9424WAT     H228515   8.104   1.086   7.816
 9425WAT      O28516   4.217   8.545   0.032
 9425WAT     H128517   4.197   8.448   0.041
 9425WAT     H228518   4.133   8.595   0.010
 9426WAT      O28519   1.596   8.638   4.837
 9426WAT     H128520   1.621   8.627   4.741
 9426WAT     H228521   1.572   8.549   4.875
 9427WAT      O28522   1.506   9.338   5.976
 9427WAT     H128523   1.407   9.323   5.984
 9427WAT     H228524   1.555   9.273   6.034
 9428WAT      O28525   9.584   1.938   8.130
 9428WAT     H128526   9.613   1.998   8.056
 9428WAT     H228527   9.622   1.846   8.115
 9429WAT      O28528   5.926   1.694   9.743
 9429WAT     H128529   5.973   1.728   9.825
 9429WAT     H228530   5.980   1.718   9.662
 9430WAT      O28531   8.285   1.036   6.490
 9430WAT     H128532   8.322   0.961   6.435
 9430WAT     H228533   8.306   1.018   6.587
 9431WAT      O28534   5.285   6.757   4.099
 9431WAT     H128535   5.378   6.777   4.129
 9431WAT     H228536   5.235   6.843   4.089
 9432WAT      O28537   7.937   7.145   1.872
 9432WAT     H128538   7.995   7.180   1.945
 9432WAT     H228539   7.965   7.052   1.849
 9433WAT      O28540   7.089   3.741   6.737
 9433WAT     H128541   7.072   3.828   6.690
 9433WAT     H228542   7.134   3.678   6.674
 9434WAT      O28543   4.113   1.251   6.288
 9434WAT     H128544   4.046   1.183   6.261
 9434WAT     H228545   4.066   1.335   6.317
 9435WAT      O28546   8.663   2.172   7.353
 9435WAT     H128547   8.699   2.087   7.315
 9435WAT     H228548   8.730   2.213   7.415
 9436WAT      O28549   1.805   5.942   4.149
 9436WAT     H128550   1.778   5.869   4.086
 9436WAT     H228551   1.797   5.909   4.243
 9437WAT      O28552   6.881   7.055   3.348
 9437WAT     H128553   6.871   7.146   3.307
 9437WAT     H228554   6.978   7.033   3.358
 9438WAT      O28555   1.728   4.107   6.785
 9438WAT     H128556   1.642   4.157   6.770
 9438WAT     H228557   1.721   4.017   6.742
 9439WAT      O28558   0.207   2.236   6.515
 9439WAT     H128559   0.255   2.180   6.447
 9439WAT     H228560   0.263   2.243   6.598
 9440WAT      O28561   1.255   1.817   0.326
 9440WAT     H128562   1.321   1.779   0.261
 9440WAT     H228563   1.182   1.750   0.342
 9441WAT      O28564   5.025   6.709   6.200
 9441WAT     H128565   4.970   6.786   6.168
 9441WAT     H228566   5.110   6.743   6.241
 9442WAT      O28567   0.869   0.830   2.468
 9442WAT     H128568   0.781   0.788   2.447
 9442WAT     H228569   0.867   0.870   2.559
 9443WAT      O28570   9.172   4.748   7.942
 9443WAT     H128571   9.121   4.802   8.008
 9443WAT     H228572   9.133   4.656   7.935
 9444WAT      O28573   5.585   1.713   8.512
 9444WAT     H128574   5.516   1.750   8.573
 9444WAT     H228575   5.606   1.619   8.537
 9445WAT      O28576   3.356   1.311   4.780
 9445WAT     H128577   3.406   1.225   4.796
 9445WAT     H228578   3.379   1.377   4.851
 9446WAT      O28579   1.223   3.409   3.560
 9446WAT     H128580   1.236   3.475   3.634
 9446WAT     H228581   1.249   3.451   3.473
 9447WAT      O28582   0.668   3.938   0.907
 9447WAT     H128583   0.588   3.955   0.849
 9447WAT     H228584   0.708   4.026   0.934
 9448WAT      O28585   1.036   2.849   3.845
 9448WAT     H128586   1.099   2.926   3.836
 9448WAT     H228587   1.084   2.763   3.825
 9449WAT      O28588   4.274   6.639   3.407
 9449WAT     H128589   4.256   6.551   3.451
 9449WAT     H228590   4.358   6.632   3.352
 9450WAT      O28591   6.672   7.115   9.779
 9450WAT     H128592   6.634   7.196   9.733
 9450WAT     H228593   6.641   7.033   9.732
 9451WAT      O28594   4.386   5.792   3.685
 9451WAT     H128595   4.356   5.755   3.596
 9451WAT     H228596   4.458   5.859   3.671
 9452WAT      O28597   7.634   8.026   5.347
 9452WAT     H128598   7.703   7.967   5.388
 9452WAT     H228599   7.549   8.019   5.399
 9453WAT      O28600   5.652   4.518   2.879
 9453WAT     H128601   5.655   4.423   2.912
 9453WAT     H228602   5.732   4.536   2.821
 9454WAT      O28603   8.413   7.807   2.687
 9454WAT     H128604   8.502   7.845   2.712
 9454WAT     H228605   8.426   7.719   2.642
 9455WAT      O28606   2.958   5.428   3.744
 9455WAT     H128607   2.932   5.349   3.689
 9455WAT     H228608   2.925   5.511   3.700
 9456WAT      O28609   4.226   1.250   0.365
 9456WAT     H128610   4.182   1.163   0.387
 9456WAT     H228611   4.324   1.244   0.389
 9457WAT      O28612   7.152   3.749   5.813
 9457WAT     H128613   7.167   3.847   5.827
 9457WAT     H228614   7.063   3.734   5.771
 9458WAT      O28615   1.351   9.453   8.714
 9458WAT     H128616   1.384   9.359   8.710
 9458WAT     H228617   1.355   9.493   8.622
 9459WAT      O28618   5.335   8.890   4.523
 9459WAT     H128619   5.252   8.915   4.473
 9459WAT     H228620   5.386   8.821   4.471
 9460WAT      O28621   8.642   4.930   8.367
 9460WAT     H128622   8.699   5.012   8.365
 9460WAT     H228623   8.645   4.890   8.459
 9461WAT      O28624   7.668   3.239   1.455
 9461WAT     H128625   7.748   3.245   1.514
 9461WAT     H228626   7.673   3.155   1.401
 9462WAT      O28627   2.465   5.942   1.638
 9462WAT     H128628   2.515   5.857   1.620
 9462WAT     H228629   2.491   6.011   1.569
 9463WAT      O28630   1.987   1.505   0.375
 9463WAT     H128631   1.949   1.551   0.295
 9463WAT     H228632   2.086   1.502   0.368
 9464WAT      O28633   3.616   9.472   5.032
 9464WAT     H128634   3.577   9.558   4.999
 9464WAT     H228635   3.716   9.476   5.025
 9465WAT      O28636   8.130   6.172   9.665
 9465WAT     H128637   8.075   6.189   9.747
 9465WAT     H228638   8.225   6.156   9.692
 9466WAT      O28639   3.902   9.588   4.115
 9466WAT     H128640   3.891   9.495   4.080
 9466WAT     H228641   3.998   9.603   4.138
 9467WAT      O28642   2.245   7.587   1.265
 9467WAT     H128643   2.332   7.561   1.223
 9467WAT     H228644   2.254   7.678   1.305
 9468WAT      O28645   9.697   1.308   2.537
 9468WAT     H128646   9.640   1.312   2.455
 9468WAT     H228647   9.640   1.282   2.615
 9469WAT      O28648   1.270   2.068   4.472
 9469WAT     H128649   1.172   2.049   4.481
 9469WAT     H228650   1.315   1.988   4.432
 9470WAT      O28651   3.414   8.574   8.775
 9470WAT     H128652   3.365   8.661   8.776
 9470WAT     H228653   3.450   8.558   8.683
 9471WAT      O28654   7.013   8.801   7.583
 9471WAT     H128655   6.976   8.822   7.492
 9471WAT     H228656   7.023   8.886   7.634
 9472WAT      O28657   1.243   6.848   3.886
 9472WAT     H128658   1.164   6.875   3.830
 9472WAT     H228659   1.248   6.748   3.890
 9473WAT      O28660   0.670   9.712   5.925
 9473WAT     H128661   0.577   9.744   5.939
 9473WAT     H228662   0.684   9.627   5.976
 9474WAT      O28663   7.739   4.791   6.989
 9474WAT     H128664   7.736   4.825   7.083
 9474WAT     H228665   7.674   4.842   6.933
 9475WAT      O28666   6.987   7.739   3.914
 9475WAT     H128667   6.950   7.758   4.004
 9475WAT     H228668   6.971   7.643   3.890
 9476WAT      O28669   8.760   8.517   0.111
 9476WAT     H128670   8.832   8.479   0.169
 9476WAT     H228671   8.715   8.443   0.060
 9477WAT      O28672   4.672   5.511   2.225
 9477WAT     H128673   4.727   5.473   2.300
 9477WAT     H228674   4.634   5.437   2.171
 9478WAT      O28675   9.027   0.965   3.595
 9478WAT     H128676   9.045   1.056   3.633
 9478WAT     H228677   9.021   0.972   3.495
 9479WAT      O28678   9.167   1.708   0.098
 9479WAT     H128679   9.087   1.648   0.095
 9479WAT     H228680   9.137   1.803   0.101
 9480WAT      O28681   3.347   8.531   4.887
 9480WAT     H128682   3.407   8.543   4.966
 9480WAT     H228683   3.358   8.439   4.850
 9481WAT      O28684   7.167   8.709   6.099
 9481WAT     H128685   7.264   8.687   6.113
 9481WAT     H228686   7.119   8.626   6.069
 9482WAT      O28687   9.810   0.021   0.709
 9482WAT     H128688   9.798   0.031   0.611
 9482WAT     H228689   9.855  -0.066   0.729
 9483WAT      O28690   7.548   9.749   5.209
 9483WAT     H128691   7.626   9.702   5.250
 9483WAT     H228692   7.472   9.752   5.275
 9484WAT      O28693   8.121   7.994   8.036
 9484WAT     H128694   8.117   7.913   8.094
 9484WAT     H228695   8.202   8.048   8.060
 9485WAT      O28696   5.388   6.275   6.933
 9485WAT     H128697   5.359   6.296   6.840
 9485WAT     H228698   5.310   6.283   6.994
 9486WAT      O28699   6.295   8.047   5.033
 9486WAT     H128700   6.382   8.038   4.986
 9486WAT     H228701   6.293   8.133   5.084
 9487WAT      O28702   6.601   1.157   9.561
 9487WAT     H128703   6.625   1.080   9.621
 9487WAT     H228704   6.509   1.143   9.524
 9488WAT      O28705   6.586   8.851   9.128
 9488WAT     H128706   6.526   8.783   9.088
 9488WAT     H228707   6.567   8.941   9.089
 9489WAT      O28708   4.897   3.638   5.994
 9489WAT     H128709   4.902   3.623   5.896
 9489WAT     H228710   4.952   3.569   6.041
 9490WAT      O28711   1.419   0.514   6.140
 9490WAT     H128712   1.389   0.530   6.234
 9490WAT     H228713   1.401   0.595   6.085
 9491WAT      O28714   2.391   0.188   8.929
 9491WAT     H128715   2.480   0.220   8.897
 9491WAT     H228716   2.363   0.242   9.008
 9492WAT      O28717   7.294   9.727   4.700
 9492WAT     H128718   7.254   9.739   4.609
 9492WAT     H228719   7.383   9.773   4.704
 9493WAT      O28720   0.101   9.321   7.473
 9493WAT     H128721   0.002   9.330   7.485
 9493WAT     H228722   0.130   9.372   7.391
 9494WAT      O28723   5.217   2.853   5.804
 9494WAT     H128724   5.149   2.901   5.859
 9494WAT     H228725   5.276   2.798   5.864
 9495WAT      O28726   9.030   4.139   2.537
 9495WAT     H128727   8.941   4.132   2.492
 9495WAT     H228728   9.018   4.137   2.636
 9496WAT      O28729   8.290   9.458   7.667
 9496WAT     H128730   8.339   9.499   7.744
 9496WAT     H228731   8.241   9.377   7.698
 9497WAT      O28732   5.555   0.251   0.285
 9497WAT     H128733   5.512   0.162   0.270
 9497WAT     H228734   5.489   0.323   0.267
 9498WAT      O28735   1.368   0.703   4.818
 9498WAT     H128736   1.371   0.629   4.885
 9498WAT     H228737   1.453   0.756   4.825
 9499WAT      O28738   2.639   7.975   2.399
 9499WAT     H128739   2.677   8.067   2.399
 9499WAT     H228740   2.570   7.967   2.471
 9500WAT      O28741   5.730   7.135   6.210
 9500WAT     H128742   5.701   7.040   6.218
 9500WAT     H228743   5.770   7.150   6.119
 9501WAT      O28744   8.876   1.343   8.616
 9501WAT     H128745   8.933   1.263   8.633
 9501WAT     H228746   8.823   1.364   8.698
 9502WAT      O28747   9.419   2.379   5.030
 9502WAT     H128748   9.439   2.477   5.034
 9502WAT     H228749   9.491   2.328   5.078
 9503WAT      O28750   7.607   7.288   7.846
 9503WAT     H128751   7.597   7.275   7.944
 9503WAT     H228752   7.626   7.384   7.827
 9504WAT      O28753   5.977   5.221   0.499
 9504WAT     H128754   5.900   5.164   0.469
 9504WAT     H228755   6.063   5.181   0.467
 9505WAT      O28756   4.767   4.157   8.417
 9505WAT     H128757   4.683   4.165   8.469
 9505WAT     H228758   4.832   4.100   8.466
 9506WAT      O28759   8.689   5.336   4.054
 9506WAT     H128760   8.590   5.329   4.053
 9506WAT     H228761   8.716   5.422   4.098
 9507WAT      O28762   1.672   6.174   2.684
 9507WAT     H128763   1.667   6.267   2.719
 9507WAT     H228764   1.685   6.110   2.760
 9508WAT      O28765   7.274   8.552   6.701
 9508WAT     H128766   7.329   8.636   6.699
 9508WAT     H228767   7.215   8.549   6.620
 9509WAT      O28768   4.248   6.850   1.997
 9509WAT     H128769   4.292   6.924   1.947
 9509WAT     H228770   4.307   6.820   2.071
 9510WAT      O28771   9.056   8.684   2.822
 9510WAT     H128772   9.086   8.597   2.859
 9510WAT     H228773   9.093   8.759   2.878
 9511WAT      O28774   3.910   2.881   5.017
 9511WAT     H128775   3.822   2.834   5.020
 9511WAT     H228776   3.951   2.870   4.926
 9512WAT      O28777   6.462   7.940   6.757
 9512WAT     H128778   6.452   7.842   6.744
 9512WAT     H228779   6.554   7.968   6.728
 9513WAT      O28780   3.791   7.124   8.383
 9513WAT     H128781   3.868   7.121   8.448
 9513WAT     H228782   3.824   7.101   8.292
 9514WAT      O28783   8.565   4.012   3.952
 9514WAT     H128784   8.579   4.085   4.020
 9514WAT     H228785   8.560   4.053   3.861
 9515WAT      O28786   4.512   5.002   0.313
 9515WAT     H128787   4.546   5.096   0.307
 9515WAT     H228788   4.561   4.954   0.386
 9516WAT      O28789   1.358   0.366   0.768
 9516WAT     H128790   1.436   0.401   0.819
 9516WAT     H228791   1.274   0.411   0.799
 9517WAT      O28792   9.549   3.055   5.265
 9517WAT     H128793   9.580   3.137   5.217
 9517WAT     H228794   9.616   2.982   5.253
 9518WAT      O28795   0.001   6.112   9.829
 9518WAT     H128796  -0.054   6.075   9.904
 9518WAT     H228797   0.080   6.161   9.866
 9519WAT      O28798   6.598   8.606   1.784
 9519WAT     H128799   6.555   8.612   1.874
 9519WAT     H228800   6.680   8.549   1.790
 9520WAT      O28801   5.375   6.685   3.845
 9520WAT     H128802   5.358   6.715   3.939
 9520WAT     H228803   5.302   6.623   3.816
 9521WAT      O28804   8.261   7.063   7.345
 9521WAT     H128805   8.324   7.030   7.415
 9521WAT     H228806   8.290   7.154   7.315
 9522WAT      O28807   1.992   7.861   6.987
 9522WAT     H128808   1.917   7.927   6.976
 9522WAT     H228809   2.021   7.860   7.083
 9523WAT      O28810   7.901   0.572   1.923
 9523WAT     H128811   7.952   0.492   1.891
 9523WAT     H228812   7.810   0.544   1.952
 9524WAT      O28813   3.469   7.751   4.343
 9524WAT     H128814   3.420   7.721   4.261
 9524WAT     H228815   3.538   7.818   4.318
 9525WAT      O28816   7.317   7.521   6.576
 9525WAT     H128817   7.313   7.620   6.573
 9525WAT     H228818   7.306   7.484   6.484
 9526WAT      O28819   5.873   3.353   8.097
 9526WAT     H128820   5.828   3.411   8.029
 9526WAT     H228821   5.858   3.391   8.189
 9527WAT      O28822   8.359   3.260   4.272
 9527WAT     H128823   8.288   3.250   4.341
 9527WAT     H228824   8.333   3.332   4.207
 9528WAT      O28825   8.241   7.081   3.780
 9528WAT     H128826   8.196   7.015   3.840
 9528WAT     H228827   8.225   7.173   3.814
 9529WAT      O28828   3.419   3.489   7.776
 9529WAT     H128829   3.365   3.562   7.733
 9529WAT     H228830   3.502   3.527   7.815
 9530WAT      O28831   0.883   4.299   6.258
 9530WAT     H128832   0.896   4.213   6.307
 9530WAT     H228833   0.972   4.340   6.238
 9531WAT      O28834   5.975   0.969   8.745
 9531WAT     H128835   5.996   1.045   8.684
 9531WAT     H228836   5.882   0.937   8.727
 9532WAT      O28837   4.624   1.099   3.745
 9532WAT     H128838   4.673   1.047   3.675
 9532WAT     H228839   4.567   1.037   3.799
 9533WAT      O28840   5.023   4.997   1.858
 9533WAT     H128841   5.115   4.984   1.895
 9533WAT     H228842   4.968   4.916   1.877
 9534WAT      O28843   3.122   3.314   8.048
 9534WAT     H128844   3.186   3.343   7.977
 9534WAT     H228845   3.156   3.341   8.137
 9535WAT      O28846   8.157   9.247   3.542
 9535WAT     H128847   8.101   9.206   3.614
 9535WAT     H228848   8.196   9.333   3.575
 9536WAT      O28849   6.809   5.120   3.616
 9536WAT     H128850   6.873   5.044   3.627
 9536WAT     H228851   6.799   5.168   3.703
 9537WAT      O28852   8.882   8.077   3.892
 9537WAT     H128853   8.850   7.983   3.901
 9537WAT     H228854   8.806   8.141   3.907
 9538WAT      O28855   7.881   3.154   2.778
 9538WAT     H128856   7.785   3.176   2.798
 9538WAT     H228857   7.913   3.083   2.841
 9539WAT      O28858   4.417   4.011   9.200
 9539WAT     H128859   4.483   3.967   9.139
 9539WAT     H228860   4.436   4.109   9.205
 9540WAT      O28861   9.129   4.044   1.276
 9540WAT     H128862   9.183   4.108   1.221
 9540WAT     H228863   9.049   4.014   1.224
 9541WAT      O28864   9.173   6.857   3.270
 9541WAT     H128865   9.252   6.912   3.299
 9541WAT     H228866   9.150   6.881   3.176
 9542WAT      O28867   4.953   0.373   4.678
 9542WAT     H128868   4.878   0.312   4.702
 9542WAT     H228869   4.941   0.407   4.585
 9543WAT      O28870   7.905   4.088   4.045
 9543WAT     H128871   7.815   4.110   4.006
 9543WAT     H228872   7.897   4.005   4.100
 9544WAT      O28873   7.914   3.792   6.272
 9544WAT     H128874   7.958   3.717   6.321
 9544WAT     H228875   7.888   3.762   6.181
 9545WAT      O28876   1.708   6.044   1.317
 9545WAT     H128877   1.623   6.005   1.353
 9545WAT     H228878   1.778   5.972   1.310
 9546WAT      O28879   4.384   9.148   8.694
 9546WAT     H128880   4.451   9.222   8.698
 9546WAT     H228881   4.321   9.156   8.771
 9547WAT      O28882   6.230   3.468   2.383
 9547WAT     H128883   6.248   3.546   2.323
 9547WAT     H228884   6.131   3.455   2.390
 9548WAT      O28885   0.985   3.082   2.068
 9548WAT     H128886   0.977   2.993   2.112
 9548WAT     H228887   0.998   3.070   1.970
 9549WAT      O28888   0.013   2.632   4.590
 9549WAT     H128889  -0.049   2.709   4.573
 9549WAT     H228890  -0.023   2.576   4.664
 9550WAT      O28891   3.406   1.921   5.260
 9550WAT     H128892   3.415   1.955   5.166
 9550WAT     H228893   3.309   1.917   5.285
 9551WAT      O28894   4.702   6.283   9.206
 9551WAT     H128895   4.663   6.368   9.170
 9551WAT     H228896   4.764   6.303   9.282
 9552WAT      O28897   9.447   4.034   0.333
 9552WAT     H128898   9.515   3.964   0.310
 9552WAT     H228899   9.372   4.031   0.267
 9553WAT      O28900   7.907   0.186   4.142
 9553WAT     H128901   7.929   0.276   4.105
 9553WAT     H228902   7.817   0.189   4.186
 9554WAT      O28903   0.958   0.233   3.363
 9554WAT     H128904   1.026   0.236   3.437
 9554WAT     H228905   0.966   0.145   3.315
 9555WAT      O28906   8.979   6.460   4.452
 9555WAT     H128907   9.022   6.380   4.410
 9555WAT     H228908   8.900   6.431   4.506
 9556WAT      O28909   2.907   0.281   2.144
 9556WAT     H128910   2.980   0.341   2.110
 9556WAT     H228911   2.848   0.332   2.206
 9557WAT      O28912   2.114   3.155   7.129
 9557WAT     H128913   2.117   3.159   7.229
 9557WAT     H228914   2.138   3.063   7.099
 9558WAT      O28915   2.895   1.619   6.398
 9558WAT     H128916   2.943   1.542   6.440
 9558WAT     H228917   2.801   1.592   6.376
 9559WAT      O28918   5.391   8.105   9.139
 9559WAT     H128919   5.397   8.027   9.076
 9559WAT     H228920   5.410   8.190   9.090
 9560WAT      O28921   3.511   5.219   1.329
 9560WAT     H128922   3.543   5.311   1.308
 9560WAT     H228923   3.499   5.167   1.245
 9561WAT      O28924   8.594   4.996   2.521
 9561WAT     H128925   8.579   5.090   2.550
 9561WAT     H228926   8.507   4.953   2.498
 9562WAT      O28927   9.779   9.552   6.431
 9562WAT     H128928   9.741   9.478   6.375
 9562WAT     H228929   9.853   9.516   6.487
 9563WAT      O28930   1.704   5.040   8.865
 9563WAT     H128931   1.661   5.114   8.813
 9563WAT     H228932   1.792   5.018   8.825
 9564WAT      O28933   7.407   8.906   3.705
 9564WAT     H128934   7.463   8.923   3.624
 9564WAT     H228935   7.314   8.882   3.676
 9565WAT      O28936   2.410   7.259   7.253
 9565WAT     H128937   2.409   7.194   7.177
 9565WAT     H228938   2.388   7.350   7.220
 9566WAT      O28939   8.680   9.828   0.055
 9566WAT     H128940   8.616   9.902   0.032
 9566WAT     H228941   8.770   9.868   0.077
 9567WAT      O28942   9.011   2.408   8.736
 9567WAT     H128943   9.028   2.329   8.677
 9567WAT     H228944   8.933   2.459   8.701
 9568WAT      O28945   3.197   5.430   6.941
 9568WAT     H128946   3.265   5.472   6.882
 9568WAT     H228947   3.242   5.384   7.017
 9569WAT      O28948   9.033   7.808   8.167
 9569WAT     H128949   9.059   7.728   8.113
 9569WAT     H228950   9.006   7.779   8.258
 9570WAT      O28951   7.109   0.052   2.735
 9570WAT     H128952   7.190   0.080   2.683
 9570WAT     H228953   7.034   0.030   2.672
 9571WAT      O28954   3.457   1.115   5.278
 9571WAT     H128955   3.557   1.117   5.283
 9571WAT     H228956   3.427   1.032   5.231
 9572WAT      O28957   5.445   2.771   3.424
 9572WAT     H128958   5.527   2.725   3.455
 9572WAT     H228959   5.379   2.703   3.390
 9573WAT      O28960   9.491   4.499   0.252
 9573WAT     H128961   9.522   4.422   0.196
 9573WAT     H228962   9.407   4.536   0.214
 9574WAT      O28963   0.373   7.941   4.690
 9574WAT     H128964   0.288   7.940   4.637
 9574WAT     H228965   0.371   7.868   4.758
 9575WAT      O28966   4.172   4.068   6.900
 9575WAT     H128967   4.129   4.112   6.821
 9575WAT     H228968   4.119   4.088   6.982
 9576WAT      O28969   6.662   7.929   2.653
 9576WAT     H128970   6.683   7.905   2.748
 9576WAT     H228971   6.644   7.846   2.600
 9577WAT      O28972   3.053   8.124   7.278
 9577WAT     H128973   3.065   8.025   7.266
 9577WAT     H228974   3.134   8.161   7.324
 9578WAT      O28975   2.563   0.205   1.241
 9578WAT     H128976   2.603   0.291   1.271
 9578WAT     H228977   2.505   0.221   1.161
 9579WAT      O28978   1.722   8.452   8.261
 9579WAT     H128979   1.686   8.423   8.349
 9579WAT     H228980   1.715   8.552   8.254
 9580WAT      O28981   9.042   3.255   6.837
 9580WAT     H128982   8.964   3.315   6.821
 9580WAT     H228983   9.089   3.237   6.750
 9581WAT      O28984   3.587   1.737   2.587
 9581WAT     H128985   3.499   1.770   2.552
 9581WAT     H228986   3.622   1.804   2.653
 9582WAT      O28987   0.248   8.636   7.881
 9582WAT     H128988   0.214   8.715   7.931
 9582WAT     H228989   0.175   8.568   7.870
 9583WAT      O28990   4.998   2.334   0.191
 9583WAT     H128991   5.070   2.313   0.125
 9583WAT     H228992   5.039   2.348   0.281
 9584WAT      O28993   0.693   7.898   7.588
 9584WAT     H128994   0.742   7.904   7.501
 9584WAT     H228995   0.758   7.899   7.664
 9585WAT      O28996   5.660   1.904   6.830
 9585WAT     H128997   5.665   1.996   6.868
 9585WAT     H228998   5.669   1.837   6.904
 9586WAT      O28999   4.626   1.431   4.261
 9586WAT     H129000   4.644   1.528   4.243
 9586WAT     H229001   4.693   1.375   4.212
 9587WAT      O29002   7.443   8.276   7.597
 9587WAT     H129003   7.536   8.310   7.585
 9587WAT     H229004   7.383   8.316   7.527
 9588WAT      O29005   6.110   9.451   3.286
 9588WAT     H129006   6.148   9.365   3.321
 9588WAT     H229007   6.177   9.524   3.297
 9589WAT      O29008   0.743   8.898   9.755
 9589WAT     H129009   0.650   8.934   9.763
 9589WAT     H229010   0.781   8.882   9.846
 9590WAT      O29011   6.321   2.919   8.057
 9590WAT     H129012   6.339   2.950   8.150
 9590WAT     H229013   6.224   2.895   8.048
 9591WAT      O29014   2.817   2.189   5.435
 9591WAT     H129015   2.860   2.266   5.388
 9591WAT     H229016   2.772   2.129   5.368
 9592WAT      O29017   2.838   4.894   0.375
 9592WAT     H129018   2.937   4.883   0.364
 9592WAT     H229019   2.820   4.974   0.432
 9593WAT      O29020   5.971   8.837   0.745
 9593WAT     H129021   5.974   8.805   0.650
 9593WAT     H229022   6.035   8.914   0.755
 9594WAT      O29023   5.563   3.953   0.314
 9594WAT     H129024   5.529   3.977   0.405
 9594WAT     H229025   5.502   3.991   0.244
 9595WAT      O29026   8.704   9.494   2.984
 9595WAT     H129027   8.700   9.506   2.885
 9595WAT     H229028   8.759   9.567   3.024
 9596WAT      O29029   6.529   2.725   5.614
 9596WAT     H129030   6.607   2.756   5.559
 9596WAT     H229031   6.546   2.747   5.710
 9597WAT      O29032   0.112   4.366   7.697
 9597WAT     H129033   0.050   4.433   7.656
 9597WAT     H229034   0.205   4.383   7.666
 9598WAT      O29035   6.181   7.545   8.364
 9598WAT     H129036   6.114   7.516   8.433
 9598WAT     H229037   6.204   7.467   8.306
 9599WAT      O29038   3.989   4.243   1.582
 9599WAT     H129039   4.001   4.341   1.566
 9599WAT     H229040   3.983   4.226   1.680
 9600WAT      O29041   6.950   5.788   7.935
 9600WAT     H129042   7.043   5.820   7.954
 9600WAT     H229043   6.939   5.695   7.968
 9601WAT      O29044   0.788   6.183   5.429
 9601WAT     H129045   0.733   6.266   5.434
 9601WAT     H229046   0.787   6.136   5.517
 9602WAT      O29047   1.947   7.966   4.009
 9602WAT     H129048   1.864   7.915   4.032
 9602WAT     H229049   1.958   7.969   3.910
 9603WAT      O29050   2.515   1.940   5.711
 9603WAT     H129051   2.417   1.935   5.693
 9603WAT     H229052   2.549   1.848   5.735
 9604WAT      O29053   4.092   2.959   8.135
 9604WAT     H129054   4.161   2.895   8.099
 9604WAT     H229055   4.091   2.954   8.235
 9605WAT      O29056   1.917   4.155   3.552
 9605WAT     H129057   1.885   4.089   3.485
 9605WAT     H229058   2.017   4.163   3.546
 9606WAT      O29059   8.551   1.402   9.752
 9606WAT     H129060   8.474   1.356   9.708
 9606WAT     H229061   8.626   1.338   9.764
 9607WAT      O29062   7.486   4.595   2.261
 9607WAT     H129063   7.493   4.572   2.164
 9607WAT     H229064   7.449   4.518   2.312
 9608WAT      O29065   3.076   4.594   6.192
 9608WAT     H129066   3.088   4.690   6.217
 9608WAT     H229067   3.041   4.588   6.098
 9609WAT      O29068   3.069   4.169   2.517
 9609WAT     H129069   3.068   4.214   2.606
 9609WAT     H229070   3.003   4.093   2.517
 9610WAT      O29071   4.555   0.051   7.525
 9610WAT     H129072   4.640   0.066   7.476
 9610WAT     H229073   4.544  -0.046   7.546
 9611WAT      O29074   6.140   6.146   1.547
 9611WAT     H129075   6.092   6.128   1.462
 9611WAT     H229076   6.202   6.070   1.568
 9612WAT      O29077   1.625   4.048   4.301
 9612WAT     H129078   1.707   4.099   4.327
 9612WAT     H229079   1.549   4.111   4.288
 9613WAT      O29080   4.368   4.822   9.012
 9613WAT     H129081   4.290   4.882   8.989
 9613WAT     H229082   4.334   4.735   9.046
 9614WAT      O29083   9.338   8.569   1.371
 9614WAT     H129084   9.298   8.655   1.403
 9614WAT     H229085   9.284   8.533   1.295
 9615WAT      O29086   0.724   8.547   0.172
 9615WAT     H129087   0.778   8.626   0.142
 9615WAT     H229088   0.629   8.561   0.147
 9616WAT      O29089   2.325   8.550   9.800
 9616WAT     H129090   2.225   8.545   9.796
 9616WAT     H229091   2.364   8.489   9.731
 9617WAT      O29092   4.571   5.233   9.173
 9617WAT     H129093   4.644   5.166   9.158
 9617WAT     H229094   4.605   5.324   9.147
 9618WAT      O29095   7.929   1.601   6.937
 9618WAT     H129096   8.003   1.662   6.910
 9618WAT     H229097   7.897   1.550   6.857
 9619WAT      O29098   9.313   8.447   7.595
 9619WAT     H129099   9.411   8.435   7.575
 9619WAT     H229100   9.303   8.482   7.688
 9620WAT      O29101   2.106   4.985   8.555
 9620WAT     H129102   2.153   4.905   8.593
 9620WAT     H229103   2.142   5.068   8.597
 9621WAT      O29104   8.578   0.213   0.969
 9621WAT     H129105   8.546   0.122   0.944
 9621WAT     H229106   8.500   0.274   0.981
 9622WAT      O29107   2.655   5.436   8.847
 9622WAT     H129108   2.632   5.375   8.923
 9622WAT     H229109   2.625   5.394   8.761
 9623WAT      O29110   8.841   5.850   9.081
 9623WAT     H129111   8.873   5.926   9.025
 9623WAT     H229112   8.839   5.766   9.026
 9624WAT      O29113   0.635   5.686   5.173
 9624WAT     H129114   0.665   5.601   5.130
 9624WAT     H229115   0.537   5.682   5.189
 9625WAT      O29116   0.451   6.496   5.211
 9625WAT     H129117   0.390   6.513   5.288
 9625WAT     H229118   0.538   6.461   5.245
 9626WAT      O29119   5.466   4.887   4.591
 9626WAT     H129120   5.403   4.820   4.550
 9626WAT     H229121   5.543   4.840   4.634
 9627WAT      O29122   4.164   2.751   9.518
 9627WAT     H129123   4.098   2.685   9.554
 9627WAT     H229124   4.251   2.706   9.501
 9628WAT      O29125   0.276   4.200   7.486
 9628WAT     H129126   0.321   4.276   7.533
 9628WAT     H229127   0.182   4.226   7.464
 9629WAT      O29128   8.981   5.417   3.422
 9629WAT     H129129   9.049   5.345   3.438
 9629WAT     H229130   8.902   5.401   3.482
 9630WAT      O29131   2.743   3.475   3.011
 9630WAT     H129132   2.813   3.538   2.977
 9630WAT     H229133   2.711   3.416   2.937
 9631WAT      O29134   2.206   7.457   0.623
 9631WAT     H129135   2.128   7.397   0.642
 9631WAT     H229136   2.173   7.545   0.589
 9632WAT      O29137   8.220   4.014   9.768
 9632WAT     H129138   8.298   3.965   9.729
 9632WAT     H229139   8.148   4.023   9.699
 9633WAT      O29140   3.852   1.196   2.047
 9633WAT     H129141   3.913   1.167   2.121
 9633WAT     H229142   3.900   1.187   1.960
 9634WAT      O29143   0.386   6.282   8.108
 9634WAT     H129144   0.341   6.196   8.132
 9634WAT     H229145   0.325   6.359   8.128
 9635WAT      O29146   6.864   6.598   5.272
 9635WAT     H129147   6.847   6.552   5.359
 9635WAT     H229148   6.789   6.661   5.252
 9636WAT      O29149   6.187   4.659   7.898
 9636WAT     H129150   6.209   4.753   7.923
 9636WAT     H229151   6.089   4.642   7.913
 9637WAT      O29152   3.601   2.846   0.250
 9637WAT     H129153   3.661   2.919   0.283
 9637WAT     H229154   3.558   2.801   0.329
 9638WAT      O29155   8.887   1.225   5.010
 9638WAT     H129156   8.845   1.249   4.923
 9638WAT     H229157   8.887   1.126   5.021
 9639WAT      O29158   3.488   4.853   7.633
 9639WAT     H129159   3.461   4.919   7.563
 9639WAT     H229160   3.460   4.886   7.723
 9640WAT      O29161   9.093   5.684   3.282
 9640WAT     H129162   9.088   5.624   3.202
 9640WAT     H229163   9.041   5.644   3.357
 9641WAT      O29164   3.307   0.049   8.438
 9641WAT     H129165   3.374   0.067   8.511
 9641WAT     H229166   3.351  -0.001   8.364
 9642WAT      O29167   3.159   8.857   3.753
 9642WAT     H129168   3.119   8.949   3.745
 9642WAT     H229169   3.167   8.816   3.663
 9643WAT      O29170   5.801   6.855   6.174
 9643WAT     H129171   5.725   6.823   6.118
 9643WAT     H229172   5.885   6.809   6.145
 9644WAT      O29173   3.897   4.027   5.892
 9644WAT     H129174   3.848   4.105   5.851
 9644WAT     H229175   3.994   4.050   5.900
 9645WAT      O29176   3.787   1.630   0.054
 9645WAT     H129177   3.693   1.595   0.046
 9645WAT     H229178   3.808   1.649   0.150
 9646WAT      O29179   9.092   1.970   0.171
 9646WAT     H129180   9.029   1.997   0.244
 9646WAT     H229181   9.141   2.050   0.138
 9647WAT      O29182   2.143   2.425   1.833
 9647WAT     H129183   2.173   2.341   1.879
 9647WAT     H229184   2.043   2.425   1.825
 9648WAT      O29185   6.071   1.628   0.360
 9648WAT     H129186   6.057   1.537   0.320
 9648WAT     H229187   5.982   1.667   0.385
 9649WAT      O29188   5.307   8.436   4.278
 9649WAT     H129189   5.393   8.419   4.327
 9649WAT     H229190   5.231   8.404   4.334
 9650WAT      O29191   3.566   5.456   3.461
 9650WAT     H129192   3.619   5.385   3.508
 9650WAT     H229193   3.469   5.433   3.467
 9651WAT      O29194   0.595   8.727   9.448
 9651WAT     H129195   0.552   8.694   9.532
 9651WAT     H229196   0.561   8.819   9.427
 9652WAT      O29197   8.629   3.874   1.691
 9652WAT     H129198   8.610   3.806   1.762
 9652WAT     H229199   8.684   3.948   1.730
 9653WAT      O29200   3.627   5.799   6.418
 9653WAT     H129201   3.638   5.736   6.341
 9653WAT     H229202   3.704   5.863   6.419
 9654WAT      O29203   2.527   4.225   1.830
 9654WAT     H129204   2.615   4.187   1.858
 9654WAT     H229205   2.533   4.254   1.735
 9655WAT      O29206   1.128   7.092   0.289
 9655WAT     H129207   1.055   7.035   0.252
 9655WAT     H229208   1.208   7.085   0.229
 9656WAT      O29209   2.649   2.693   6.045
 9656WAT     H129210   2.733   2.643   6.064
 9656WAT     H229211   2.635   2.700   5.946
 9657WAT      O29212   7.310   4.767   5.990
 9657WAT     H129213   7.345   4.714   5.913
 9657WAT     H229214   7.367   4.848   6.003
 9658WAT      O29215   4.277   7.894   9.835
 9658WAT     H129216   4.184   7.928   9.847
 9658WAT     H229217   4.330   7.911   9.918
 9659WAT      O29218   1.625   5.211   3.101
 9659WAT     H129219   1.667   5.126   3.070
 9659WAT     H229220   1.541   5.191   3.151
 9660WAT      O29221   8.408   5.329   6.018
 9660WAT     H129222   8.486   5.370   5.971
 9660WAT     H229223   8.329   5.391   6.012
 9661WAT      O29224   3.017   4.985   8.102
 9661WAT     H129225   3.095   4.927   8.128
 9661WAT     H229226   3.035   5.079   8.131
 9662WAT      O29227   9.708   6.083   4.263
 9662WAT     H129228   9.643   6.150   4.228
 9662WAT     H229229   9.672   6.041   4.346
 9663WAT      O29230   6.437   7.895   0.753
 9663WAT     H129231   6.367   7.913   0.685
 9663WAT     H229232   6.394   7.862   0.838
 9664WAT      O29233   9.089   0.520   6.942
 9664WAT     H129234   8.997   0.488   6.917
 9664WAT     H229235   9.115   0.597   6.884
 9665WAT      O29236   0.338   9.652   7.688
 9665WAT     H129237   0.258   9.711   7.678
 9665WAT     H229238   0.317   9.577   7.752
 9666WAT      O29239   1.699   8.368   2.306
 9666WAT     H129240   1.661   8.280   2.279
 9666WAT     H229241   1.705   8.372   2.406
 9667WAT      O29242   8.725   6.416   4.914
 9667WAT     H129243   8.747   6.437   4.819
 9667WAT     H229244   8.630   6.443   4.932
 9668WAT      O29245   4.452   7.362   7.882
 9668WAT     H129246   4.543   7.387   7.848
 9668WAT     H229247   4.451   7.370   7.982
 9669WAT      O29248   9.682   7.143   8.275
 9669WAT     H129249   9.611   7.176   8.338
 9669WAT     H229250   9.673   7.191   8.187
 9670WAT      O29251   8.911   7.707   1.101
 9670WAT     H129252   8.944   7.776   1.037
 9670WAT     H229253   8.940   7.730   1.194
 9671WAT      O29254   9.521   0.012   7.782
 9671WAT     H129255   9.434   0.051   7.813
 9671WAT     H229256   9.543   0.047   7.691
 9672WAT      O29257   8.534   2.113   9.204
 9672WAT     H129258   8.467   2.177   9.167
 9672WAT     H229259   8.562   2.049   9.132
 9673WAT      O29260   7.422   6.094   7.912
 9673WAT     H129261   7.336   6.129   7.873
 9673WAT     H229262   7.425   6.115   8.010
 9674WAT      O29263   0.717   3.596   6.083
 9674WAT     H129264   0.714   3.524   6.014
 9674WAT     H229265   0.784   3.665   6.055
 9675WAT      O29266   5.195   7.835   0.144
 9675WAT     H129267   5.150   7.751   0.175
 9675WAT     H229268   5.265   7.862   0.211
 9676WAT      O29269   8.108   8.766   8.515
 9676WAT     H129270   8.139   8.779   8.421
 9676WAT     H229271   8.175   8.804   8.578
 9677WAT      O29272   8.389   9.336   0.741
 9677WAT     H129273   8.293   9.352   0.721
 9677WAT     H229274   8.441   9.420   0.726
 9678WAT      O29275   1.802   5.391   6.099
 9678WAT     H129276   1.762   5.307   6.064
 9678WAT     H229277   1.750   5.469   6.066
 9679WAT      O29278   4.599   0.156   4.264
 9679WAT     H129279   4.586   0.072   4.211
 9679WAT     H229280   4.527   0.162   4.333
 9680WAT      O29281   2.630   6.557   8.392
 9680WAT     H129282   2.549   6.502   8.411
 9680WAT     H229283   2.667   6.593   8.477
 9681WAT      O29284   9.838   6.979   7.109
 9681WAT     H129285   9.794   6.904   7.159
 9681WAT     H229286   9.773   7.053   7.096
 9682WAT      O29287   8.327   3.850   0.101
 9682WAT     H129288   8.236   3.890   0.116
 9682WAT     H229289   8.353   3.863   0.005
 9683WAT      O29290   8.083   6.912   9.031
 9683WAT     H129291   7.998   6.935   8.982
 9683WAT     H229292   8.141   6.992   9.038
 9684WAT      O29293   1.328   5.639   2.546
 9684WAT     H129294   1.308   5.697   2.625
 9684WAT     H229295   1.261   5.657   2.474
 9685WAT      O29296   3.808   4.872   1.536
 9685WAT     H129297   3.905   4.881   1.557
 9685WAT     H229298   3.761   4.826   1.611
 9686WAT      O29299   8.315   7.582   0.295
 9686WAT     H129300   8.298   7.645   0.219
 9686WAT     H229301   8.235   7.524   0.309
 9687WAT      O29302   0.909   3.315   1.420
 9687WAT     H129303   0.944   3.338   1.511
 9687WAT     H229304   0.932   3.220   1.398
 9688WAT      O29305   6.037   6.942   3.726
 9688WAT     H129306   6.060   7.018   3.665
 9688WAT     H229307   5.941   6.917   3.713
 9689WAT      O29308   6.726   0.766   7.430
 9689WAT     H129309   6.663   0.843   7.446
 9689WAT     H229310   6.713   0.731   7.338
 9690WAT      O29311   6.426   6.634   5.891
 9690WAT     H129312   6.509   6.590   5.925
 9690WAT     H229313   6.357   6.564   5.871
 9691WAT      O29314   3.892   1.114   7.554
 9691WAT     H129315   3.922   1.045   7.619
 9691WAT     H229316   3.967   1.138   7.492
 9692WAT      O29317   4.399   5.291   1.672
 9692WAT     H129318   4.397   5.255   1.765
 9692WAT     H229319   4.388   5.216   1.607
 9693WAT      O29320   2.879   8.784   3.185
 9693WAT     H129321   2.964   8.750   3.225
 9693WAT     H229322   2.875   8.884   3.195
 9694WAT      O29323   2.725   1.898   8.881
 9694WAT     H129324   2.713   1.984   8.831
 9694WAT     H229325   2.647   1.883   8.942
 9695WAT      O29326   3.234   7.648   7.868
 9695WAT     H129327   3.189   7.609   7.787
 9695WAT     H229328   3.191   7.612   7.951
 9696WAT      O29329   5.147   1.102   9.716
 9696WAT     H129330   5.109   1.024   9.667
 9696WAT     H229331   5.086   1.127   9.791
 9697WAT      O29332   8.819   8.317   2.947
 9697WAT     H129333   8.846   8.251   2.877
 9697WAT     H229334   8.891   8.325   3.015
 9698WAT      O29335   4.471   0.167   9.736
 9698WAT     H129336   4.500   0.247   9.788
 9698WAT     H229337   4.474   0.086   9.795
 9699WAT      O29338   9.370   6.749   0.440
 9699WAT     H129339   9.346   6.787   0.351
 9699WAT     H229340   9.456   6.698   0.433
 9700WAT      O29341   0.788   9.413   4.361
 9700WAT     H129342   0.788   9.513   4.358
 9700WAT     H229343   0.710   9.379   4.308
 9701WAT      O29344   6.887   2.297   8.550
 9701WAT     H129345   6.800   2.249   8.538
 9701WAT     H229346   6.870   2.389   8.583
 9702WAT      O29347   3.433   5.756   2.574
 9702WAT     H129348   3.408   5.741   2.669
 9702WAT     H229349   3.447   5.668   2.528
 9703WAT      O29350   7.226   6.092   0.554
 9703WAT     H129351   7.157   6.054   0.615
 9703WAT     H229352   7.183   6.120   0.468
 9704WAT      O29353   0.220   6.032   6.740
 9704WAT     H129354   0.162   5.986   6.673
 9704WAT     H229355   0.193   6.128   6.747
 9705WAT      O29356   9.501   6.203   4.180
 9705WAT     H129357   9.474   6.167   4.091
 9705WAT     H229358   9.438   6.277   4.206
 9706WAT      O29359   1.991   6.344   1.963
 9706WAT     H129360   1.988   6.246   1.944
 9706WAT     H229361   1.954   6.395   1.885
 9707WAT      O29362   6.983   9.341   1.112
 9707WAT     H129363   6.971   9.285   1.194
 9707WAT     H229364   7.075   9.380   1.111
 9708WAT      O29365   4.950   2.188   0.937
 9708WAT     H129366   4.927   2.171   1.033
 9708WAT     H229367   4.902   2.270   0.905
 9709WAT      O29368   1.673   3.114   7.517
 9709WAT     H129369   1.675   3.212   7.537
 9709WAT     H229370   1.621   3.099   7.433
 9710WAT      O29371   2.250   0.695   2.038
 9710WAT     H129372   2.182   0.760   2.006
 9710WAT     H229373   2.341   0.724   2.009
 9711WAT      O29374   0.273   4.290   5.294
 9711WAT     H129375   0.190   4.296   5.239
 9711WAT     H229376   0.250   4.303   5.391
 9712WAT      O29377   2.704   8.194   0.763
 9712WAT     H129378   2.625   8.213   0.821
 9712WAT     H229379   2.673   8.150   0.678
 9713WAT      O29380   9.320   7.494   8.507
 9713WAT     H129381   9.274   7.579   8.482
 9713WAT     H229382   9.350   7.499   8.602
 9714WAT      O29383   3.535   6.916   7.580
 9714WAT     H129384   3.507   6.922   7.676
 9714WAT     H229385   3.616   6.858   7.572
 9715WAT      O29386   5.805   9.285   1.444
 9715WAT     H129387   5.765   9.361   1.393
 9715WAT     H229388   5.817   9.207   1.382
 9716WAT      O29389   0.872   2.610   3.282
 9716WAT     H129390   0.831   2.623   3.372
 9716WAT     H229391   0.965   2.647   3.282
 9717WAT      O29392   5.702   8.674   5.980
 9717WAT     H129393   5.633   8.619   6.027
 9717WAT     H229394   5.782   8.617   5.961
 9718WAT      O29395   5.625   3.083   1.416
 9718WAT     H129396   5.669   3.135   1.343
 9718WAT     H229397   5.567   3.012   1.375
 9719WAT      O29398   1.381   0.030   5.306
 9719WAT     H129399   1.443   0.090   5.355
 9719WAT     H229400   1.354   0.072   5.219
 9720WAT      O29401   6.373   3.028   5.298
 9720WAT     H129402   6.350   2.985   5.385
 9720WAT     H229403   6.295   3.081   5.264
 9721WAT      O29404   4.591   1.526   9.207
 9721WAT     H129405   4.626   1.585   9.134
 9721WAT     H229406   4.657   1.524   9.282
 9722WAT      O29407   8.156   1.683   5.545
 9722WAT     H129408   8.182   1.687   5.642
 9722WAT     H229409   8.238   1.694   5.489
 9723WAT      O29410   2.183   1.571   4.307
 9723WAT     H129411   2.276   1.603   4.290
 9723WAT     H229412   2.165   1.489   4.253
 9724WAT      O29413   0.516   5.987   1.359
 9724WAT     H129414   0.486   5.892   1.355
 9724WAT     H229415   0.436   6.047   1.351
 9725WAT      O29416   7.845   7.563   1.245
 9725WAT     H129417   7.914   7.491   1.237
 9725WAT     H229418   7.805   7.561   1.337
 9726WAT      O29419   9.671   7.492   0.540
 9726WAT     H129420   9.687   7.417   0.476
 9726WAT     H229421   9.640   7.573   0.489
 9727WAT      O29422   2.624   6.955   6.133
 9727WAT     H129423   2.543   6.897   6.131
 9727WAT     H229424   2.597   7.051   6.134
 9728WAT      O29425   1.351   5.435   7.141
 9728WAT     H129426   1.331   5.435   7.239
 9728WAT     H229427   1.350   5.529   7.106
 9729WAT      O29428   6.178   7.740   6.067
 9729WAT     H129429   6.171   7.757   5.969
 9729WAT     H229430   6.196   7.827   6.114
 9730WAT      O29431   3.831   3.719   2.865
 9730WAT     H129432   3.732   3.726   2.849
 9730WAT     H229433   3.852   3.631   2.906
 9731WAT      O29434   9.361   2.546   7.036
 9731WAT     H129435   9.357   2.446   7.042
 9731WAT     H229436   9.268   2.583   7.034
 9732WAT      O29437   0.881   1.596   8.956
 9732WAT     H129438   0.870   1.624   8.861
 9732WAT     H229439   0.822   1.653   9.014
 9733WAT      O29440   0.488   6.769   1.153
 9733WAT     H129441   0.584   6.746   1.144
 9733WAT     H229442   0.478   6.868   1.160
 9734WAT      O29443   6.304   0.245   3.974
 9734WAT     H129444   6.285   0.235   3.876
 9734WAT     H229445   6.390   0.198   3.996
 9735WAT      O29446   2.972   1.509   4.616
 9735WAT     H129447   2.876   1.536   4.630
 9735WAT     H229448   2.985   1.415   4.650
 9736WAT      O29449   0.473   1.865   7.028
 9736WAT     H129450   0.417   1.921   7.089
 9736WAT     H229451   0.422   1.785   6.998
 9737WAT      O29452   1.328   7.815   3.020
 9737WAT     H129453   1.377   7.882   2.963
 9737WAT     H229454   1.365   7.724   3.003
 9738WAT      O29455   8.183   9.154   5.632
 9738WAT     H129456   8.168   9.182   5.726
 9738WAT     H229457   8.097   9.159   5.581
 9739WAT      O29458   2.356   7.807   9.572
 9739WAT     H129459   2.421   7.781   9.643
 9739WAT     H229460   2.382   7.895   9.533
 9740WAT      O29461   6.093   7.524   5.434
 9740WAT     H129462   6.098   7.556   5.339
 9740WAT     H229463   6.001   7.490   5.453
 9741WAT      O29464   0.997   6.157   3.245
 9741WAT     H129465   1.050   6.242   3.233
 9741WAT     H229466   1.040   6.084   3.193
 9742WAT      O29467   8.597   8.966   5.563
 9742WAT     H129468   8.596   9.042   5.628
 9742WAT     H229469   8.633   8.884   5.608
 9743WAT      O29470   0.176   0.614   7.780
 9743WAT     H129471   0.195   0.679   7.854
 9743WAT     H229472   0.200   0.656   7.692
 9744WAT      O29473   4.987   6.840   6.611
 9744WAT     H129474   4.912   6.783   6.644
 9744WAT     H229475   5.056   6.849   6.684
 9745WAT      O29476   3.232   5.643   9.164
 9745WAT     H129477   3.221   5.729   9.115
 9745WAT     H229478   3.187   5.570   9.113
 9746WAT      O29479   9.011   3.198   4.808
 9746WAT     H129480   9.031   3.101   4.803
 9746WAT     H229481   8.957   3.226   4.729
 9747WAT      O29482   5.913   3.982   3.489
 9747WAT     H129483   5.820   3.962   3.459
 9747WAT     H229484   5.959   3.897   3.515
 9748WAT      O29485   1.774   3.105   5.541
 9748WAT     H129486   1.856   3.113   5.484
 9748WAT     H229487   1.709   3.176   5.517
 9749WAT      O29488   5.126   5.248   5.930
 9749WAT     H129489   5.187   5.200   5.867
 9749WAT     H229490   5.169   5.334   5.958
 9750WAT      O29491   3.560   5.355   6.170
 9750WAT     H129492   3.642   5.303   6.147
 9750WAT     H229493   3.489   5.338   6.102
 9751WAT      O29494   7.050   3.751   7.880
 9751WAT     H129495   7.084   3.746   7.786
 9751WAT     H229496   7.104   3.817   7.931
 9752WAT      O29497   7.280   1.936   2.602
 9752WAT     H129498   7.340   2.015   2.598
 9752WAT     H229499   7.315   1.864   2.542
 9753WAT      O29500   2.595   1.736   0.724
 9753WAT     H129501   2.656   1.813   0.705
 9753WAT     H229502   2.623   1.657   0.669
 9754WAT      O29503   5.711   0.724   6.619
 9754WAT     H129504   5.662   0.638   6.624
 9754WAT     H229505   5.809   0.706   6.609
 9755WAT      O29506   5.377   3.748   5.560
 9755WAT     H129507   5.414   3.809   5.490
 9755WAT     H229508   5.433   3.665   5.565
 9756WAT      O29509   2.395   5.253   0.869
 9756WAT     H129510   2.319   5.189   0.879
 9756WAT     H229511   2.482   5.204   0.881
 9757WAT      O29512   2.820   3.308   8.028
 9757WAT     H129513   2.906   3.318   8.079
 9757WAT     H229514   2.841   3.280   7.934
 9758WAT      O29515   6.403   4.639   3.614
 9758WAT     H129516   6.414   4.655   3.712
 9758WAT     H229517   6.306   4.644   3.591
 9759WAT      O29518   5.937   5.799   6.576
 9759WAT     H129519   6.005   5.861   6.538
 9759WAT     H229520   5.902   5.739   6.503
 9760WAT      O29521   6.012   2.255   3.118
 9760WAT     H129522   6.024   2.221   3.211
 9760WAT     H229523   6.080   2.327   3.100
 9761WAT      O29524   6.706   2.083   7.041
 9761WAT     H129525   6.747   2.150   7.103
 9761WAT     H229526   6.716   1.992   7.080
 9762WAT      O29527   6.074   4.977   9.635
 9762WAT     H129528   6.097   4.983   9.732
 9762WAT     H229529   6.054   5.068   9.599
 9763WAT      O29530   3.486   0.893   8.965
 9763WAT     H129531   3.495   0.805   8.918
 9763WAT     H229532   3.465   0.964   8.899
 9764WAT      O29533   3.525   4.997   2.522
 9764WAT     H129534   3.509   5.091   2.552
 9764WAT     H229535   3.535   4.938   2.602
 9765WAT      O29536   0.909   0.213   5.762
 9765WAT     H129537   0.948   0.305   5.763
 9765WAT     H229538   0.968   0.152   5.709
 9766WAT      O29539   6.564   9.616   1.298
 9766WAT     H129540   6.575   9.696   1.238
 9766WAT     H229541   6.500   9.552   1.256
 9767WAT      O29542   4.897   3.144   4.782
 9767WAT     H129543   4.907   3.067   4.718
 9767WAT     H229544   4.974   3.145   4.845
 9768WAT      O29545   5.880   1.758   2.961
 9768WAT     H129546   5.827   1.829   2.916
 9768WAT     H229547   5.964   1.742   2.910
 9769WAT      O29548   1.832   2.542   1.608
 9769WAT     H129549   1.908   2.558   1.544
 9769WAT     H229550   1.772   2.472   1.571
 9770WAT      O29551   7.633   1.836   6.975
 9770WAT     H129552   7.608   1.900   7.048
 9770WAT     H229553   7.617   1.742   7.006
 9771WAT      O29554   1.789   8.099   4.338
 9771WAT     H129555   1.713   8.083   4.274
 9771WAT     H229556   1.766   8.061   4.427
 9772WAT      O29557   3.040   2.468   8.416
 9772WAT     H129558   2.953   2.434   8.452
 9772WAT     H229559   3.023   2.525   8.335
 9773WAT      O29560   1.759   1.317   8.370
 9773WAT     H129561   1.687   1.384   8.386
 9773WAT     H229562   1.758   1.290   8.273
 9774WAT      O29563   0.211   6.455   6.210
 9774WAT     H129564   0.254   6.377   6.166
 9774WAT     H229565   0.129   6.482   6.159
 9775WAT      O29566   2.462   1.487   4.445
 9775WAT     H129567   2.523   1.410   4.463
 9775WAT     H229568   2.459   1.547   4.524
 9776WAT      O29569   6.561   6.350   1.829
 9776WAT     H129570   6.557   6.268   1.772
 9776WAT     H229571   6.484   6.409   1.808
 9777WAT      O29572   6.720   5.548   8.353
 9777WAT     H129573   6.809   5.543   8.309
 9777WAT     H229574   6.653   5.587   8.289
 9778WAT      O29575   6.151   1.221   8.067
 9778WAT     H129576   6.079   1.290   8.063
 9778WAT     H229577   6.166   1.194   8.162
 9779WAT      O29578   5.731   3.242   8.618
 9779WAT     H129579   5.658   3.235   8.551
 9779WAT     H229580   5.699   3.295   8.697
 9780WAT      O29581   8.660   1.794   4.789
 9780WAT     H129582   8.668   1.890   4.761
 9780WAT     H229583   8.737   1.742   4.752
 9781WAT      O29584   8.878   6.428   4.173
 9781WAT     H129585   8.899   6.415   4.076
 9781WAT     H229586   8.810   6.500   4.183
 9782WAT      O29587   9.706   9.669   9.483
 9782WAT     H129588   9.761   9.751   9.471
 9782WAT     H229589   9.767   9.590   9.496
 9783WAT      O29590   7.589   2.068   9.142
 9783WAT     H129591   7.648   2.085   9.221
 9783WAT     H229592   7.513   2.009   9.170
 9784WAT      O29593   2.578   1.549   0.433
 9784WAT     H129594   2.662   1.575   0.480
 9784WAT     H229595   2.602   1.508   0.344
 9785WAT      O29596   0.919   1.315   8.588
 9785WAT     H129597   0.950   1.399   8.544
 9785WAT     H229598   0.861   1.264   8.525
 9786WAT      O29599   1.616   2.303   9.440
 9786WAT     H129600   1.565   2.241   9.381
 9786WAT     H229601   1.708   2.316   9.404
 9787WAT      O29602   3.043   2.040   6.027
 9787WAT     H129603   3.110   1.985   5.978
 9787WAT     H229604   3.020   1.996   6.114
 9788WAT      O29605   3.893   5.760   8.633
 9788WAT     H129606   3.949   5.688   8.593
 9788WAT     H229607   3.814   5.718   8.678
 9789WAT      O29608   8.071   5.977   0.041
 9789WAT     H129609   8.111   5.987   0.132
 9789WAT     H229610   7.999   6.045   0.029
 9790WAT      O29611   5.885   2.265   8.561
 9790WAT     H129612   5.807   2.305   8.610
 9790WAT     H229613   5.878   2.286   8.464
 9791WAT      O29614   5.210   3.124   8.224
 9791WAT     H129615   5.214   3.031   8.259
 9791WAT     H229616   5.302   3.164   8.224
 9792WAT      O29617   3.567   4.404   7.370
 9792WAT     H129618   3.491   4.382   7.309
 9792WAT     H229619   3.556   4.498   7.404
 9793WAT      O29620   7.508   0.802   4.367
 9793WAT     H129621   7.559   0.769   4.446
 9793WAT     H229622   7.516   0.902   4.361
 9794WAT      O29623   7.417   0.800   7.985
 9794WAT     H129624   7.474   0.881   8.001
 9794WAT     H229625   7.321   0.826   7.993
 9795WAT      O29626   7.111   3.050   3.859
 9795WAT     H129627   7.184   3.117   3.874
 9795WAT     H229628   7.125   3.004   3.771
 9796WAT      O29629   2.734   7.646   5.613
 9796WAT     H129630   2.775   7.698   5.688
 9796WAT     H229631   2.805   7.623   5.546
 9797WAT      O29632   2.863   5.833   5.300
 9797WAT     H129633   2.841   5.879   5.214
 9797WAT     H229634   2.779   5.818   5.352
 9798WAT      O29635   6.829   1.641   0.705
 9798WAT     H129636   6.846   1.580   0.628
 9798WAT     H229637   6.736   1.678   0.698
 9799WAT      O29638   1.515   8.029   1.786
 9799WAT     H129639   1.476   8.113   1.749
 9799WAT     H229640   1.574   7.986   1.718
 9800WAT      O29641   1.094   9.626   4.591
 9800WAT     H129642   1.151   9.626   4.673
 9800WAT     H229643   1.118   9.547   4.534
 9801WAT      O29644   9.375   2.250   6.990
 9801WAT     H129645   9.469   2.258   7.025
 9801WAT     H229646   9.377   2.242   6.890
 9802WAT      O29647   8.926   9.223   5.586
 9802WAT     H129648   8.890   9.232   5.493
 9802WAT     H229649   8.955   9.128   5.601
 9803WAT      O29650   0.459   2.369   9.487
 9803WAT     H129651   0.534   2.427   9.520
 9803WAT     H229652   0.425   2.405   9.400
 9804WAT      O29653   3.492   8.666   3.593
 9804WAT     H129654   3.482   8.741   3.659
 9804WAT     H229655   3.499   8.579   3.642
 9805WAT      O29656   4.522   7.894   4.338
 9805WAT     H129657   4.498   7.986   4.370
 9805WAT     H229658   4.588   7.853   4.401
 9806WAT      O29659   5.114   2.100   8.981
 9806WAT     H129660   5.116   2.008   8.941
 9806WAT     H229661   5.023   2.118   9.018
 9807WAT      O29662   6.254   2.010   3.089
 9807WAT     H129663   6.279   2.104   3.069
 9807WAT     H229664   6.225   2.002   3.184
 9808WAT      O29665   3.079   2.583   8.875
 9808WAT     H129666   3.016   2.629   8.938
 9808WAT     H229667   3.167   2.571   8.918
 9809WAT      O29668   5.018   9.124   2.841
 9809WAT     H129669   5.118   9.135   2.841
 9809WAT     H229670   4.994   9.041   2.891
 9810WAT      O29671   5.929   5.638   9.640
 9810WAT     H129672   5.882   5.565   9.690
 9810WAT     H229673   6.010   5.667   9.691
 9811WAT      O29674   5.302   8.537   5.186
 9811WAT     H129675   5.380   8.597   5.206
 9811WAT     H229676   5.221   8.571   5.233
 9812WAT      O29677   4.474   6.502   9.832
 9812WAT     H129678   4.491   6.554   9.916
 9812WAT     H229679   4.559   6.495   9.780
 9813WAT      O29680   9.334   9.432   1.472
 9813WAT     H129681   9.430   9.405   1.462
 9813WAT     H229682   9.304   9.479   1.389
 9814WAT      O29683   3.493   6.780   0.893
 9814WAT     H129684   3.522   6.807   0.801
 9814WAT     H229685   3.400   6.814   0.909
 9815WAT      O29686   1.094   8.178   4.820
 9815WAT     H129687   0.997   8.188   4.798
 9815WAT     H229688   1.106   8.102   4.884
 9816WAT      O29689   0.071   0.085   5.302
 9816WAT     H129690   0.038   0.022   5.372
 9816WAT     H229691   0.017   0.169   5.305
 9817WAT      O29692   5.196   8.585   3.322
 9817WAT     H129693   5.111   8.628   3.353
 9817WAT     H229694   5.241   8.539   3.398
 9818WAT      O29695   1.191   9.804   6.756
 9818WAT     H129696   1.123   9.731   6.744
 9818WAT     H229697   1.254   9.804   6.679
 9819WAT      O29698   6.413   1.992   0.705
 9819WAT     H129699   6.437   2.056   0.778
 9819WAT     H229700   6.314   1.995   0.689
 9820WAT      O29701   8.399   1.769   7.533
 9820WAT     H129702   8.398   1.868   7.520
 9820WAT     H229703   8.367   1.747   7.625
 9821WAT      O29704   3.979   4.621   8.008
 9821WAT     H129705   3.917   4.668   7.945
 9821WAT     H229706   4.071   4.658   7.998
 9822WAT      O29707   7.058   8.458   8.805
 9822WAT     H129708   7.034   8.431   8.898
 9822WAT     H229709   7.071   8.557   8.800
 9823WAT      O29710   0.797   6.662   7.629
 9823WAT     H129711   0.718   6.601   7.616
 9823WAT     H229712   0.868   6.614   7.680
 9824WAT      O29713   2.622   9.384   3.461
 9824WAT     H129714   2.638   9.291   3.429
 9824WAT     H229715   2.544   9.385   3.524
 9825WAT      O29716   7.730   3.974   5.265
 9825WAT     H129717   7.676   3.923   5.332
 9825WAT     H229718   7.672   3.999   5.188
 9826WAT      O29719   6.154   4.356   1.277
 9826WAT     H129720   6.125   4.418   1.349
 9826WAT     H229721   6.177   4.267   1.316
 9827WAT      O29722   3.808   7.168   6.376
 9827WAT     H129723   3.890   7.180   6.319
 9827WAT     H229724   3.730   7.213   6.332
 9828WAT      O29725   2.286   6.978   0.581
 9828WAT     H129726   2.253   6.938   0.667
 9828WAT     H229727   2.325   7.068   0.599
 9829WAT      O29728   6.748   7.906   2.958
 9829WAT     H129729   6.680   7.867   3.020
 9829WAT     H229730   6.837   7.861   2.974
 9830WAT      O29731   6.367   2.332   3.453
 9830WAT     H129732   6.411   2.242   3.445
 9830WAT     H229733   6.305   2.331   3.532
 9831WAT      O29734   9.024   0.057   3.259
 9831WAT     H129735   8.947   0.118   3.279
 9831WAT     H229736   9.011  -0.030   3.305
 9832WAT      O29737   5.711   7.976   8.283
 9832WAT     H129738   5.652   7.963   8.362
 9832WAT     H229739   5.806   7.957   8.309
 9833WAT      O29740   9.676   6.816   0.210
 9833WAT     H129741   9.577   6.801   0.219
 9833WAT     H229742   9.708   6.774   0.125
 9834WAT      O29743   7.103   0.471   1.651
 9834WAT     H129744   7.010   0.459   1.618
 9834WAT     H229745   7.142   0.554   1.610
 9835WAT      O29746   0.492   3.429   4.412
 9835WAT     H129747   0.535   3.367   4.346
 9835WAT     H229748   0.492   3.522   4.376
 9836WAT      O29749   8.425   9.453   8.706
 9836WAT     H129750   8.357   9.496   8.646
 9836WAT     H229751   8.402   9.473   8.801
 9837WAT      O29752   0.964   1.342   0.300
 9837WAT     H129753   0.989   1.431   0.336
 9837WAT     H229754   0.897   1.352   0.227
 9838WAT      O29755   1.123   2.743   8.531
 9838WAT     H129756   1.155   2.802   8.606
 9838WAT     H229757   1.098   2.800   8.453
 9839WAT      O29758   0.780   2.812   3.036
 9839WAT     H129759   0.778   2.773   3.129
 9839WAT     H229760   0.697   2.785   2.987
 9840WAT      O29761   8.469   4.974   4.134
 9840WAT     H129762   8.558   5.019   4.143
 9840WAT     H229763   8.461   4.902   4.203
 9841WAT      O29764   9.391   5.585   3.727
 9841WAT     H129765   9.426   5.622   3.814
 9841WAT     H229766   9.367   5.660   3.666
 9842WAT      O29767   1.220   3.950   6.895
 9842WAT     H129768   1.187   3.903   6.813
 9842WAT     H229769   1.302   4.004   6.873
 9843WAT      O29770   6.437   4.121   1.437
 9843WAT     H129771   6.431   4.032   1.392
 9843WAT     H229772   6.345   4.156   1.454
 9844WAT      O29773   2.311   5.649   2.232
 9844WAT     H129774   2.215   5.622   2.231
 9844WAT     H229775   2.347   5.643   2.325
 9845WAT      O29776   1.561   7.656   9.323
 9845WAT     H129777   1.652   7.697   9.330
 9845WAT     H229778   1.569   7.556   9.326
 9846WAT      O29779   4.137   6.392   8.504
 9846WAT     H129780   4.152   6.462   8.574
 9846WAT     H229781   4.191   6.414   8.422
 9847WAT      O29782   9.851   8.474   8.825
 9847WAT     H129783   9.883   8.562   8.789
 9847WAT     H229784   9.875   8.467   8.922
 9848WAT      O29785   1.852   8.241   9.535
 9848WAT     H129786   1.921   8.294   9.585
 9848WAT     H229787   1.798   8.187   9.599
 9849WAT      O29788   0.887   4.449   5.174
 9849WAT     H129789   0.924   4.499   5.096
 9849WAT     H229790   0.873   4.353   5.149
 9850WAT      O29791   4.420   1.111   8.600
 9850WAT     H129792   4.463   1.096   8.689
 9850WAT     H229793   4.383   1.204   8.596
 9851WAT      O29794   6.232   3.939   2.513
 9851WAT     H129795   6.315   3.976   2.555
 9851WAT     H229796   6.191   4.008   2.454
 9852WAT      O29797   7.435   6.141   8.197
 9852WAT     H129798   7.365   6.210   8.216
 9852WAT     H229799   7.522   6.172   8.236
 9853WAT      O29800   7.232   6.791   4.316
 9853WAT     H129801   7.204   6.882   4.284
 9853WAT     H229802   7.169   6.722   4.281
 9854WAT      O29803   2.536   9.290   0.373
 9854WAT     H129804   2.448   9.329   0.349
 9854WAT     H229805   2.591   9.278   0.290
 9855WAT      O29806   2.902   8.620   8.986
 9855WAT     H129807   2.929   8.538   8.936
 9855WAT     H229808   2.844   8.677   8.929
 9856WAT      O29809   8.152   4.303   6.949
 9856WAT     H129810   8.080   4.303   7.018
 9856WAT     H229811   8.198   4.214   6.948
 9857WAT      O29812   3.042   2.881   7.577
 9857WAT     H129813   2.954   2.902   7.533
 9857WAT     H229814   3.117   2.905   7.515
 9858WAT      O29815   3.057   1.884   7.309
 9858WAT     H129816   3.082   1.930   7.224
 9858WAT     H229817   3.131   1.895   7.375
 9859WAT      O29818   2.185   6.093   8.937
 9859WAT     H129819   2.177   6.180   8.888
 9859WAT     H229820   2.192   6.018   8.871
 9860WAT      O29821   2.054   8.657   3.174
 9860WAT     H129822   1.957   8.679   3.163
 9860WAT     H229823   2.065   8.563   3.205
 9861WAT      O29824   4.819   0.363   7.173
 9861WAT     H129825   4.800   0.287   7.110
 9861WAT     H229826   4.774   0.445   7.140
 9862WAT      O29827   9.647   9.385   3.775
 9862WAT     H129828   9.653   9.287   3.758
 9862WAT     H229829   9.738   9.420   3.797
 9863WAT      O29830   9.238   2.340   2.790
 9863WAT     H129831   9.211   2.313   2.698
 9863WAT     H229832   9.254   2.259   2.845
 9864WAT      O29833   9.341   4.545   2.213
 9864WAT     H129834   9.293   4.463   2.182
 9864WAT     H229835   9.316   4.565   2.308
 9865WAT      O29836   3.577   6.021   3.817
 9865WAT     H129837   3.555   5.926   3.837
 9865WAT     H229838   3.674   6.037   3.834
 9866WAT      O29839   4.192   9.342   9.303
 9866WAT     H129840   4.225   9.282   9.230
 9866WAT     H229841   4.154   9.426   9.262
 9867WAT      O29842   0.132   4.101   2.119
 9867WAT     H129843   0.053   4.049   2.151
 9867WAT     H229844   0.105   4.162   2.045
 9868WAT      O29845   4.905   6.767   3.417
 9868WAT     H129846   5.000   6.737   3.424
 9868WAT     H229847   4.844   6.691   3.441
 9869WAT      O29848   7.643   8.813   3.244
 9869WAT     H129849   7.661   8.715   3.234
 9869WAT     H229850   7.707   8.865   3.187
 9870WAT      O29851   4.713   9.486   0.333
 9870WAT     H129852   4.647   9.431   0.283
 9870WAT     H229853   4.670   9.572   0.362
 9871WAT      O29854   1.008   3.275   3.690
 9871WAT     H129855   1.083   3.299   3.628
 9871WAT     H229856   0.978   3.357   3.739
 9872WAT      O29857   6.290   8.765   8.317
 9872WAT     H129858   6.266   8.678   8.359
 9872WAT     H229859   6.383   8.790   8.343
 9873WAT      O29860   9.415   7.512   9.726
 9873WAT     H129861   9.430   7.516   9.627
 9873WAT     H229862   9.319   7.530   9.746
 9874WAT      O29863   5.729   0.789   3.241
 9874WAT     H129864   5.689   0.851   3.309
 9874WAT     H229865   5.732   0.696   3.277
 9875WAT      O29866   0.892   6.076   6.461
 9875WAT     H129867   0.837   5.993   6.465
 9875WAT     H229868   0.895   6.110   6.367
 9876WAT      O29869   2.375   8.080   1.505
 9876WAT     H129870   2.317   8.118   1.433
 9876WAT     H229871   2.370   8.139   1.586
 9877WAT      O29872   1.868   6.406   0.076
 9877WAT     H129873   1.930   6.483   0.091
 9877WAT     H229874   1.867   6.381  -0.021
 9878WAT      O29875   8.493   5.358   5.532
 9878WAT     H129876   8.492   5.302   5.615
 9878WAT     H229877   8.429   5.435   5.543
 9879WAT      O29878   6.068   3.060   1.412
 9879WAT     H129879   6.145   3.011   1.453
 9879WAT     H229880   5.987   3.001   1.412
 9880WAT      O29881   5.846   5.107   1.469
 9880WAT     H129882   5.916   5.083   1.401
 9880WAT     H229883   5.832   5.029   1.530
 9881WAT      O29884   6.022   3.112   2.558
 9881WAT     H129885   6.007   3.055   2.477
 9881WAT     H229886   5.958   3.189   2.557
 9882WAT      O29887   9.665   3.338   4.846
 9882WAT     H129888   9.706   3.419   4.805
 9882WAT     H229889   9.714   3.256   4.816
 9883WAT      O29890   4.949   1.716   9.042
 9883WAT     H129891   4.920   1.802   8.999
 9883WAT     H229892   4.984   1.734   9.134
 9884WAT      O29893   6.801   8.857   8.275
 9884WAT     H129894   6.878   8.865   8.339
 9884WAT     H229895   6.796   8.940   8.219
 9885WAT      O29896   4.908   3.986   8.575
 9885WAT     H129897   4.896   3.889   8.555
 9885WAT     H229898   4.957   3.997   8.662
 9886WAT      O29899   4.915   6.291   4.597
 9886WAT     H129900   4.971   6.255   4.672
 9886WAT     H229901   4.834   6.234   4.585
 9887WAT      O29902   9.525   7.038   3.617
 9887WAT     H129903   9.486   7.130   3.606
 9887WAT     H229904   9.517   6.988   3.531
 9888WAT      O29905   7.881   5.651   8.668
 9888WAT     H129906   7.805   5.696   8.622
 9888WAT     H229907   7.944   5.614   8.601
 9889WAT      O29908   4.869   4.999   7.851
 9889WAT     H129909   4.865   5.098   7.835
 9889WAT     H229910   4.942   4.979   7.916
 9890WAT      O29911   7.338   3.630   1.344
 9890WAT     H129912   7.299   3.591   1.427
 9890WAT     H229913   7.438   3.633   1.351
 9891WAT      O29914   8.480   4.979   9.548
 9891WAT     H129915   8.476   4.904   9.615
 9891WAT     H229916   8.447   4.946   9.460
 9892WAT      O29917   3.829   8.901   5.132
 9892WAT     H129918   3.848   8.982   5.076
 9892WAT     H229919   3.916   8.861   5.162
 9893WAT      O29920   0.065   7.132   0.004
 9893WAT     H129921   0.119   7.051   0.023
 9893WAT     H229922   0.086   7.203   0.071
 9894WAT      O29923   6.712   7.940   0.108
 9894WAT     H129924   6.741   7.986   0.024
 9894WAT     H229925   6.668   8.006   0.168
 9895WAT      O29926   1.381   2.506   3.367
 9895WAT     H129927   1.364   2.431   3.304
 9895WAT     H229928   1.298   2.562   3.376
 9896WAT      O29929   9.886   0.105   0.074
 9896WAT     H129930   9.937   0.023   0.101
 9896WAT     H229931   9.884   0.170   0.149
 9897WAT      O29932   3.088   2.920   1.315
 9897WAT     H129933   3.149   2.844   1.291
 9897WAT     H229934   3.116   2.958   1.403
 9898WAT      O29935   3.558   9.330   5.257
 9898WAT     H129936   3.604   9.242   5.271
 9898WAT     H229937   3.585   9.367   5.168
 9899WAT      O29938   0.168   4.822   3.657
 9899WAT     H129939   0.140   4.762   3.583
 9899WAT     H229940   0.264   4.848   3.645
 9900WAT      O29941   0.997   0.349   1.688
 9900WAT     H129942   1.084   0.323   1.647
 9900WAT     H229943   1.014   0.403   1.770
 9901WAT      O29944   7.672   3.451   8.151
 9901WAT     H129945   7.759   3.461   8.102
 9901WAT     H229946   7.608   3.399   8.094
 9902WAT      O29947   9.151   0.993   5.433
 9902WAT     H129948   9.198   1.027   5.515
 9902WAT     H229949   9.070   1.048   5.415
 9903WAT      O29950   5.911   4.341   1.125
 9903WAT     H129951   5.990   4.376   1.175
 9903WAT     H229952   5.913   4.241   1.125
 9904WAT      O29953   8.794   2.942   6.455
 9904WAT     H129954   8.771   3.032   6.492
 9904WAT     H229955   8.712   2.886   6.450
 9905WAT      O29956   3.875   7.936   7.349
 9905WAT     H129957   3.907   7.893   7.434
 9905WAT     H229958   3.952   7.945   7.286
 9906WAT      O29959   5.253   2.765   8.553
 9906WAT     H129960   5.249   2.801   8.460
 9906WAT     H229961   5.235   2.838   8.618
 9907WAT      O29962   6.932   9.031   6.600
 9907WAT     H129963   7.014   8.983   6.629
 9907WAT     H229964   6.854   9.000   6.655
 9908WAT      O29965   3.603   4.236   6.254
 9908WAT     H129966   3.657   4.268   6.176
 9908WAT     H229967   3.506   4.242   6.233
 9909WAT      O29968   2.910   8.378   1.246
 9909WAT     H129969   3.006   8.355   1.266
 9909WAT     H229970   2.903   8.476   1.225
 9910WAT      O29971   7.657   6.752   0.495
 9910WAT     H129972   7.669   6.759   0.594
 9910WAT     H229973   7.743   6.776   0.449
 9911WAT      O29974   8.111   2.101   9.525
 9911WAT     H129975   8.094   2.057   9.437
 9911WAT     H229976   8.171   2.180   9.511
 9912WAT      O29977   1.470   0.106   7.129
 9912WAT     H129978   1.433   0.150   7.211
 9912WAT     H229979   1.395   0.064   7.077
 9913WAT      O29980   8.649   9.371   3.349
 9913WAT     H129981   8.740   9.372   3.308
 9913WAT     H229982   8.586   9.422   3.291
 9914WAT      O29983   1.377   9.599   7.665
 9914WAT     H129984   1.302   9.538   7.690
 9914WAT     H229985   1.346   9.694   7.668
 9915WAT      O29986   3.955   2.072   7.724
 9915WAT     H129987   3.913   2.149   7.676
 9915WAT     H229988   4.053   2.072   7.707
 9916WAT      O29989   4.467   2.158   6.218
 9916WAT     H129990   4.401   2.234   6.214
 9916WAT     H229991   4.455   2.109   6.305
 9917WAT      O29992   7.068   7.681   0.507
 9917WAT     H129993   6.972   7.699   0.532
 9917WAT     H229994   7.078   7.585   0.483
 9918WAT      O29995   0.052   9.470   4.108
 9918WAT     H129996   0.086   9.377   4.094
 9918WAT     H229997   0.013   9.477   4.200
 9919WAT      O29998   9.585   7.753   8.137
 9919WAT     H129999   9.683   7.771   8.127
 9919WAT     H230000   9.573   7.664   8.181
 9920WAT      O30001   2.398   8.601   5.702
 9920WAT     H130002   2.374   8.628   5.608
 9920WAT     H230003   2.448   8.515   5.700
 9921WAT      O30004   2.173   7.368   2.818
 9921WAT     H130005   2.243   7.322   2.763
 9921WAT     H230006   2.093   7.309   2.824
 9922WAT      O30007   9.760   5.153   4.961
 9922WAT     H130008   9.808   5.066   4.951
 9922WAT     H230009   9.779   5.211   4.882
 9923WAT      O30010   8.117   8.501   1.751
 9923WAT     H130011   8.070   8.416   1.726
 9923WAT     H230012   8.204   8.507   1.702
 9924WAT      O30013   0.341   1.440   8.747
 9924WAT     H130014   0.324   1.386   8.665
 9924WAT     H230015   0.255   1.458   8.794
 9925WAT      O30016   2.809   6.798   0.577
 9925WAT     H130017   2.837   6.810   0.672
 9925WAT     H230018   2.710   6.811   0.570
 9926WAT      O30019   9.889   9.087   7.779
 9926WAT     H130020   9.824   9.137   7.836
 9926WAT     H230021   9.850   9.074   7.687
 9927WAT      O30022   4.025   7.869   1.781
 9927WAT     H130023   3.985   7.806   1.714
 9927WAT     H230024   3.966   7.872   1.862
 9928WAT      O30025   9.853   5.821   7.968
 9928WAT     H130026   9.831   5.787   8.059
 9928WAT     H230027   9.808   5.909   7.953
 9929WAT      O30028   5.923   7.748   6.632
 9929WAT     H130029   5.924   7.780   6.538
 9929WAT     H230030   5.890   7.654   6.636
 9930WAT      O30031   2.433   4.426   1.186
 9930WAT     H130032   2.351   4.409   1.131
 9930WAT     H230033   2.415   4.399   1.281
 9931WAT      O30034   5.142   3.026   6.002
 9931WAT     H130035   5.075   3.100   5.997
 9931WAT     H230036   5.230   3.062   6.033
 9932WAT      O30037   8.873   8.897   3.600
 9932WAT     H130038   8.913   8.903   3.508
 9932WAT     H230039   8.932   8.842   3.659
 9933WAT      O30040   6.651   4.604   5.444
 9933WAT     H130041   6.610   4.562   5.363
 9933WAT     H230042   6.594   4.584   5.524
 9934WAT      O30043   3.230   3.275   6.728
 9934WAT     H130044   3.253   3.339   6.801
 9934WAT     H230045   3.266   3.184   6.749
 9935WAT      O30046   0.664   1.145   8.138
 9935WAT     H130047   0.679   1.238   8.104
 9935WAT     H230048   0.634   1.149   8.234
 9936WAT      O30049   2.238   1.935   0.334
 9936WAT     H130050   2.313   1.879   0.370
 9936WAT     H230051   2.256   1.956   0.238
 9937WAT      O30052   0.867   9.188   9.390
 9937WAT     H130053   0.880   9.106   9.445
 9937WAT     H230054   0.944   9.251   9.404
 9938WAT      O30055   8.837   8.963   5.348
 9938WAT     H130056   8.752   8.928   5.389
 9938WAT     H230057   8.895   8.886   5.321
 9939WAT      O30058   0.583   2.789   5.498
 9939WAT     H130059   0.485   2.779   5.518
 9939WAT     H230060   0.606   2.886   5.493
 9940WAT      O30061   7.749   9.270   4.103
 9940WAT     H130062   7.698   9.189   4.130
 9940WAT     H230063   7.687   9.348   4.094
 9941WAT      O30064   0.783   8.604   3.011
 9941WAT     H130065   0.837   8.534   3.060
 9941WAT     H230066   0.784   8.584   2.913
 9942WAT      O30067   8.082   1.613   0.656
 9942WAT     H130068   8.031   1.542   0.607
 9942WAT     H230069   8.017   1.673   0.704
 9943WAT      O30070   2.935   2.980   9.347
 9943WAT     H130071   2.977   3.008   9.260
 9943WAT     H230072   2.887   2.893   9.334
 9944WAT      O30073   3.670   6.576   0.994
 9944WAT     H130074   3.594   6.639   0.979
 9944WAT     H230075   3.686   6.522   0.911
 9945WAT      O30076   2.417   7.484   2.145
 9945WAT     H130077   2.479   7.438   2.081
 9945WAT     H230078   2.331   7.433   2.149
 9946WAT      O30079   6.237   9.723   1.847
 9946WAT     H130080   6.260   9.626   1.841
 9946WAT     H230081   6.320   9.777   1.833
 9947WAT      O30082   4.458   7.467   9.772
 9947WAT     H130083   4.527   7.492   9.704
 9947WAT     H230084   4.441   7.368   9.767
 9948WAT      O30085   3.946   4.608   4.973
 9948WAT     H130086   4.024   4.548   4.957
 9948WAT     H230087   3.893   4.617   4.888
 9949WAT      O30088   3.842   7.356   4.907
 9949WAT     H130089   3.892   7.273   4.881
 9949WAT     H230090   3.817   7.406   4.824
 9950WAT      O30091   6.740   3.962   2.902
 9950WAT     H130092   6.714   4.054   2.870
 9950WAT     H230093   6.838   3.958   2.916
 9951WAT      O30094   1.906   0.558   6.385
 9951WAT     H130095   1.921   0.622   6.310
 9951WAT     H230096   1.992   0.511   6.406
 9952WAT      O30097   1.437   3.047   1.175
 9952WAT     H130098   1.457   3.049   1.273
 9952WAT     H230099   1.416   2.953   1.148
 9953WAT      O30100   1.819   5.284   6.544
 9953WAT     H130101   1.871   5.316   6.464
 9953WAT     H230102   1.721   5.290   6.525
 9954WAT      O30103   4.147   6.638   5.615
 9954WAT     H130104   4.108   6.727   5.590
 9954WAT     H230105   4.205   6.649   5.695
 9955WAT      O30106   1.093   2.998   3.512
 9955WAT     H130107   1.083   2.953   3.423
 9955WAT     H230108   1.175   3.056   3.511
 9956WAT      O30109   9.137   5.993   7.150
 9956WAT     H130110   9.187   5.915   7.113
 9956WAT     H230111   9.085   6.037   7.077
 9957WAT      O30112   9.175   9.720   8.810
 9957WAT     H130113   9.194   9.624   8.834
 9957WAT     H230114   9.093   9.750   8.858
 9958WAT      O30115   8.355   1.505   1.108
 9958WAT     H130116   8.328   1.464   1.021
 9958WAT     H230117   8.310   1.594   1.118
 9959WAT      O30118   3.833   6.543   0.621
 9959WAT     H130119   3.881   6.595   0.692
 9959WAT     H230120   3.835   6.594   0.535
 9960WAT      O30121   5.321   6.511   0.253
 9960WAT     H130122   5.341   6.609   0.257
 9960WAT     H230123   5.280   6.481   0.339
 9961WAT      O30124   9.760   5.426   9.152
 9961WAT     H130125   9.713   5.341   9.177
 9961WAT     H230126   9.709   5.471   9.078
 9962WAT      O30127   6.589   0.332   9.707
 9962WAT     H130128   6.611   0.246   9.661
 9962WAT     H230129   6.613   0.325   9.804
 9963WAT      O30130   3.887   1.477   3.702
 9963WAT     H130131   3.813   1.504   3.639
 9963WAT     H230132   3.863   1.504   3.795
 9964WAT      O30133   2.900   9.431   2.181
 9964WAT     H130134   2.929   9.393   2.093
 9964WAT     H230135   2.970   9.495   2.214
 9965WAT      O30136   8.401   3.781   9.731
 9965WAT     H130137   8.325   3.717   9.726
 9965WAT     H230138   8.468   3.759   9.660
 9966WAT      O30139   3.716   5.227   9.508
 9966WAT     H130140   3.652   5.280   9.564
 9966WAT     H230141   3.774   5.290   9.455
 9967WAT      O30142   1.184   1.364   1.951
 9967WAT     H130143   1.168   1.415   1.867
 9967WAT     H230144   1.159   1.268   1.937
 9968WAT      O30145   3.795   6.825   1.052
 9968WAT     H130146   3.721   6.873   1.100
 9968WAT     H230147   3.774   6.727   1.050
 9969WAT      O30148   8.874   2.414   1.549
 9969WAT     H130149   8.860   2.436   1.646
 9969WAT     H230150   8.960   2.364   1.539
 9970WAT      O30151   9.820   0.905   4.020
 9970WAT     H130152   9.729   0.946   4.029
 9970WAT     H230153   9.812   0.814   3.980
 9971WAT      O30154   8.134   3.160   3.852
 9971WAT     H130155   8.175   3.151   3.761
 9971WAT     H230156   8.043   3.117   3.851
 9972WAT      O30157   3.811   0.011   7.220
 9972WAT     H130158   3.907   0.008   7.192
 9972WAT     H230159   3.799  -0.039   7.306
 9973WAT      O30160   7.361   1.048   3.877
 9973WAT     H130161   7.431   0.977   3.883
 9973WAT     H230162   7.300   1.042   3.957
 9974WAT      O30163   9.458   1.614   7.952
 9974WAT     H130164   9.493   1.565   7.872
 9974WAT     H230165   9.521   1.602   8.028
 9975WAT      O30166   6.834   0.157   5.407
 9975WAT     H130167   6.761   0.201   5.460
 9975WAT     H230168   6.836   0.059   5.428
 9976WAT      O30169   4.061   8.340   1.097
 9976WAT     H130170   4.029   8.383   1.182
 9976WAT     H230171   4.079   8.410   1.029
 9977WAT      O30172   1.479   2.856   9.297
 9977WAT     H130173   1.466   2.758   9.287
 9977WAT     H230174   1.556   2.885   9.239
 9978WAT      O30175   6.362   8.321   9.428
 9978WAT     H130176   6.440   8.285   9.479
 9978WAT     H230177   6.331   8.253   9.362
 9979WAT      O30178   9.231   0.099   3.670
 9979WAT     H130179   9.258   0.121   3.577
 9979WAT     H230180   9.132   0.106   3.679
 9980WAT      O30181   7.160   9.059   5.590
 9980WAT     H130182   7.238   9.000   5.613
 9980WAT     H230183   7.133   9.041   5.495
 9981WAT      O30184   5.955   4.487   4.404
 9981WAT     H130185   5.860   4.477   4.374
 9981WAT     H230186   6.007   4.535   4.333
 9982WAT      O30187   4.672   0.378   9.158
 9982WAT     H130188   4.606   0.445   9.192
 9982WAT     H230189   4.707   0.408   9.069
 9983WAT      O30190   5.254   5.033   2.861
 9983WAT     H130191   5.269   5.072   2.951
 9983WAT     H230192   5.197   5.095   2.807
 9984WAT      O30193   9.404   0.841   8.807
 9984WAT     H130194   9.337   0.902   8.850
 9984WAT     H230195   9.430   0.769   8.871
 9985WAT      O30196   2.788   3.340   4.844
 9985WAT     H130197   2.696   3.304   4.829
 9985WAT     H230198   2.815   3.398   4.768
 9986WAT      O30199   6.758   7.828   3.383
 9986WAT     H130200   6.740   7.917   3.340
 9986WAT     H230201   6.854   7.823   3.410
 9987WAT      O30202   8.489   3.090   8.600
 9987WAT     H130203   8.467   3.188   8.603
 9987WAT     H230204   8.524   3.066   8.510
 9988WAT      O30205   8.600   5.451   5.864
 9988WAT     H130206   8.581   5.494   5.776
 9988WAT     H230207   8.692   5.412   5.864
 9989WAT      O30208   8.776   5.070   1.747
 9989WAT     H130209   8.771   5.038   1.652
 9989WAT     H230210   8.805   5.165   1.748
 9990WAT      O30211   9.632   8.607   3.915
 9990WAT     H130212   9.607   8.512   3.893
 9990WAT     H230213   9.562   8.669   3.879
 9991WAT      O30214   6.649   0.036   3.709
 9991WAT     H130215   6.614  -0.027   3.640
 9991WAT     H230216   6.731  -0.002   3.750
 9992WAT      O30217   9.343   7.571   3.809
 9992WAT     H130218   9.308   7.495   3.863
 9992WAT     H230219   9.266   7.621   3.768
 9993WAT      O30220   7.100   2.724   9.023
 9993WAT     H130221   7.184   2.709   8.971
 9993WAT     H230222   7.022   2.727   8.961
 9994WAT      O30223   3.675   1.833   3.139
 9994WAT     H130224   3.677   1.743   3.095
 9994WAT     H230225   3.764   1.851   3.183
 9995WAT      O30226   2.280   8.088   2.361
 9995WAT     H130227   2.182   8.103   2.369
 9995WAT     H230228   2.312   8.036   2.440
 9996WAT      O30229   8.450   3.030   4.441
 9996WAT     H130230   8.384   3.070   4.377
 9996WAT     H230231   8.486   3.102   4.501
 9997WAT      O30232   4.934   3.202   6.047
 9997WAT     H130233   4.841   3.165   6.039
 9997WAT     H230234   4.945   3.278   5.982
 9998WAT      O30235   7.357   4.703   1.936
 9998WAT     H130236   7.347   4.769   2.011
 9998WAT     H230237   7.287   4.632   1.946
 9999WAT      O30238   3.784   7.014   9.796
 9999WAT     H130239   3.850   7.041   9.866
 9999WAT     H230240   3.749   7.096   9.751
10000WAT      O30241   8.012   6.091   8.536
10000WAT     H130242   8.001   6.049   8.626
10000WAT     H230243   8.040   6.186   8.547
10001WAT      O30244   3.317   8.308   4.361
10001WAT     H130245   3.283   8.336   4.271
10001WAT     H230246   3.297   8.379   4.428
10002WAT      O30247   4.163   6.290   0.521
10002WAT     H130248   4.230   6.363   0.520
10002WAT     H230249   4.158   6.251   0.613
10003WAT      O30250   8.428   6.969   0.964
10003WAT     H130251   8.467   7.032   0.897
10003WAT     H230252   8.328   6.978   0.964
10004WAT      O30253   4.562   3.357   0.613
10004WAT     H130254   4.584   3.300   0.534
10004WAT     H230255   4.571   3.303   0.697
10005WAT      O30256   8.355   4.074   7.418
10005WAT     H130257   8.257   4.070   7.440
10005WAT     H230258   8.380   3.993   7.365
10006WAT      O30259   2.137   0.502   1.088
10006WAT     H130260   2.135   0.546   1.178
10006WAT     H230261   2.095   0.562   1.020
10007WAT      O30262   3.673   4.107   0.060
10007WAT     H130263   3.665   4.122   0.159
10007WAT     H230264   3.685   4.009   0.043
10008WAT      O30265   0.580   7.861   4.560
10008WAT     H130266   0.547   7.766   4.563
10008WAT     H230267   0.523   7.918   4.619
10009WAT      O30268   4.624   9.079   2.247
10009WAT     H130269   4.699   9.027   2.206
10009WAT     H230270   4.659   9.164   2.285
10010WAT      O30271   9.866   2.548   6.696
10010WAT     H130272   9.962   2.570   6.683
10010WAT     H230273   9.831   2.499   6.617
10011WAT      O30274   1.116   3.824   7.805
10011WAT     H130275   1.154   3.913   7.782
10011WAT     H230276   1.017   3.832   7.816
10012WAT      O30277   6.766   4.735   1.301
10012WAT     H130278   6.830   4.780   1.239
10012WAT     H230279   6.694   4.799   1.328
10013WAT      O30280   3.394   4.425   0.323
10013WAT     H130281   3.462   4.425   0.397
10013WAT     H230282   3.409   4.504   0.265
10014WAT      O30283   3.436   8.775   7.637
10014WAT     H130284   3.483   8.860   7.662
10014WAT     H230285   3.378   8.746   7.714
10015WAT      O30286   8.767   2.913   2.707
10015WAT     H130287   8.845   2.862   2.671
10015WAT     H230288   8.798   2.977   2.777
10016WAT      O30289   2.892   7.108   1.900
10016WAT     H130290   2.955   7.109   1.822
10016WAT     H230291   2.938   7.144   1.981
10017WAT      O30292   1.529   9.764   7.918
10017WAT     H130293   1.432   9.741   7.928
10017WAT     H230294   1.544   9.807   7.829
10018WAT      O30295   2.838   2.654   3.411
10018WAT     H130296   2.910   2.614   3.468
10018WAT     H230297   2.748   2.624   3.445
10019WAT      O30298   4.325   6.255   6.864
10019WAT     H130299   4.319   6.353   6.883
10019WAT     H230300   4.391   6.239   6.791
10020WAT      O30301   0.991   2.767   5.210
10020WAT     H130302   0.919   2.836   5.216
10020WAT     H230303   1.038   2.761   5.298
10021WAT      O30304   4.478   2.476   4.679
10021WAT     H130305   4.442   2.531   4.754
10021WAT     H230306   4.535   2.533   4.620
10022WAT      O30307   7.103   4.541   2.404
10022WAT     H130308   7.006   4.551   2.425
10022WAT     H230309   7.149   4.629   2.412
10023WAT      O30310   0.351   5.009   0.359
10023WAT     H130311   0.345   4.910   0.365
10023WAT     H230312   0.404   5.035   0.278
10024WAT      O30313   7.654   0.486   6.389
10024WAT     H130314   7.657   0.456   6.294
10024WAT     H230315   7.688   0.580   6.396
10025WAT      O30316   0.263   2.249   7.415
10025WAT     H130317   0.174   2.251   7.370
10025WAT     H230318   0.292   2.342   7.437
10026WAT      O30319   3.243   2.236   3.071
10026WAT     H130320   3.187   2.183   3.007
10026WAT     H230321   3.315   2.283   3.021
10027WAT      O30322   7.059   1.542   9.658
10027WAT     H130323   7.057   1.632   9.702
10027WAT     H230324   7.132   1.541   9.589
10028WAT      O30325   6.517   7.236   7.605
10028WAT     H130326   6.582   7.297   7.651
10028WAT     H230327   6.459   7.291   7.544
10029WAT      O30328   6.122   2.236   0.956
10029WAT     H130329   6.114   2.286   0.870
10029WAT     H230330   6.112   2.300   1.033
10030WAT      O30331   3.005   8.763   0.669
10030WAT     H130332   3.068   8.730   0.599
10030WAT     H230333   2.911   8.744   0.640
10031WAT      O30334   9.362   7.321   1.482
10031WAT     H130335   9.428   7.307   1.408
10031WAT     H230336   9.314   7.235   1.500
10032WAT      O30337   8.644   5.686   7.135
10032WAT     H130338   8.636   5.647   7.044
10032WAT     H230339   8.715   5.638   7.187
10033WAT      O30340   6.366   8.198   9.750
10033WAT     H130341   6.419   8.174   9.832
10033WAT     H230342   6.312   8.280   9.768
10034WAT      O30343   8.716   8.729   5.543
10034WAT     H130344   8.811   8.705   5.562
10034WAT     H230345   8.692   8.699   5.451
10035WAT      O30346   2.363   3.028   7.588
10035WAT     H130347   2.428   3.070   7.651
10035WAT     H230348   2.313   2.955   7.636
10036WAT      O30349   9.425   2.447   9.535
10036WAT     H130350   9.486   2.512   9.580
10036WAT     H230351   9.400   2.375   9.599
10037WAT      O30352   1.892   5.420   7.787
10037WAT     H130353   1.850   5.493   7.733
10037WAT     H230354   1.878   5.332   7.741
10038WAT      O30355   5.543   0.062   4.266
10038WAT     H130356   5.622   0.001   4.257
10038WAT     H230357   5.492   0.064   4.180
10039WAT      O30358   8.763   1.771   8.295
10039WAT     H130359   8.808   1.716   8.225
10039WAT     H230360   8.695   1.830   8.252
10040WAT      O30361   5.576   4.644   6.973
10040WAT     H130362   5.537   4.694   7.051
10040WAT     H230363   5.503   4.621   6.909
10041WAT      O30364   0.536   3.567   1.340
10041WAT     H130365   0.606   3.631   1.374
10041WAT     H230366   0.568   3.473   1.352
10042WAT      O30367   8.822   0.361   1.962
10042WAT     H130368   8.905   0.408   1.931
10042WAT     H230369   8.760   0.348   1.886
10043WAT      O30370   3.596   8.304   9.686
10043WAT     H130371   3.683   8.310   9.736
10043WAT     H230372   3.563   8.210   9.688
10044WAT      O30373   7.936   4.280   9.067
10044WAT     H130374   7.916   4.326   8.981
10044WAT     H230375   7.850   4.256   9.112
10045WAT      O30376   4.170   5.323   0.496
10045WAT     H130377   4.179   5.235   0.450
10045WAT     H230378   4.096   5.318   0.564
10046WAT      O30379   0.815   3.946   9.790
10046WAT     H130380   0.760   3.978   9.867
10046WAT     H230381   0.761   3.951   9.706
10047WAT      O30382   5.887   4.981   7.518
10047WAT     H130383   5.787   4.987   7.525
10047WAT     H230384   5.916   5.016   7.429
10048WAT      O30385   6.620   6.455   7.723
10048WAT     H130386   6.570   6.495   7.800
10048WAT     H230387   6.568   6.377   7.687
10049WAT      O30388   4.472   3.071   9.192
10049WAT     H130389   4.521   3.053   9.107
10049WAT     H230390   4.521   3.139   9.246
10050WAT      O30391   3.926   3.484   9.827
10050WAT     H130392   3.860   3.479   9.902
10050WAT     H230393   3.965   3.577   9.824
10051WAT      O30394   4.859   9.578   4.793
10051WAT     H130395   4.881   9.654   4.854
10051WAT     H230396   4.944   9.533   4.765
10052WAT      O30397   6.254   5.159   1.181
10052WAT     H130398   6.224   5.253   1.196
10052WAT     H230399   6.332   5.158   1.119
10053WAT      O30400   5.570   5.581   0.784
10053WAT     H130401   5.601   5.676   0.792
10053WAT     H230402   5.615   5.526   0.854
10054WAT      O30403   8.032   3.792   0.523
10054WAT     H130404   7.955   3.842   0.483
10054WAT     H230405   8.101   3.857   0.555
10055WAT      O30406   1.388   7.616   8.113
10055WAT     H130407   1.362   7.711   8.097
10055WAT     H230408   1.324   7.575   8.179
10056WAT      O30409   6.080   0.903   0.250
10056WAT     H130410   6.046   0.972   0.314
10056WAT     H230411   6.003   0.860   0.203
10057WAT      O30412   2.031   1.477   0.941
10057WAT     H130413   2.123   1.482   0.980
10057WAT     H230414   2.037   1.450   0.845
10058WAT      O30415   6.326   3.547   6.004
10058WAT     H130416   6.233   3.572   5.979
10058WAT     H230417   6.358   3.606   6.079
10059WAT      O30418   1.073   7.240   6.348
10059WAT     H130419   0.986   7.230   6.300
10059WAT     H230420   1.134   7.165   6.324
10060WAT      O30421   0.863   1.056   4.943
10060WAT     H130422   0.807   0.974   4.932
10060WAT     H230423   0.941   1.036   5.002
10061WAT      O30424   1.867   1.393   6.869
10061WAT     H130425   1.915   1.453   6.805
10061WAT     H230426   1.921   1.309   6.882
10062WAT      O30427   6.580   8.217   4.598
10062WAT     H130428   6.513   8.272   4.547
10062WAT     H230429   6.539   8.129   4.623
10063WAT      O30430   6.933   2.729   8.804
10063WAT     H130431   6.880   2.660   8.755
10063WAT     H230432   6.995   2.775   8.741
10064WAT      O30433   5.190   4.868   7.241
10064WAT     H130434   5.122   4.882   7.169
10064WAT     H230435   5.198   4.950   7.296
10065WAT      O30436   6.833   9.445   4.659
10065WAT     H130437   6.849   9.420   4.754
10065WAT     H230438   6.899   9.514   4.631
10066WAT      O30439   5.941   1.713   1.053
10066WAT     H130440   6.008   1.785   1.074
10066WAT     H230441   5.879   1.745   0.981
10067WAT      O30442   9.100   2.302   5.445
10067WAT     H130443   9.028   2.360   5.484
10067WAT     H230444   9.068   2.208   5.439
10068WAT      O30445   8.124   2.988   4.785
10068WAT     H130446   8.215   3.009   4.820
10068WAT     H230447   8.065   3.068   4.796
10069WAT      O30448   1.685   1.945   4.795
10069WAT     H130449   1.763   2.006   4.779
10069WAT     H230450   1.675   1.883   4.717
10070WAT      O30451   1.304   2.516   5.398
10070WAT     H130452   1.334   2.465   5.478
10070WAT     H230453   1.307   2.456   5.317
10071WAT      O30454   8.609   8.000   4.062
10071WAT     H130455   8.671   7.959   4.129
10071WAT     H230456   8.537   7.935   4.039
10072WAT      O30457   9.232   3.962   7.110
10072WAT     H130458   9.187   4.049   7.127
10072WAT     H230459   9.241   3.948   7.011
10073WAT      O30460   6.393   0.882   0.651
10073WAT     H130461   6.442   0.796   0.665
10073WAT     H230462   6.297   0.864   0.631
10074WAT      O30463   1.032   0.591   8.990
10074WAT     H130464   1.095   0.652   9.040
10074WAT     H230465   1.070   0.572   8.900
10075WAT      O30466   2.006   7.455   3.764
10075WAT     H130467   1.937   7.425   3.698
10075WAT     H230468   2.080   7.388   3.767
10076WAT      O30469   9.268   5.787   7.046
10076WAT     H130470   9.316   5.819   6.964
10076WAT     H230471   9.327   5.725   7.097
10077WAT      O30472   0.175   5.505   0.383
10077WAT     H130473   0.249   5.467   0.439
10077WAT     H230474   0.164   5.449   0.301
10078WAT      O30475   4.758   6.157   3.637
10078WAT     H130476   4.824   6.082   3.639
10078WAT     H230477   4.805   6.241   3.610
10079WAT      O30478   7.294   7.086   5.090
10079WAT     H130479   7.220   7.147   5.116
10079WAT     H230480   7.333   7.116   5.002
10080WAT      O30481   5.944   5.667   0.924
10080WAT     H130482   5.973   5.688   0.830
10080WAT     H230483   6.025   5.658   0.982
10081WAT      O30484   8.388   0.396   9.609
10081WAT     H130485   8.435   0.429   9.690
10081WAT     H230486   8.443   0.416   9.528
10082WAT      O30487   8.729   3.779   4.107
10082WAT     H130488   8.647   3.777   4.164
10082WAT     H230489   8.708   3.824   4.020
10083WAT      O30490   9.778   1.827   3.926
10083WAT     H130491   9.821   1.864   4.009
10083WAT     H230492   9.845   1.775   3.874
10084WAT      O30493   5.611   1.805   0.019
10084WAT     H130494   5.514   1.825   0.035
10084WAT     H230495   5.667   1.877   0.060
10085WAT      O30496   7.732   0.726   9.168
10085WAT     H130497   7.788   0.692   9.244
10085WAT     H230498   7.783   0.718   9.083
10086WAT      O30499   2.022   2.766   3.284
10086WAT     H130500   1.995   2.680   3.328
10086WAT     H230501   2.093   2.810   3.339
10087WAT      O30502   5.131   5.532   2.404
10087WAT     H130503   5.125   5.630   2.386
10087WAT     H230504   5.056   5.485   2.358
10088WAT      O30505   3.728   1.266   3.489
10088WAT     H130506   3.737   1.322   3.407
10088WAT     H230507   3.803   1.200   3.494
10089WAT      O30508   5.092   1.875   1.969
10089WAT     H130509   5.120   1.971   1.973
10089WAT     H230510   4.995   1.867   1.990
10090WAT      O30511   6.910   7.741   2.692
10090WAT     H130512   6.839   7.709   2.630
10090WAT     H230513   6.910   7.685   2.775
10091WAT      O30514   5.889   2.053   9.476
10091WAT     H130515   5.950   2.132   9.474
10091WAT     H230516   5.838   2.052   9.562
10092WAT      O30517   7.069   2.370   8.373
10092WAT     H130518   6.991   2.336   8.425
10092WAT     H230519   7.121   2.434   8.429
10093WAT      O30520   6.207   3.729   1.336
10093WAT     H130521   6.196   3.656   1.403
10093WAT     H230522   6.260   3.694   1.258
10094WAT      O30523   8.940   6.940   3.400
10094WAT     H130524   9.023   6.887   3.384
10094WAT     H230525   8.961   7.038   3.394
10095WAT      O30526   4.941   7.907   9.143
10095WAT     H130527   5.003   7.973   9.186
10095WAT     H230528   4.929   7.828   9.203
10096WAT      O30529   6.393   5.873   9.246
10096WAT     H130530   6.415   5.781   9.276
10096WAT     H230531   6.449   5.897   9.166
10097WAT      O30532   7.533   1.018   8.235
10097WAT     H130533   7.525   0.919   8.244
10097WAT     H230534   7.556   1.041   8.141
10098WAT      O30535   7.480   5.498   0.560
10098WAT     H130536   7.473   5.479   0.658
10098WAT     H230537   7.561   5.554   0.542
10099WAT      O30538   5.929   9.020   4.701
10099WAT     H130539   5.914   8.922   4.690
10099WAT     H230540   5.963   9.039   4.793
10100WAT      O30541   9.239   2.220   0.259
10100WAT     H130542   9.189   2.181   0.337
10100WAT     H230543   9.281   2.306   0.286
10101WAT      O30544   3.576   5.009   5.965
10101WAT     H130545   3.535   5.067   5.895
10101WAT     H230546   3.511   4.939   5.993
10102WAT      O30547   3.703   1.427   1.896
10102WAT     H130548   3.630   1.421   1.964
10102WAT     H230549   3.786   1.464   1.939
10103WAT      O30550   4.851   5.947   8.669
10103WAT     H130551   4.921   5.875   8.672
10103WAT     H230552   4.760   5.905   8.667
10104WAT      O30553   3.078   9.715   2.692
10104WAT     H130554   3.110   9.673   2.607
10104WAT     H230555   3.133   9.681   2.768
10105WAT      O30556   7.957   6.235   3.798
10105WAT     H130557   8.048   6.216   3.834
10105WAT     H230558   7.899   6.154   3.809
10106WAT      O30559   0.562   6.155   3.830
10106WAT     H130560   0.482   6.215   3.818
10106WAT     H230561   0.566   6.090   3.755
10107WAT      O30562   3.614   4.177   1.043
10107WAT     H130563   3.653   4.112   1.107
10107WAT     H230564   3.525   4.144   1.011
10108WAT      O30565   3.608   9.070   1.774
10108WAT     H130566   3.528   9.011   1.773
10108WAT     H230567   3.675   9.036   1.707
10109WAT      O30568   4.584   4.801   9.196
10109WAT     H130569   4.650   4.725   9.192
10109WAT     H230570   4.529   4.801   9.113
10110WAT      O30571   3.677   5.068   2.011
10110WAT     H130572   3.612   5.128   2.058
10110WAT     H230573   3.630   4.984   1.983
10111WAT      O30574   3.879   4.312   0.092
10111WAT     H130575   3.955   4.280   0.149
10111WAT     H230576   3.802   4.248   0.101
10112WAT      O30577   0.269   4.365   8.648
10112WAT     H130578   0.218   4.449   8.629
10112WAT     H230579   0.292   4.362   8.745
10113WAT      O30580   7.981   3.579   2.596
10113WAT     H130581   7.887   3.561   2.625
10113WAT     H230582   7.981   3.640   2.517
10114WAT      O30583   7.210   3.300   8.892
10114WAT     H130584   7.192   3.204   8.910
10114WAT     H230585   7.303   3.310   8.856
10115WAT      O30586   8.362   7.864   5.703
10115WAT     H130587   8.442   7.813   5.734
10115WAT     H230588   8.372   7.887   5.607
10116WAT      O30589   4.988   4.096   2.908
10116WAT     H130590   4.918   4.165   2.891
10116WAT     H230591   4.949   4.023   2.965
10117WAT      O30592   3.046   8.056   0.923
10117WAT     H130593   3.099   8.062   1.008
10117WAT     H230594   3.102   8.088   0.847
10118WAT      O30595   0.887   6.534   8.455
10118WAT     H130596   0.837   6.609   8.413
10118WAT     H230597   0.823   6.463   8.483
10119WAT      O30598   1.761   3.973   9.027
10119WAT     H130599   1.828   4.048   9.022
10119WAT     H230600   1.692   3.986   8.956
10120WAT      O30601   3.238   9.035   2.983
10120WAT     H130602   3.299   9.114   2.974
10120WAT     H230603   3.285   8.963   3.033
10121WAT      O30604   8.185   3.161   5.329
10121WAT     H130605   8.264   3.163   5.267
10121WAT     H230606   8.214   3.192   5.420
10122WAT      O30607   8.630   4.910   9.207
10122WAT     H130608   8.620   4.859   9.121
10122WAT     H230609   8.657   4.847   9.280
10123WAT      O30610   8.370   9.681   5.157
10123WAT     H130611   8.433   9.662   5.082
10123WAT     H230612   8.422   9.711   5.237
10124WAT      O30613   1.656   6.707   1.182
10124WAT     H130614   1.684   6.795   1.143
10124WAT     H230615   1.623   6.647   1.109
10125WAT      O30616   2.500   6.165   0.929
10125WAT     H130617   2.470   6.236   0.866
10125WAT     H230618   2.563   6.103   0.882
10126WAT      O30619   6.851   7.189   5.022
10126WAT     H130620   6.824   7.103   4.979
10126WAT     H230621   6.816   7.193   5.116
10127WAT      O30622   8.264   3.874   4.493
10127WAT     H130623   8.315   3.790   4.512
10127WAT     H230624   8.328   3.949   4.476
10128WAT      O30625   0.507   6.884   2.682
10128WAT     H130626   0.425   6.830   2.702
10128WAT     H230627   0.508   6.966   2.740
10129WAT      O30628   9.825   2.440   0.301
10129WAT     H130629   9.874   2.479   0.223
10129WAT     H230630   9.727   2.452   0.287
10130WAT      O30631   0.388   3.612   0.275
10130WAT     H130632   0.452   3.687   0.254
10130WAT     H230633   0.296   3.639   0.250
10131WAT      O30634   3.162   7.679   3.394
10131WAT     H130635   3.220   7.599   3.382
10131WAT     H230636   3.129   7.684   3.488
10132WAT      O30637   3.798   7.516   2.612
10132WAT     H130638   3.867   7.533   2.682
10132WAT     H230639   3.809   7.581   2.538
10133WAT      O30640   4.715   6.061   9.029
10133WAT     H130641   4.739   6.103   9.116
10133WAT     H230642   4.695   6.132   8.962
10134WAT      O30643   0.386   8.892   6.956
10134WAT     H130644   0.447   8.822   6.992
10134WAT     H230645   0.319   8.850   6.895
10135WAT      O30646   6.579   3.872   6.594
10135WAT     H130647   6.659   3.818   6.569
10135WAT     H230648   6.527   3.824   6.665
10136WAT      O30649   4.890   6.722   4.950
10136WAT     H130650   4.810   6.692   4.899
10136WAT     H230651   4.915   6.651   5.017
10137WAT      O30652   3.946   1.565   8.714
10137WAT     H130653   3.919   1.563   8.811
10137WAT     H230654   3.883   1.623   8.663
10138WAT      O30655   6.458   0.963   5.916
10138WAT     H130656   6.493   0.974   5.823
10138WAT     H230657   6.527   0.993   5.981
10139WAT      O30658   3.620   6.976   4.265
10139WAT     H130659   3.694   6.984   4.332
10139WAT     H230660   3.623   6.885   4.224
10140WAT      O30661   4.314   1.774   0.472
10140WAT     H130662   4.265   1.795   0.557
10140WAT     H230663   4.249   1.743   0.403
10141WAT      O30664   2.033   1.064   5.360
10141WAT     H130665   2.018   0.997   5.433
10141WAT     H230666   2.128   1.095   5.362
10142WAT      O30667   7.133   0.083   4.789
10142WAT     H130668   7.038   0.074   4.759
10142WAT     H230669   7.194   0.038   4.724
10143WAT      O30670   8.779   4.531   9.869
10143WAT     H130671   8.740   4.444   9.899
10143WAT     H230672   8.705   4.595   9.849
10144WAT      O30673   2.192   5.954   1.691
10144WAT     H130674   2.288   5.966   1.668
10144WAT     H230675   2.137   6.022   1.642
10145WAT      O30676   4.114   1.684   6.728
10145WAT     H130677   4.050   1.655   6.799
10145WAT     H230678   4.073   1.670   6.638
10146WAT      O30679   7.664   4.682   9.511
10146WAT     H130680   7.705   4.692   9.420
10146WAT     H230681   7.603   4.759   9.529
10147WAT      O30682   5.848   8.275   9.427
10147WAT     H130683   5.830   8.364   9.385
10147WAT     H230684   5.817   8.277   9.522
10148WAT      O30685   5.887   3.583   1.383
10148WAT     H130686   5.888   3.629   1.472
10148WAT     H230687   5.940   3.499   1.389
10149WAT      O30688   7.183   4.483   5.818
10149WAT     H130689   7.135   4.397   5.802
10149WAT     H230690   7.219   4.484   5.911
10150WAT      O30691   6.029   5.229   8.485
10150WAT     H130692   6.128   5.221   8.492
10150WAT     H230693   5.995   5.169   8.413
10151WAT      O30694   2.446   3.310   2.271
10151WAT     H130695   2.529   3.366   2.271
10151WAT     H230696   2.412   3.300   2.364
10152WAT      O30697   0.468   9.176   5.519
10152WAT     H130698   0.393   9.219   5.568
10152WAT     H230699   0.434   9.096   5.469
10153WAT      O30700   4.214   5.349   2.629
10153WAT     H130701   4.199   5.447   2.646
10153WAT     H230702   4.262   5.309   2.707
10154WAT      O30703   2.624   0.571   7.534
10154WAT     H130704   2.641   0.533   7.443
10154WAT     H230705   2.705   0.620   7.566
10155WAT      O30706   9.848   9.382   0.475
10155WAT     H130707   9.864   9.296   0.524
10155WAT     H230708   9.761   9.420   0.504
10156WAT      O30709   3.274   7.345   1.764
10156WAT     H130710   3.332   7.318   1.688
10156WAT     H230711   3.331   7.364   1.845
10157WAT      O30712   4.366   7.785   1.301
10157WAT     H130713   4.424   7.845   1.246
10157WAT     H230714   4.392   7.690   1.285
10158WAT      O30715   8.716   8.326   3.856
10158WAT     H130716   8.756   8.298   3.769
10158WAT     H230717   8.702   8.425   3.856
10159WAT      O30718   1.330   4.931   2.653
10159WAT     H130719   1.382   4.883   2.724
10159WAT     H230720   1.240   4.889   2.645
10160WAT      O30721   5.815   7.578   8.097
10160WAT     H130722   5.825   7.479   8.094
10160WAT     H230723   5.891   7.618   8.149
10161WAT      O30724   8.191   6.144   3.906
10161WAT     H130725   8.279   6.176   3.942
10161WAT     H230726   8.158   6.068   3.962
10162WAT      O30727   4.381   3.545   3.593
10162WAT     H130728   4.424   3.599   3.665
10162WAT     H230729   4.444   3.535   3.516
10163WAT      O30730   7.663   7.611   3.282
10163WAT     H130731   7.630   7.553   3.357
10163WAT     H230732   7.621   7.701   3.288
10164WAT      O30733   5.798   8.444   4.352
10164WAT     H130734   5.871   8.376   4.341
10164WAT     H230735   5.834   8.535   4.332
10165WAT      O30736   0.406   4.802   8.805
10165WAT     H130737   0.332   4.758   8.855
10165WAT     H230738   0.490   4.795   8.859
10166WAT      O30739   0.270   1.453   2.054
10166WAT     H130740   0.370   1.453   2.044
10166WAT     H230741   0.244   1.514   2.129
10167WAT      O30742   4.603   7.615   9.576
10167WAT     H130743   4.545   7.695   9.594
10167WAT     H230744   4.684   7.620   9.634
10168WAT      O30745   4.287   4.310   7.227
10168WAT     H130746   4.269   4.357   7.141
10168WAT     H230747   4.245   4.361   7.302
10169WAT      O30748   5.030   6.561   8.407
10169WAT     H130749   5.026   6.467   8.373
10169WAT     H230750   5.031   6.624   8.330
10170WAT      O30751   3.803   4.587   7.442
10170WAT     H130752   3.786   4.654   7.370
10170WAT     H230753   3.727   4.589   7.507
10171WAT      O30754   3.198   1.592   9.423
10171WAT     H130755   3.109   1.554   9.399
10171WAT     H230756   3.216   1.576   9.520
10172WAT      O30757   7.212   7.918   4.467
10172WAT     H130758   7.209   7.993   4.402
10172WAT     H230759   7.256   7.839   4.425
10173WAT      O30760   9.498   1.226   3.877
10173WAT     H130761   9.462   1.134   3.895
10173WAT     H230762   9.590   1.233   3.915
10174WAT      O30763   3.479   3.144   7.268
10174WAT     H130764   3.539   3.106   7.339
10174WAT     H230765   3.483   3.243   7.271
10175WAT      O30766   1.170   8.143   0.106
10175WAT     H130767   1.106   8.202   0.057
10175WAT     H230768   1.139   8.131   0.201
10176WAT      O30769   6.678   1.433   2.466
10176WAT     H130770   6.684   1.342   2.507
10176WAT     H230771   6.591   1.441   2.417
10177WAT      O30772   7.584   9.233   1.388
10177WAT     H130773   7.534   9.165   1.441
10177WAT     H230774   7.524   9.272   1.318
10178WAT      O30775   7.660   0.631   2.207
10178WAT     H130776   7.666   0.721   2.163
10178WAT     H230777   7.586   0.632   2.275
10179WAT      O30778   1.234   7.815   0.818
10179WAT     H130779   1.192   7.740   0.768
10179WAT     H230780   1.174   7.844   0.892
10180WAT      O30781   0.956   0.762   5.387
10180WAT     H130782   0.891   0.824   5.431
10180WAT     H230783   0.909   0.711   5.315
10181WAT      O30784   0.337   0.018   5.256
10181WAT     H130785   0.239   0.005   5.271
10181WAT     H230786   0.374  -0.063   5.211
10182WAT      O30787   0.287   4.701   4.732
10182WAT     H130788   0.285   4.801   4.741
10182WAT     H230789   0.211   4.662   4.784
10183WAT      O30790   9.693   2.136   5.020
10183WAT     H130791   9.648   2.049   5.036
10183WAT     H230792   9.722   2.176   5.107
10184WAT      O30793   1.959   3.686   7.298
10184WAT     H130794   1.931   3.590   7.293
10184WAT     H230795   2.037   3.700   7.238
10185WAT      O30796   6.201   3.435   7.007
10185WAT     H130797   6.140   3.435   7.086
10185WAT     H230798   6.260   3.354   7.011
10186WAT      O30799   9.139   0.911   2.198
10186WAT     H130800   9.154   0.931   2.295
10186WAT     H230801   9.195   0.832   2.171
10187WAT      O30802   9.116   6.575   7.817
10187WAT     H130803   9.036   6.632   7.797
10187WAT     H230804   9.181   6.580   7.741
10188WAT      O30805   4.600   3.664   9.742
10188WAT     H130806   4.661   3.740   9.763
10188WAT     H230807   4.574   3.667   9.645
10189WAT      O30808   5.813   8.560   0.295
10189WAT     H130809   5.765   8.645   0.273
10189WAT     H230810   5.777   8.523   0.381
10190WAT      O30811   1.743   4.931   1.969
10190WAT     H130812   1.755   4.985   1.885
10190WAT     H230813   1.816   4.955   2.034
10191WAT      O30814   1.714   0.444   1.970
10191WAT     H130815   1.788   0.425   1.905
10191WAT     H230816   1.657   0.363   1.980
10192WAT      O30817   3.592   1.892   7.571
10192WAT     H130818   3.645   1.899   7.656
10192WAT     H230819   3.514   1.832   7.587
10193WAT      O30820   2.689   2.197   4.940
10193WAT     H130821   2.778   2.153   4.929
10193WAT     H230822   2.654   2.225   4.851
10194WAT      O30823   3.948   2.375   6.160
10194WAT     H130824   3.947   2.393   6.061
10194WAT     H230825   3.882   2.434   6.206
10195WAT      O30826   8.249   1.545   1.411
10195WAT     H130827   8.326   1.547   1.347
10195WAT     H230828   8.163   1.553   1.360
10196WAT      O30829   7.477   6.045   8.843
10196WAT     H130830   7.478   5.962   8.788
10196WAT     H230831   7.450   6.024   8.937
10197WAT      O30832   8.213   1.715   8.041
10197WAT     H130833   8.282   1.777   8.078
10197WAT     H230834   8.127   1.728   8.091
10198WAT      O30835   7.400   1.606   1.324
10198WAT     H130836   7.483   1.607   1.269
10198WAT     H230837   7.326   1.564   1.272
10199WAT      O30838   5.804   8.845   0.142
10199WAT     H130839   5.723   8.793   0.114
10199WAT     H230840   5.886   8.790   0.124
10200WAT      O30841   1.461   5.968   3.930
10200WAT     H130842   1.456   5.874   3.962
10200WAT     H230843   1.513   5.972   3.844
10201WAT      O30844   5.398   6.285   2.734
10201WAT     H130845   5.416   6.380   2.706
10201WAT     H230846   5.447   6.223   2.672
10202WAT      O30847   6.028   2.568   8.566
10202WAT     H130848   5.989   2.622   8.491
10202WAT     H230849   6.033   2.472   8.538
10203WAT      O30850   6.034   8.504   6.892
10203WAT     H130851   5.989   8.593   6.902
10203WAT     H230852   6.084   8.484   6.976
10204WAT      O30853   5.666   7.047   0.584
10204WAT     H130854   5.665   7.004   0.494
10204WAT     H230855   5.594   7.006   0.641
10205WAT      O30856   2.335   9.340   5.557
10205WAT     H130857   2.272   9.352   5.480
10205WAT     H230858   2.407   9.409   5.552
10206WAT      O30859   8.409   7.691   5.373
10206WAT     H130860   8.345   7.666   5.446
10206WAT     H230861   8.503   7.687   5.408
10207WAT      O30862   2.399   4.929   2.645
10207WAT     H130863   2.453   4.846   2.627
10207WAT     H230864   2.304   4.903   2.662
10208WAT      O30865   7.762   1.200   6.532
10208WAT     H130866   7.844   1.143   6.531
10208WAT     H230867   7.725   1.202   6.625
10209WAT      O30868   4.702   4.249   0.145
10209WAT     H130869   4.748   4.324   0.097
10209WAT     H230870   4.742   4.162   0.116
10210WAT      O30871   1.916   5.618   4.124
10210WAT     H130872   1.887   5.549   4.190
10210WAT     H230873   1.839   5.643   4.066
10211WAT      O30874   4.177   9.700   7.852
10211WAT     H130875   4.085   9.673   7.882
10211WAT     H230876   4.173   9.791   7.811
10212WAT      O30877   1.974   5.013   6.101
10212WAT     H130878   2.047   5.062   6.147
10212WAT     H230879   1.922   4.959   6.167
10213WAT      O30880   0.489   1.327   3.288
10213WAT     H130881   0.502   1.395   3.360
10213WAT     H230882   0.559   1.256   3.298
10214WAT      O30883   0.322   9.547   6.212
10214WAT     H130884   0.329   9.536   6.311
10214WAT     H230885   0.331   9.644   6.189
10215WAT      O30886   0.317   2.816   9.738
10215WAT     H130887   0.294   2.752   9.812
10215WAT     H230888   0.232   2.855   9.701
10216WAT      O30889   2.894   7.081   8.857
10216WAT     H130890   2.878   7.061   8.760
10216WAT     H230891   2.812   7.059   8.909
10217WAT      O30892   9.530   3.962   1.420
10217WAT     H130893   9.483   4.036   1.469
10217WAT     H230894   9.600   3.922   1.479
10218WAT      O30895   5.937   7.539   7.357
10218WAT     H130896   5.967   7.529   7.452
10218WAT     H230897   5.930   7.637   7.335
10219WAT      O30898   9.748   2.003   2.701
10219WAT     H130899   9.801   1.964   2.625
10219WAT     H230900   9.802   1.998   2.784
10220WAT      O30901   7.863   6.330   6.179
10220WAT     H130902   7.774   6.313   6.221
10220WAT     H230903   7.908   6.404   6.228
10221WAT      O30904   5.833   4.210   4.826
10221WAT     H130905   5.894   4.289   4.829
10221WAT     H230906   5.830   4.174   4.733
10222WAT      O30907   4.854   7.048   2.312
10222WAT     H130908   4.886   6.966   2.263
10222WAT     H230909   4.889   7.130   2.265
10223WAT      O30910   3.871   2.479   5.107
10223WAT     H130911   3.950   2.530   5.140
10223WAT     H230912   3.807   2.541   5.063
10224WAT      O30913   7.727   7.372   6.538
10224WAT     H130914   7.680   7.341   6.456
10224WAT     H230915   7.811   7.420   6.512
10225WAT      O30916   7.346   0.004   1.453
10225WAT     H130917   7.365   0.014   1.551
10225WAT     H230918   7.392   0.077   1.402
10226WAT      O30919   9.129   4.002   3.377
10226WAT     H130920   9.223   3.999   3.342
10226WAT     H230921   9.081   3.918   3.350
10227WAT      O30922   9.542   1.453   0.835
10227WAT     H130923   9.491   1.396   0.899
10227WAT     H230924   9.479   1.504   0.777
10228WAT      O30925   9.035   8.974   2.113
10228WAT     H130926   9.036   8.874   2.117
10228WAT     H230927   9.128   9.007   2.096
10229WAT      O30928   1.295   6.218   4.341
10229WAT     H130929   1.317   6.131   4.385
10229WAT     H230930   1.197   6.236   4.350
10230WAT      O30931   5.800   2.760   1.164
10230WAT     H130932   5.873   2.700   1.130
10230WAT     H230933   5.712   2.714   1.155
10231WAT      O30934   3.285   3.641   9.020
10231WAT     H130935   3.305   3.590   9.103
10231WAT     H230936   3.271   3.578   8.944
10232WAT      O30937   9.822   0.795   3.365
10232WAT     H130938   9.868   0.858   3.302
10232WAT     H230939   9.817   0.837   3.456
10233WAT      O30940   0.113   3.416   3.495
10233WAT     H130941   0.199   3.364   3.498
10233WAT     H230942   0.040   3.357   3.459
10234WAT      O30943   3.030   2.580   9.434
10234WAT     H130944   2.995   2.550   9.522
10234WAT     H230945   3.070   2.502   9.385
10235WAT      O30946   8.387   9.495   8.996
10235WAT     H130947   8.320   9.515   9.067
10235WAT     H230948   8.427   9.405   9.013
10236WAT      O30949   9.816   8.098   2.100
10236WAT     H130950   9.861   8.009   2.092
10236WAT     H230951   9.879   8.170   2.073
10237WAT      O30952   6.782   5.103   8.809
10237WAT     H130953   6.709   5.081   8.873
10237WAT     H230954   6.815   5.018   8.767
10238WAT      O30955   8.637   3.729   6.021
10238WAT     H130956   8.561   3.749   5.959
10238WAT     H230957   8.663   3.633   6.013
10239WAT      O30958   1.332   3.160   3.501
10239WAT     H130959   1.283   3.241   3.533
10239WAT     H230960   1.429   3.182   3.492
10240WAT      O30961   6.730   3.973   2.563
10240WAT     H130962   6.719   4.004   2.657
10240WAT     H230963   6.653   4.005   2.508
10241WAT      O30964   4.606   9.462   5.139
10241WAT     H130965   4.590   9.469   5.238
10241WAT     H230966   4.568   9.542   5.094
10242WAT      O30967   7.570   7.558   6.685
10242WAT     H130968   7.473   7.546   6.663
10242WAT     H230969   7.626   7.504   6.622
10243WAT      O30970   3.209   7.994   7.753
10243WAT     H130971   3.201   7.922   7.684
10243WAT     H230972   3.181   8.081   7.713
10244WAT      O30973   6.762   5.873   3.099
10244WAT     H130974   6.808   5.784   3.089
10244WAT     H230975   6.807   5.940   3.040
10245WAT      O30976   2.855   1.621   2.322
10245WAT     H130977   2.927   1.554   2.335
10245WAT     H230978   2.787   1.586   2.258
10246WAT      O30979   0.788   6.809   4.290
10246WAT     H130980   0.742   6.865   4.360
10246WAT     H230981   0.769   6.713   4.307
10247WAT      O30982   7.948   7.302   9.890
10247WAT     H130983   7.938   7.262   9.799
10247WAT     H230984   7.873   7.270   9.949
10248WAT      O30985   4.524   4.533   7.044
10248WAT     H130986   4.582   4.563   7.120
10248WAT     H230987   4.566   4.455   6.999
10249WAT      O30988   0.178   4.882   8.617
10249WAT     H130989   0.264   4.854   8.659
10249WAT     H230990   0.102   4.843   8.668
10250WAT      O30991   3.640   7.517   9.191
10250WAT     H130992   3.550   7.495   9.228
10250WAT     H230993   3.636   7.602   9.139
10251WAT      O30994   6.291   4.684   6.431
10251WAT     H130995   6.336   4.728   6.509
10251WAT     H230996   6.333   4.594   6.416
10252WAT      O30997   2.164   3.057   2.032
10252WAT     H130998   2.241   3.056   2.096
10252WAT     H230999   2.125   3.149   2.028
10253WAT      O31000   4.072   1.243   2.523
10253WAT     H131001   4.051   1.284   2.612
10253WAT     H231002   4.163   1.271   2.493
10254WAT      O31003   1.586   3.810   4.150
10254WAT     H131004   1.581   3.879   4.223
10254WAT     H231005   1.546   3.847   4.067
10255WAT      O31006   4.367   1.033   1.518
10255WAT     H131007   4.374   1.096   1.441
10255WAT     H231008   4.390   1.082   1.603
10256WAT      O31009   0.252   4.757   0.040
10256WAT     H131010   0.164   4.763   0.087
10256WAT     H231011   0.250   4.815  -0.042
10257WAT      O31012   1.637   9.700   0.115
10257WAT     H131013   1.588   9.677   0.030
10257WAT     H231014   1.694   9.623   0.142
10258WAT      O31015   6.781   1.906   8.535
10258WAT     H131016   6.814   1.823   8.488
10258WAT     H231017   6.852   1.939   8.597
10259WAT      O31018   5.605   5.836   3.124
10259WAT     H131019   5.616   5.906   3.054
10259WAT     H231020   5.666   5.759   3.103
10260WAT      O31021   7.528   9.590   1.685
10260WAT     H131022   7.561   9.503   1.648
10260WAT     H231023   7.603   9.656   1.688
10261WAT      O31024   1.333   6.193   4.027
10261WAT     H131025   1.369   6.105   3.998
10261WAT     H231026   1.382   6.267   3.981
10262WAT      O31027   3.949   2.280   8.899
10262WAT     H131028   4.027   2.221   8.919
10262WAT     H231029   3.894   2.292   8.981
10263WAT      O31030   2.881   8.425   3.402
10263WAT     H131031   2.817   8.445   3.328
10263WAT     H231032   2.867   8.331   3.433
10264WAT      O31033   2.736   9.023   4.314
10264WAT     H131034   2.724   9.114   4.273
10264WAT     H231035   2.782   8.963   4.249
10265WAT      O31036   5.894   6.792   7.567
10265WAT     H131037   5.958   6.838   7.628
10265WAT     H231038   5.894   6.838   7.478
10266WAT      O31039   3.829   9.694   3.045
10266WAT     H131040   3.773   9.759   3.095
10266WAT     H231041   3.925   9.716   3.058
10267WAT      O31042   2.363   0.068   7.573
10267WAT     H131043   2.454   0.100   7.551
10267WAT     H231044   2.364  -0.031   7.583
10268WAT      O31045   6.034   2.127   5.793
10268WAT     H131046   6.133   2.132   5.803
10268WAT     H231047   6.004   2.192   5.722
10269WAT      O31048   6.991   1.908   1.568
10269WAT     H131049   7.082   1.942   1.547
10269WAT     H231050   6.926   1.984   1.567
10270WAT      O31051   5.919   2.674   1.871
10270WAT     H131052   5.928   2.580   1.836
10270WAT     H231053   5.948   2.738   1.801
10271WAT      O31054   6.565   9.630   8.942
10271WAT     H131055   6.614   9.575   8.874
10271WAT     H231056   6.631   9.678   9.000
10272WAT      O31057   6.556   6.566   6.913
10272WAT     H131058   6.475   6.561   6.971
10272WAT     H231059   6.571   6.478   6.868
10273WAT      O31060   5.727   0.806   4.149
10273WAT     H131061   5.805   0.847   4.195
10273WAT     H231062   5.654   0.788   4.215
10274WAT      O31063   5.012   3.809   3.730
10274WAT     H131064   5.080   3.768   3.670
10274WAT     H231065   5.058   3.870   3.795
10275WAT      O31066   0.420   7.789   0.635
10275WAT     H131067   0.342   7.845   0.606
10275WAT     H231068   0.470   7.837   0.707
10276WAT      O31069   8.335   4.025   1.935
10276WAT     H131070   8.369   3.968   2.009
10276WAT     H231071   8.260   4.082   1.968
10277WAT      O31072   2.610   1.298   8.275
10277WAT     H131073   2.571   1.263   8.189
10277WAT     H231074   2.605   1.227   8.345
10278WAT      O31075   4.912   5.631   0.226
10278WAT     H131076   4.903   5.701   0.155
10278WAT     H231077   5.002   5.638   0.269
10279WAT      O31078   9.562   1.986   0.069
10279WAT     H131079   9.513   1.993   0.155
10279WAT     H231080   9.570   1.890   0.043
10280WAT      O31081   1.063   0.535   6.907
10280WAT     H131082   1.079   0.510   7.003
10280WAT     H231083   1.151   0.556   6.864
10281WAT      O31084   8.007   3.912   6.788
10281WAT     H131085   8.096   3.906   6.833
10281WAT     H231086   7.999   3.839   6.720
10282WAT      O31087   5.612   4.744   4.299
10282WAT     H131088   5.522   4.720   4.335
10282WAT     H231089   5.600   4.802   4.218
10283WAT      O31090   2.190   3.090   8.475
10283WAT     H131091   2.178   3.147   8.556
10283WAT     H231092   2.254   3.016   8.494
10284WAT      O31093   2.787   0.266   9.605
10284WAT     H131094   2.717   0.326   9.568
10284WAT     H231095   2.763   0.170   9.586
10285WAT      O31096   3.252   5.265   0.964
10285WAT     H131097   3.334   5.221   1.001
10285WAT     H231098   3.175   5.202   0.970
10286WAT      O31099   2.212   3.346   4.890
10286WAT     H131100   2.264   3.360   4.974
10286WAT     H231101   2.249   3.403   4.818
10287WAT      O31102   5.683   6.541   7.351
10287WAT     H131103   5.732   6.618   7.309
10287WAT     H231104   5.740   6.459   7.345
10288WAT      O31105   6.475   7.155   9.020
10288WAT     H131106   6.558   7.196   9.058
10288WAT     H231107   6.494   7.063   8.989
10289WAT      O31108   2.047   1.743   5.326
10289WAT     H131109   2.129   1.724   5.273
10289WAT     H231110   1.976   1.781   5.266
10290WAT      O31111   1.157   0.914   0.106
10290WAT     H131112   1.203   0.923   0.194
10290WAT     H231113   1.099   0.832   0.106
10291WAT      O31114   5.958   7.788   7.156
10291WAT     H131115   6.027   7.753   7.092
10291WAT     H231116   5.971   7.886   7.168
10292WAT      O31117   7.211   4.902   4.459
10292WAT     H131118   7.253   4.977   4.407
10292WAT     H231119   7.139   4.860   4.404
10293WAT      O31120   0.286   1.008   8.855
10293WAT     H131121   0.375   1.050   8.837
10293WAT     H231122   0.224   1.076   8.893
10294WAT      O31123   3.772   6.716   6.684
10294WAT     H131124   3.855   6.683   6.729
10294WAT     H231125   3.796   6.761   6.598
10295WAT      O31126   5.537   1.029   1.694
10295WAT     H131127   5.524   1.078   1.608
10295WAT     H231128   5.458   0.971   1.711
10296WAT      O31129   2.119   1.154   6.771
10296WAT     H131130   2.202   1.193   6.733
10296WAT     H231131   2.129   1.145   6.871
10297WAT      O31132   5.127   7.168   4.339
10297WAT     H131133   5.187   7.222   4.280
10297WAT     H231134   5.177   7.089   4.374
10298WAT      O31135   9.721   4.849   7.540
10298WAT     H131136   9.652   4.920   7.556
10298WAT     H231137   9.774   4.836   7.624
10299WAT      O31138   2.534   3.448   8.744
10299WAT     H131139   2.447   3.493   8.728
10299WAT     H231140   2.590   3.505   8.804
10300WAT      O31141   5.842   4.490   0.389
10300WAT     H131142   5.881   4.549   0.460
10300WAT     H231143   5.861   4.530   0.299
10301WAT      O31144   4.209   5.127   6.010
10301WAT     H131145   4.161   5.184   6.077
10301WAT     H231146   4.210   5.032   6.042
10302WAT      O31147   4.732   9.175   6.170
10302WAT     H131148   4.746   9.125   6.256
10302WAT     H231149   4.638   9.209   6.167
10303WAT      O31150   2.533   5.134   0.404
10303WAT     H131151   2.513   5.229   0.382
10303WAT     H231152   2.627   5.126   0.435
10304WAT      O31153   3.503   0.624   5.998
10304WAT     H131154   3.415   0.587   6.027
10304WAT     H231155   3.517   0.714   6.040
10305WAT      O31156   8.142   1.532   9.674
10305WAT     H131157   8.104   1.526   9.766
10305WAT     H231158   8.206   1.609   9.669
10306WAT      O31159   3.745   4.576   0.163
10306WAT     H131160   3.778   4.543   0.075
10306WAT     H231161   3.821   4.575   0.229
10307WAT      O31162   7.847   1.435   3.455
10307WAT     H131163   7.852   1.352   3.400
10307WAT     H231164   7.904   1.424   3.537
10308WAT      O31165   3.354   0.281   1.330
10308WAT     H131166   3.270   0.246   1.286
10308WAT     H231167   3.341   0.284   1.429
10309WAT      O31168   3.945   7.725   6.144
10309WAT     H131169   4.005   7.782   6.200
10309WAT     H231170   3.987   7.712   6.054
10310WAT      O31171   0.607   1.068   3.373
10310WAT     H131172   0.516   1.026   3.379
10310WAT     H231173   0.628   1.115   3.459
10311WAT      O31174   5.621   4.106   5.240
10311WAT     H131175   5.702   4.118   5.183
10311WAT     H231176   5.549   4.170   5.210
10312WAT      O31177   0.589   7.229   4.116
10312WAT     H131178   0.644   7.189   4.189
10312WAT     H231179   0.604   7.177   4.031
10313WAT      O31180   4.135   7.114   7.375
10313WAT     H131181   4.211   7.055   7.348
10313WAT     H231182   4.166   7.210   7.374
10314WAT      O31183   3.918   5.396   1.212
10314WAT     H131184   3.892   5.402   1.116
10314WAT     H231185   3.903   5.302   1.244
10315WAT      O31186   2.102   2.325   6.185
10315WAT     H131187   2.145   2.415   6.180
10315WAT     H231188   2.024   2.329   6.248
10316WAT      O31189   8.913   9.400   3.731
10316WAT     H131190   8.902   9.357   3.821
10316WAT     H231191   8.889   9.334   3.660
10317WAT      O31192   5.958   9.628   1.491
10317WAT     H131193   5.990   9.721   1.476
10317WAT     H231194   5.868   9.631   1.535
10318WAT      O31195   5.559   6.643   8.826
10318WAT     H131196   5.518   6.726   8.866
10318WAT     H231197   5.502   6.564   8.847
10319WAT      O31198   6.861   8.592   3.109
10319WAT     H131199   6.771   8.619   3.075
10319WAT     H231200   6.856   8.577   3.208
10320WAT      O31201   9.381   8.838   2.018
10320WAT     H131202   9.337   8.915   1.972
10320WAT     H231203   9.443   8.791   1.954
10321WAT      O31204   5.936   2.775   0.232
10321WAT     H131205   6.009   2.737   0.175
10321WAT     H231206   5.854   2.719   0.221
10322WAT      O31207   5.005   7.854   5.049
10322WAT     H131208   5.034   7.937   5.002
10322WAT     H231209   4.909   7.863   5.077
10323WAT      O31210   0.299   4.921   1.040
10323WAT     H131211   0.376   4.959   0.989
10323WAT     H231212   0.223   4.986   1.037
10324WAT      O31213   8.053   7.158   6.644
10324WAT     H131214   8.054   7.100   6.563
10324WAT     H231215   7.992   7.118   6.713
10325WAT      O31216   2.418   6.360   2.201
10325WAT     H131217   2.509   6.394   2.179
10325WAT     H231218   2.365   6.433   2.244
10326WAT      O31219   7.074   0.666   7.809
10326WAT     H131220   7.110   0.717   7.888
10326WAT     H231221   7.113   0.574   7.809
10327WAT      O31222   8.117   3.248   7.656
10327WAT     H131223   8.021   3.223   7.668
10327WAT     H231224   8.136   3.333   7.704
10328WAT      O31225   5.556   0.783   5.530
10328WAT     H131226   5.470   0.808   5.575
10328WAT     H231227   5.633   0.814   5.586
10329WAT      O31228   2.042   3.135   5.457
10329WAT     H131229   2.057   3.036   5.457
10329WAT     H231230   2.113   3.180   5.403
10330WAT      O31231   4.015   0.628   1.027
10330WAT     H131232   4.082   0.595   1.094
10330WAT     H231233   3.933   0.570   1.031
10331WAT      O31234   2.763   7.789   7.704
10331WAT     H131235   2.775   7.839   7.618
10331WAT     H231236   2.668   7.800   7.735
10332WAT      O31237   3.729   1.632   6.281
10332WAT     H131238   3.733   1.690   6.363
10332WAT     H231239   3.820   1.594   6.263
10333WAT      O31240   4.078   8.804   5.167
10333WAT     H131241   4.074   8.711   5.203
10333WAT     H231242   4.140   8.808   5.090
10334WAT      O31243   2.903   5.738   7.205
10334WAT     H131244   2.917   5.661   7.143
10334WAT     H231245   2.882   5.820   7.152
10335WAT      O31246   6.311   8.667   7.721
10335WAT     H131247   6.361   8.735   7.668
10335WAT     H231248   6.284   8.707   7.809
10336WAT      O31249   2.794   3.642   9.768
10336WAT     H131250   2.762   3.550   9.788
10336WAT     H231251   2.885   3.656   9.806
10337WAT      O31252   2.251   2.022   9.042
10337WAT     H131253   2.306   1.968   8.978
10337WAT     H231254   2.231   2.112   9.002
10338WAT      O31255   3.780   1.876   1.157
10338WAT     H131256   3.820   1.965   1.180
10338WAT     H231257   3.835   1.831   1.088
10339WAT      O31258   2.002   7.746   1.421
10339WAT     H131259   1.928   7.779   1.362
10339WAT     H231260   2.087   7.792   1.398
10340WAT      O31261   7.106   9.274   5.151
10340WAT     H131262   7.142   9.191   5.106
10340WAT     H231263   7.147   9.355   5.109
10341WAT      O31264   4.136   6.094   5.825
10341WAT     H131265   4.114   6.002   5.790
10341WAT     H231266   4.053   6.137   5.859
10342WAT      O31267   7.620   3.772   0.525
10342WAT     H131268   7.706   3.772   0.473
10342WAT     H231269   7.634   3.725   0.612
10343WAT      O31270   0.239   1.180   2.009
10343WAT     H131271   0.251   1.279   2.011
10343WAT     H231272   0.161   1.155   2.067
10344WAT      O31273   1.755   2.372   0.883
10344WAT     H131274   1.729   2.462   0.918
10344WAT     H231275   1.851   2.354   0.904
10345WAT      O31276   0.358   9.185   4.788
10345WAT     H131277   0.258   9.181   4.795
10345WAT     H231278   0.389   9.278   4.804
10346WAT      O31279   7.000   1.741   7.297
10346WAT     H131280   6.927   1.681   7.329
10346WAT     H231281   7.045   1.783   7.375
10347WAT      O31282   7.552   9.191   2.533
10347WAT     H131283   7.644   9.226   2.520
10347WAT     H231284   7.507   9.241   2.607
10348WAT      O31285   1.078   4.619   0.218
10348WAT     H131286   1.137   4.673   0.157
10348WAT     H231287   1.022   4.681   0.273
10349WAT      O31288   3.481   5.159   3.274
10349WAT     H131289   3.428   5.140   3.357
10349WAT     H231290   3.575   5.126   3.286
10350WAT      O31291   8.503   7.279   1.073
10350WAT     H131292   8.482   7.203   1.135
10350WAT     H231293   8.594   7.315   1.095
10351WAT      O31294   4.561   8.401   7.427
10351WAT     H131295   4.478   8.453   7.446
10351WAT     H231296   4.579   8.338   7.503
10352WAT      O31297   0.635   5.340   0.726
10352WAT     H131298   0.628   5.264   0.662
10352WAT     H231299   0.722   5.333   0.776
10353WAT      O31300   2.570   9.138   5.241
10353WAT     H131301   2.653   9.089   5.269
10353WAT     H231302   2.590   9.192   5.159
10354WAT      O31303   4.956   7.097   3.967
10354WAT     H131304   4.869   7.081   4.013
10354WAT     H231305   4.961   7.042   3.883
10355WAT      O31306   6.495   6.052   0.351
10355WAT     H131307   6.588   6.073   0.321
10355WAT     H231308   6.464   6.122   0.415
10356WAT      O31309   2.286   2.836   9.520
10356WAT     H131310   2.213   2.842   9.451
10356WAT     H231311   2.291   2.922   9.570
10357WAT      O31312   1.246   5.624   4.474
10357WAT     H131313   1.313   5.622   4.548
10357WAT     H231314   1.158   5.590   4.507
10358WAT      O31315   4.307   9.302   2.469
10358WAT     H131316   4.329   9.205   2.462
10358WAT     H231317   4.369   9.346   2.533
10359WAT      O31318   0.412   1.734   9.674
10359WAT     H131319   0.364   1.740   9.587
10359WAT     H231320   0.369   1.795   9.740
10360WAT      O31321   5.499   9.470   2.612
10360WAT     H131322   5.541   9.487   2.701
10360WAT     H231323   5.497   9.556   2.560
10361WAT      O31324   0.009   8.995   0.806
10361WAT     H131325   0.071   8.945   0.746
10361WAT     H231326   0.058   9.022   0.889
10362WAT      O31327   7.859   0.789   0.023
10362WAT     H131328   7.919   0.869   0.028
10362WAT     H231329   7.907   0.709   0.059
10363WAT      O31330   7.608   4.040   1.748
10363WAT     H131331   7.539   4.028   1.677
10363WAT     H231332   7.668   3.960   1.750
10364WAT      O31333   3.305   4.216   2.376
10364WAT     H131334   3.301   4.155   2.297
10364WAT     H231335   3.224   4.202   2.432
10365WAT      O31336   8.148   1.915   1.541
10365WAT     H131337   8.110   1.904   1.633
10365WAT     H231338   8.229   1.858   1.531
10366WAT      O31339   5.497   2.464   4.641
10366WAT     H131340   5.418   2.408   4.668
10366WAT     H231341   5.556   2.478   4.719
10367WAT      O31342   9.857   7.383   4.104
10367WAT     H131343   9.803   7.320   4.047
10367WAT     H231344   9.819   7.386   4.196
10368WAT      O31345   7.250   8.557   2.998
10368WAT     H131346   7.161   8.510   2.995
10368WAT     H231347   7.262   8.597   3.089
10369WAT      O31348   0.686   9.195   4.120
10369WAT     H131349   0.687   9.115   4.179
10369WAT     H231350   0.601   9.246   4.133
10370WAT      O31351   3.121   7.383   3.573
10370WAT     H131352   3.150   7.382   3.477
10370WAT     H231353   3.099   7.290   3.602
10371WAT      O31354   4.703   9.029   6.407
10371WAT     H131355   4.619   9.059   6.453
10371WAT     H231356   4.780   9.035   6.470
10372WAT      O31357   1.944   3.620   5.971
10372WAT     H131358   1.856   3.576   5.950
10372WAT     H231359   1.984   3.657   5.887
10373WAT      O31360   2.496   0.284   8.320
10373WAT     H131361   2.402   0.271   8.289
10373WAT     H231362   2.549   0.201   8.303
10374WAT      O31363   1.721   4.866   8.318
10374WAT     H131364   1.787   4.940   8.298
10374WAT     H231365   1.672   4.843   8.234
10375WAT      O31366   6.027   4.221   4.442
10375WAT     H131367   5.974   4.299   4.410
10375WAT     H231368   6.059   4.167   4.364
10376WAT      O31369   1.089   5.062   8.004
10376WAT     H131370   1.188   5.076   8.011
10376WAT     H231371   1.062   5.065   7.908
10377WAT      O31372   0.091   5.150   2.315
10377WAT     H131373   0.086   5.219   2.243
10377WAT     H231374   0.024   5.172   2.386
10378WAT      O31375   2.778   1.181   2.570
10378WAT     H131376   2.760   1.179   2.472
10378WAT     H231377   2.866   1.225   2.587
10379WAT      O31378   8.485   2.906   5.158
10379WAT     H131379   8.437   2.842   5.219
10379WAT     H231380   8.580   2.879   5.149
10380WAT      O31381  -0.003   9.225   1.716
10380WAT     H131382   0.027   9.311   1.674
10380WAT     H231383   0.052   9.208   1.798
10381WAT      O31384   3.108   6.023   7.297
10381WAT     H131385   3.198   5.988   7.273
10381WAT     H231386   3.048   6.020   7.217
10382WAT      O31387   0.272   3.906   6.962
10382WAT     H131388   0.244   4.002   6.964
10382WAT     H231389   0.366   3.899   6.928
10383WAT      O31390   6.932   4.545   4.192
10383WAT     H131391   6.861   4.606   4.159
10383WAT     H231392   6.894   4.454   4.208
10384WAT      O31393   1.203   4.905   5.805
10384WAT     H131394   1.127   4.841   5.815
10384WAT     H231395   1.199   4.949   5.715
10385WAT      O31396   4.790   8.304   6.878
10385WAT     H131397   4.720   8.234   6.862
10385WAT     H231398   4.791   8.328   6.976
10386WAT      O31399   0.048   6.465   3.588
10386WAT     H131400  -0.041   6.458   3.633
10386WAT     H231401   0.077   6.374   3.558
10387WAT      O31402   3.285   0.012   9.359
10387WAT     H131403   3.286   0.013   9.459
10387WAT     H231404   3.371  -0.026   9.325
10388WAT      O31405   5.873   4.147   8.205
10388WAT     H131406   5.843   4.185   8.293
10388WAT     H231407   5.965   4.109   8.215
10389WAT      O31408   0.924   4.061   1.790
10389WAT     H131409   1.014   4.091   1.757
10389WAT     H231410   0.853   4.115   1.746
10390WAT      O31411   8.038   6.670   9.642
10390WAT     H131412   8.043   6.571   9.625
10390WAT     H231413   8.128   6.711   9.627
10391WAT      O31414   2.404   2.835   6.231
10391WAT     H131415   2.353   2.886   6.161
10391WAT     H231416   2.373   2.739   6.231
10392WAT      O31417   0.931   4.341   4.669
10392WAT     H131418   0.878   4.274   4.720
10392WAT     H231419   0.962   4.413   4.730
10393WAT      O31420   1.687   2.981   8.015
10393WAT     H131421   1.722   3.066   7.976
10393WAT     H231422   1.718   2.904   7.960
10394WAT      O31423   1.409   4.452   0.832
10394WAT     H131424   1.448   4.395   0.759
10394WAT     H231425   1.357   4.527   0.792
10395WAT      O31426   9.762   2.977   7.442
10395WAT     H131427   9.814   2.896   7.416
10395WAT     H231428   9.784   3.052   7.381
10396WAT      O31429   1.085   3.212   3.275
10396WAT     H131430   1.126   3.166   3.196
10396WAT     H231431   1.157   3.241   3.338
10397WAT      O31432   7.271   8.569   2.149
10397WAT     H131433   7.180   8.598   2.121
10397WAT     H231434   7.332   8.571   2.069
10398WAT      O31435   4.222   0.544   1.725
10398WAT     H131436   4.252   0.580   1.813
10398WAT     H231437   4.250   0.448   1.717
10399WAT      O31438   7.336   4.615   6.453
10399WAT     H131439   7.339   4.704   6.498
10399WAT     H231440   7.282   4.621   6.369
10400WAT      O31441   0.858   5.927   2.307
10400WAT     H131442   0.935   5.991   2.313
10400WAT     H231443   0.828   5.901   2.398
10401WAT      O31444   1.639   4.448   5.864
10401WAT     H131445   1.592   4.387   5.801
10401WAT     H231446   1.619   4.543   5.840
10402WAT      O31447   6.948   5.187   4.890
10402WAT     H131448   6.920   5.140   4.973
10402WAT     H231449   6.875   5.182   4.822
10403WAT      O31450   3.324   3.780   8.065
10403WAT     H131451   3.372   3.800   7.980
10403WAT     H231452   3.241   3.728   8.046
10404WAT      O31453   1.929   3.984   1.412
10404WAT     H131454   2.020   3.948   1.394
10404WAT     H231455   1.909   3.977   1.510
10405WAT      O31456   5.177   0.596   5.633
10405WAT     H131457   5.183   0.678   5.690
10405WAT     H231458   5.244   0.529   5.663
10406WAT      O31459   7.191   4.119   2.091
10406WAT     H131460   7.205   4.050   2.161
10406WAT     H231461   7.134   4.193   2.128
10407WAT      O31462   5.436   8.294   8.943
10407WAT     H131463   5.447   8.390   8.966
10407WAT     H231464   5.360   8.283   8.880
10408WAT      O31465   5.886   6.944   3.220
10408WAT     H131466   5.786   6.935   3.228
10408WAT     H231467   5.928   6.853   3.223
10409WAT      O31468   6.035   6.316   6.022
10409WAT     H131469   6.092   6.358   5.951
10409WAT     H231470   5.999   6.387   6.082
10410WAT      O31471   6.844   4.037   2.126
10410WAT     H131472   6.901   3.955   2.124
10410WAT     H231473   6.769   4.027   2.061
10411WAT      O31474   4.558   1.909   8.344
10411WAT     H131475   4.606   1.844   8.402
10411WAT     H231476   4.505   1.971   8.402
10412WAT      O31477   5.602   1.794   4.958
10412WAT     H131478   5.699   1.772   4.969
10412WAT     H231479   5.584   1.886   4.995
10413WAT      O31480   0.768   6.713   1.217
10413WAT     H131481   0.778   6.660   1.133
10413WAT     H231482   0.763   6.651   1.295
10414WAT      O31483   2.244   2.399   3.037
10414WAT     H131484   2.304   2.383   3.116
10414WAT     H231485   2.258   2.491   3.002
10415WAT      O31486   8.019   6.093   5.577
10415WAT     H131487   7.972   6.154   5.640
10415WAT     H231488   8.002   6.122   5.483
10416WAT      O31489   4.527   7.558   3.022
10416WAT     H131490   4.573   7.486   3.075
10416WAT     H231491   4.528   7.643   3.073
10417WAT      O31492   8.605   6.465   3.693
10417WAT     H131493   8.518   6.515   3.695
10417WAT     H231494   8.599   6.390   3.628
10418WAT      O31495   8.551   3.973   0.243
10418WAT     H131496   8.481   3.952   0.175
10418WAT     H231497   8.507   3.999   0.329
10419WAT      O31498   0.341   1.107   6.396
10419WAT     H131499   0.318   1.015   6.364
10419WAT     H231500   0.436   1.127   6.373
10420WAT      O31501   5.485   3.373   2.142
10420WAT     H131502   5.445   3.418   2.062
10420WAT     H231503   5.583   3.361   2.127
10421WAT      O31504   0.810   6.768   3.612
10421WAT     H131505   0.770   6.677   3.624
10421WAT     H231506   0.745   6.825   3.562
10422WAT      O31507   6.982   5.475   7.555
10422WAT     H131508   7.064   5.470   7.612
10422WAT     H231509   6.963   5.570   7.532
10423WAT      O31510   6.582   8.592   6.263
10423WAT     H131511   6.663   8.574   6.207
10423WAT     H231512   6.543   8.680   6.238
10424WAT      O31513   4.846   7.704   6.554
10424WAT     H131514   4.855   7.604   6.550
10424WAT     H231515   4.820   7.731   6.646
10425WAT      O31516   1.670   4.162   7.812
10425WAT     H131517   1.690   4.246   7.861
10425WAT     H231518   1.612   4.103   7.868
10426WAT      O31519   5.726   1.831   6.224
10426WAT     H131520   5.721   1.735   6.252
10426WAT     H231521   5.811   1.872   6.259
10427WAT      O31522   8.319   8.564   6.032
10427WAT     H131523   8.410   8.599   6.052
10427WAT     H231524   8.319   8.520   5.942
10428WAT      O31525   3.234   0.379   8.968
10428WAT     H131526   3.261   0.330   8.885
10428WAT     H231527   3.307   0.371   9.036
10429WAT      O31528   0.678   4.686   0.145
10429WAT     H131529   0.755   4.732   0.188
10429WAT     H231530   0.694   4.587   0.145
10430WAT      O31531   2.128   7.329   1.263
10430WAT     H131532   2.077   7.308   1.179
10430WAT     H231533   2.150   7.426   1.266
10431WAT      O31534   7.278   7.254   8.010
10431WAT     H131535   7.348   7.208   8.064
10431WAT     H231536   7.263   7.204   7.925
10432WAT      O31537   5.248   0.159   4.132
10432WAT     H131538   5.253   0.183   4.229
10432WAT     H231539   5.271   0.063   4.120
10433WAT      O31540   0.135   7.116   2.036
10433WAT     H131541   0.192   7.039   2.004
10433WAT     H231542   0.118   7.105   2.134
10434WAT      O31543   8.425   0.473   3.107
10434WAT     H131544   8.327   0.458   3.112
10434WAT     H231545   8.444   0.548   3.043
10435WAT      O31546   2.003   8.201   2.351
10435WAT     H131547   1.939   8.145   2.405
10435WAT     H231548   1.988   8.297   2.372
10436WAT      O31549   5.378   4.335   8.804
10436WAT     H131550   5.322   4.414   8.829
10436WAT     H231551   5.337   4.252   8.841
10437WAT      O31552   8.837   3.150   2.504
10437WAT     H131553   8.911   3.206   2.540
10437WAT     H231554   8.821   3.072   2.565
10438WAT      O31555   5.090   3.476   6.110
10438WAT     H131556   5.114   3.398   6.167
10438WAT     H231557   5.173   3.528   6.088
10439WAT      O31558   9.182   9.288   3.215
10439WAT     H131559   9.151   9.383   3.217
10439WAT     H231560   9.187   9.253   3.309
10440WAT      O31561   6.437   6.640   4.919
10440WAT     H131562   6.460   6.738   4.924
10440WAT     H231563   6.338   6.629   4.930
10441WAT      O31564   3.335   0.020   2.365
10441WAT     H131565   3.399   0.046   2.293
10441WAT     H231566   3.243   0.053   2.341
10442WAT      O31567   5.567   8.964   2.142
10442WAT     H131568   5.546   9.050   2.189
10442WAT     H231569   5.487   8.904   2.145
10443WAT      O31570   4.165   7.231   0.943
10443WAT     H131571   4.141   7.328   0.951
10443WAT     H231572   4.235   7.208   1.010
10444WAT      O31573   1.049   4.688   5.804
10444WAT     H131574   1.112   4.610   5.799
10444WAT     H231575   0.975   4.667   5.869
10445WAT      O31576   3.875   8.687   1.248
10445WAT     H131577   3.839   8.639   1.328
10445WAT     H231578   3.811   8.759   1.220
10446WAT      O31579   9.677   0.699   9.503
10446WAT     H131580   9.651   0.616   9.453
10446WAT     H231581   9.745   0.750   9.450
10447WAT      O31582   0.428   0.405   4.703
10447WAT     H131583   0.481   0.413   4.619
10447WAT     H231584   0.436   0.490   4.756
10448WAT      O31585   1.465   8.087   6.377
10448WAT     H131586   1.525   8.146   6.432
10448WAT     H231587   1.382   8.067   6.430
10449WAT      O31588   9.167   4.715   9.239
10449WAT     H131589   9.240   4.652   9.265
10449WAT     H231590   9.167   4.794   9.300
10450WAT      O31591   7.194   1.730   3.724
10450WAT     H131592   7.145   1.650   3.760
10450WAT     H231593   7.272   1.750   3.784
10451WAT      O31594   3.425   4.075   8.335
10451WAT     H131595   3.390   4.105   8.424
10451WAT     H231596   3.503   4.013   8.350
10452WAT      O31597   1.560   4.192   6.069
10452WAT     H131598   1.622   4.270   6.080
10452WAT     H231599   1.576   4.126   6.142
10453WAT      O31600   4.155   7.040   7.000
10453WAT     H131601   4.193   7.132   7.000
10453WAT     H231602   4.210   6.981   7.060
10454WAT      O31603   4.724   5.840   7.977
10454WAT     H131604   4.650   5.858   8.042
10454WAT     H231605   4.729   5.741   7.960
10455WAT      O31606   4.457   1.136   1.284
10455WAT     H131607   4.429   1.164   1.192
10455WAT     H231608   4.553   1.108   1.283
10456WAT      O31609   5.498   5.273   9.309
10456WAT     H131610   5.469   5.183   9.278
10456WAT     H231611   5.578   5.303   9.255
10457WAT      O31612   6.271   8.297   2.664
10457WAT     H131613   6.220   8.262   2.585
10457WAT     H231614   6.348   8.236   2.683
10458WAT      O31615   4.304   5.149   1.054
10458WAT     H131616   4.363   5.075   1.086
10458WAT     H231617   4.257   5.121   0.970
10459WAT      O31618   4.888   1.674   6.395
10459WAT     H131619   4.920   1.704   6.305
10459WAT     H231620   4.934   1.729   6.466
10460WAT      O31621   0.870   2.964   8.052
10460WAT     H131622   0.864   2.866   8.032
10460WAT     H231623   0.950   3.003   8.007
10461WAT      O31624   3.257   9.365   4.468
10461WAT     H131625   3.264   9.465   4.472
10461WAT     H231626   3.329   9.324   4.523
10462WAT      O31627   5.532   8.360   7.493
10462WAT     H131628   5.537   8.288   7.423
10462WAT     H231629   5.437   8.379   7.515
10463WAT      O31630   8.637   9.842   2.945
10463WAT     H131631   8.714   9.809   2.999
10463WAT     H231632   8.660   9.839   2.848
10464WAT      O31633   3.795   0.774   3.219
10464WAT     H131634   3.779   0.779   3.121
10464WAT     H231635   3.763   0.686   3.254
10465WAT      O31636   3.618   0.332   7.431
10465WAT     H131637   3.579   0.280   7.507
10465WAT     H231638   3.636   0.426   7.460
10466WAT      O31639   2.227   4.108   8.274
10466WAT     H131640   2.166   4.128   8.350
10466WAT     H231641   2.311   4.065   8.308
10467WAT      O31642   4.395   3.816   6.211
10467WAT     H131643   4.472   3.795   6.152
10467WAT     H231644   4.422   3.886   6.278
10468WAT      O31645   0.540   5.495   9.143
10468WAT     H131646   0.527   5.587   9.106
10468WAT     H231647   0.502   5.490   9.235
10469WAT      O31648   0.420   2.233   8.345
10469WAT     H131649   0.512   2.202   8.322
10469WAT     H231650   0.413   2.331   8.326
10470WAT      O31651   6.581   6.948   7.234
10470WAT     H131652   6.567   6.901   7.321
10470WAT     H231653   6.628   6.887   7.171
10471WAT      O31654   2.448   6.305   3.704
10471WAT     H131655   2.464   6.309   3.605
10471WAT     H231656   2.444   6.209   3.732
10472WAT      O31657   1.216   3.985   9.585
10472WAT     H131658   1.296   4.044   9.595
10472WAT     H231659   1.246   3.894   9.554
10473WAT      O31660   6.704   3.309   4.537
10473WAT     H131661   6.644   3.241   4.496
10473WAT     H231662   6.762   3.349   4.467
10474WAT      O31663   6.379   9.683   5.751
10474WAT     H131664   6.373   9.781   5.769
10474WAT     H231665   6.430   9.668   5.666
10475WAT      O31666   4.354   5.408   1.174
10475WAT     H131667   4.395   5.487   1.127
10475WAT     H231668   4.335   5.336   1.107
10476WAT      O31669   9.042   1.832   6.099
10476WAT     H131670   9.050   1.798   6.192
10476WAT     H231671   8.965   1.786   6.054
10477WAT      O31672   1.243   4.535   8.541
10477WAT     H131673   1.325   4.478   8.543
10477WAT     H231674   1.246   4.593   8.459
10478WAT      O31675   0.529   9.364   2.883
10478WAT     H131676   0.448   9.344   2.938
10478WAT     H231677   0.514   9.448   2.830
10479WAT      O31678   4.529   5.626   1.628
10479WAT     H131679   4.625   5.611   1.605
10479WAT     H231680   4.478   5.652   1.545
10480WAT      O31681   0.874   4.130   7.224
10480WAT     H131682   0.970   4.105   7.217
10480WAT     H231683   0.836   4.092   7.309
10481WAT      O31684   5.366   1.670   8.353
10481WAT     H131685   5.449   1.679   8.408
10481WAT     H231686   5.370   1.585   8.301
10482WAT      O31687   9.379   9.399   3.445
10482WAT     H131688   9.458   9.444   3.488
10482WAT     H231689   9.387   9.406   3.345
10483WAT      O31690   8.739   8.719   1.925
10483WAT     H131691   8.809   8.694   1.991
10483WAT     H231692   8.713   8.815   1.939
10484WAT      O31693   1.447   1.122   6.582
10484WAT     H131694   1.526   1.181   6.562
10484WAT     H231695   1.460   1.033   6.539
10485WAT      O31696   8.386   4.076   5.892
10485WAT     H131697   8.426   4.167   5.882
10485WAT     H231698   8.301   4.071   5.840
10486WAT      O31699   6.958   2.854   5.616
10486WAT     H131700   6.951   2.899   5.705
10486WAT     H231701   6.873   2.867   5.565
10487WAT      O31702   3.276   2.692   4.897
10487WAT     H131703   3.300   2.770   4.954
10487WAT     H231704   3.324   2.610   4.930
10488WAT      O31705   1.442   0.911   1.305
10488WAT     H131706   1.371   0.978   1.285
10488WAT     H231707   1.478   0.926   1.397
10489WAT      O31708   6.739   5.378   6.026
10489WAT     H131709   6.640   5.376   6.032
10489WAT     H231710   6.767   5.448   5.960
10490WAT      O31711   4.272   0.691   6.112
10490WAT     H131712   4.287   0.790   6.108
10490WAT     H231713   4.254   0.657   6.020
10491WAT      O31714   4.796   0.758   8.337
10491WAT     H131715   4.789   0.658   8.345
10491WAT     H231716   4.721   0.792   8.281
10492WAT      O31717   5.400   8.305   9.478
10492WAT     H131718   5.339   8.379   9.506
10492WAT     H231719   5.392   8.229   9.543
10493WAT      O31720   2.026   1.601   3.643
10493WAT     H131721   2.078   1.556   3.716
10493WAT     H231722   1.954   1.540   3.610
10494WAT      O31723   8.034   7.426   2.133
10494WAT     H131724   8.120   7.466   2.099
10494WAT     H231725   8.048   7.328   2.150
10495WAT      O31726   8.756   1.281   4.761
10495WAT     H131727   8.691   1.210   4.787
10495WAT     H231728   8.707   1.357   4.718
10496WAT      O31729   1.639   0.195   3.563
10496WAT     H131730   1.624   0.252   3.643
10496WAT     H231731   1.675   0.251   3.488
10497WAT      O31732   7.374   7.742   4.315
10497WAT     H131733   7.414   7.691   4.391
10497WAT     H231734   7.435   7.739   4.236
10498WAT      O31735   8.037   4.695   7.270
10498WAT     H131736   8.054   4.789   7.298
10498WAT     H231737   8.019   4.691   7.172
10499WAT      O31738   2.021   7.694   2.479
10499WAT     H131739   1.983   7.684   2.571
10499WAT     H231740   1.970   7.765   2.430
10500WAT      O31741   0.151   0.315   2.166
10500WAT     H131742   0.176   0.289   2.073
10500WAT     H231743   0.095   0.397   2.164
10501WAT      O31744   8.025   5.284   7.615
10501WAT     H131745   7.944   5.344   7.613
10501WAT     H231746   8.107   5.340   7.602
10502WAT      O31747   3.868   0.857   5.106
10502WAT     H131748   3.891   0.877   5.202
10502WAT     H231749   3.867   0.942   5.054
10503WAT      O31750   3.356   5.344   9.160
10503WAT     H131751   3.279   5.407   9.147
10503WAT     H231752   3.353   5.307   9.253
10504WAT      O31753   3.328   7.908   6.698
10504WAT     H131754   3.349   7.814   6.725
10504WAT     H231755   3.237   7.912   6.659
10505WAT      O31756   9.182   2.126   9.096
10505WAT     H131757   9.204   2.216   9.060
10505WAT     H231758   9.254   2.095   9.158
10506WAT      O31759   8.580   4.841   5.644
10506WAT     H131760   8.522   4.760   5.641
10506WAT     H231761   8.561   4.891   5.729
10507WAT      O31762   8.609   9.335   8.367
10507WAT     H131763   8.563   9.282   8.438
10507WAT     H231764   8.540   9.389   8.317
10508WAT      O31765   3.642   9.654   7.038
10508WAT     H131766   3.625   9.558   7.060
10508WAT     H231767   3.738   9.666   7.015
10509WAT      O31768   2.108   6.748   2.902
10509WAT     H131769   2.158   6.818   2.953
10509WAT     H231770   2.016   6.738   2.941
10510WAT      O31771   4.604   2.206   2.042
10510WAT     H131772   4.580   2.300   2.020
10510WAT     H231773   4.702   2.192   2.030
10511WAT      O31774   6.443   8.569   5.160
10511WAT     H131775   6.449   8.469   5.162
10511WAT     H231776   6.349   8.597   5.143
10512WAT      O31777   2.243   5.941   5.171
10512WAT     H131778   2.170   5.946   5.238
10512WAT     H231779   2.228   6.010   5.100
10513WAT      O31780   8.885   4.105   5.632
10513WAT     H131781   8.937   4.136   5.552
10513WAT     H231782   8.944   4.108   5.713
10514WAT      O31783   8.235   1.780   0.350
10514WAT     H131784   8.276   1.694   0.322
10514WAT     H231785   8.277   1.812   0.435
10515WAT      O31786   6.862   3.175   9.084
10515WAT     H131787   6.824   3.267   9.076
10515WAT     H231788   6.840   3.137   9.174
10516WAT      O31789   5.284   6.485   9.398
10516WAT     H131790   5.373   6.520   9.371
10516WAT     H231791   5.237   6.553   9.455
10517WAT      O31792   4.016   3.235   2.020
10517WAT     H131793   3.922   3.268   2.012
10517WAT     H231794   4.045   3.193   1.934
10518WAT      O31795   9.757   0.907   8.351
10518WAT     H131796   9.765   0.986   8.412
10518WAT     H231797   9.806   0.829   8.391
10519WAT      O31798   3.877   3.632   8.493
10519WAT     H131799   3.834   3.685   8.565
10519WAT     H231800   3.943   3.568   8.533
10520WAT      O31801   2.819   6.733   1.819
10520WAT     H131802   2.734   6.779   1.844
10520WAT     H231803   2.893   6.762   1.881
10521WAT      O31804   2.445   2.036   6.195
10521WAT     H131805   2.383   1.983   6.136
10521WAT     H231806   2.487   2.109   6.142
10522WAT      O31807   2.056   0.270   7.253
10522WAT     H131808   1.960   0.244   7.259
10522WAT     H231809   2.104   0.240   7.336
10523WAT      O31810   5.104   9.554   3.013
10523WAT     H131811   5.184   9.525   2.961
10523WAT     H231812   5.130   9.625   3.078
10524WAT      O31813   7.874   4.781   1.282
10524WAT     H131814   7.874   4.846   1.206
10524WAT     H231815   7.933   4.704   1.260
10525WAT      O31816   4.066   2.245   6.993
10525WAT     H131817   4.019   2.333   6.993
10525WAT     H231818   4.099   2.224   7.085
10526WAT      O31819   5.986   9.829   6.107
10526WAT     H131820   5.985   9.771   6.026
10526WAT     H231821   5.956   9.921   6.084
10527WAT      O31822   4.426   9.261   5.840
10527WAT     H131823   4.518   9.224   5.855
10527WAT     H231824   4.385   9.283   5.929
10528WAT      O31825   2.365   5.010   7.802
10528WAT     H131826   2.413   4.944   7.860
10528WAT     H231827   2.298   5.060   7.856
10529WAT      O31828   6.518   2.946   1.282
10529WAT     H131829   6.535   3.045   1.285
10529WAT     H231830   6.420   2.930   1.269
10530WAT      O31831   5.203   3.328   7.291
10530WAT     H131832   5.202   3.416   7.244
10530WAT     H231833   5.152   3.336   7.377
10531WAT      O31834   6.510   2.215   9.207
10531WAT     H131835   6.570   2.247   9.280
10531WAT     H231836   6.539   2.253   9.119
10532WAT      O31837   6.616   9.680   6.961
10532WAT     H131838   6.633   9.774   6.933
10532WAT     H231839   6.517   9.662   6.958
10533WAT      O31840   1.329   4.696   6.719
10533WAT     H131841   1.358   4.601   6.708
10533WAT     H231842   1.231   4.698   6.739
10534WAT      O31843   0.331   9.499   6.485
10534WAT     H131844   0.390   9.530   6.560
10534WAT     H231845   0.238   9.484   6.520
10535WAT      O31846   9.413   2.009   3.311
10535WAT     H131847   9.469   2.064   3.373
10535WAT     H231848   9.448   2.017   3.218
10536WAT      O31849   3.883   4.367   6.857
10536WAT     H131850   3.844   4.448   6.814
10536WAT     H231851   3.863   4.368   6.955
10537WAT      O31852   7.381   6.827   8.570
10537WAT     H131853   7.472   6.789   8.553
10537WAT     H231854   7.341   6.780   8.649
10538WAT      O31855   4.234   5.725   0.936
10538WAT     H131856   4.144   5.704   0.899
10538WAT     H231857   4.300   5.731   0.861
10539WAT      O31858   7.363   2.721   4.875
10539WAT     H131859   7.411   2.644   4.918
10539WAT     H231860   7.311   2.771   4.945
10540WAT      O31861   4.028   9.293   2.476
10540WAT     H131862   4.127   9.290   2.486
10540WAT     H231863   3.989   9.348   2.549
10541WAT      O31864   1.140   4.861   5.148
10541WAT     H131865   1.082   4.852   5.067
10541WAT     H231866   1.110   4.940   5.201
10542WAT      O31867   3.329   8.972   1.485
10542WAT     H131868   3.289   9.020   1.563
10542WAT     H231869   3.261   8.962   1.413
10543WAT      O31870   2.071   6.417   0.887
10543WAT     H131871   2.062   6.349   0.960
10543WAT     H231872   2.158   6.466   0.897
10544WAT      O31873   9.094   2.845   8.127
10544WAT     H131874   9.040   2.787   8.067
10544WAT     H231875   9.135   2.790   8.200
10545WAT      O31876   1.308   3.805   3.206
10545WAT     H131877   1.298   3.783   3.109
10545WAT     H231878   1.275   3.898   3.223
10546WAT      O31879   1.346   2.109   2.674
10546WAT     H131880   1.282   2.154   2.612
10546WAT     H231881   1.422   2.072   2.620
10547WAT      O31882   0.867   6.292   9.182
10547WAT     H131883   0.834   6.365   9.123
10547WAT     H231884   0.804   6.214   9.178
10548WAT      O31885   5.716   1.991   5.352
10548WAT     H131886   5.813   2.012   5.366
10548WAT     H231887   5.675   2.063   5.296
10549WAT      O31888   3.701   6.156   3.423
10549WAT     H131889   3.724   6.207   3.505
10549WAT     H231890   3.618   6.193   3.382
10550WAT      O31891   4.547   4.947   6.840
10550WAT     H131892   4.595   4.891   6.907
10550WAT     H231893   4.481   5.006   6.887
10551WAT      O31894   9.492   7.112   1.016
10551WAT     H131895   9.524   7.023   0.985
10551WAT     H231896   9.402   7.103   1.057
10552WAT      O31897   5.408   7.245   5.081
10552WAT     H131898   5.365   7.204   5.161
10552WAT     H231899   5.475   7.313   5.110
10553WAT      O31900   4.886   1.598   8.333
10553WAT     H131901   4.938   1.647   8.404
10553WAT     H231902   4.894   1.500   8.348
10554WAT      O31903   4.007   9.312   1.396
10554WAT     H131904   3.909   9.289   1.395
10554WAT     H231905   4.018   9.411   1.388
10555WAT      O31906   1.600   7.613   7.180
10555WAT     H131907   1.654   7.556   7.118
10555WAT     H231908   1.616   7.710   7.160
10556WAT      O31909   7.238   8.055   0.337
10556WAT     H131910   7.260   7.982   0.402
10556WAT     H231911   7.140   8.073   0.338
10557WAT      O31912   5.364   0.429   4.620
10557WAT     H131913   5.434   0.490   4.585
10557WAT     H231914   5.278   0.479   4.630
10558WAT      O31915   0.855   5.685   5.864
10558WAT     H131916   0.836   5.617   5.793
10558WAT     H231917   0.941   5.732   5.844
10559WAT      O31918   8.207   4.216   0.954
10559WAT     H131919   8.189   4.164   1.037
10559WAT     H231920   8.121   4.236   0.908
10560WAT      O31921   5.233   6.300   8.137
10560WAT     H131922   5.231   6.213   8.087
10560WAT     H231923   5.313   6.301   8.198
10561WAT      O31924   1.116   6.613   3.794
10561WAT     H131925   1.105   6.527   3.844
10561WAT     H231926   1.099   6.597   3.697
10562WAT      O31927   3.897   1.353   9.875
10562WAT     H131928   3.868   1.448   9.863
10562WAT     H231929   3.824   1.292   9.844
10563WAT      O31930   6.455   5.988   9.758
10563WAT     H131931   6.390   6.049   9.803
10563WAT     H231932   6.433   5.981   9.660
10564WAT      O31933   4.656   7.656   6.052
10564WAT     H131934   4.573   7.662   6.106
10564WAT     H231935   4.721   7.594   6.095
10565WAT      O31936   8.636   4.801   0.617
10565WAT     H131937   8.681   4.886   0.589
10565WAT     H231938   8.572   4.772   0.547
10566WAT      O31939   7.322   1.022   9.581
10566WAT     H131940   7.378   1.063   9.653
10566WAT     H231941   7.234   0.992   9.620
10567WAT      O31942   1.169   2.321   9.303
10567WAT     H131943   1.190   2.419   9.300
10567WAT     H231944   1.170   2.284   9.210
10568WAT      O31945   8.491   8.086   6.549
10568WAT     H131946   8.418   8.151   6.527
10568WAT     H231947   8.580   8.129   6.533
10569WAT      O31948   7.141   1.510   6.391
10569WAT     H131949   7.106   1.592   6.437
10569WAT     H231950   7.233   1.529   6.356
10570WAT      O31951   9.399   2.169   6.710
10570WAT     H131952   9.370   2.082   6.670
10570WAT     H231953   9.497   2.182   6.692
10571WAT      O31954   9.373   3.387   9.291
10571WAT     H131955   9.471   3.380   9.312
10571WAT     H231956   9.349   3.316   9.224
10572WAT      O31957   0.805   4.173   2.534
10572WAT     H131958   0.785   4.262   2.492
10572WAT     H231959   0.902   4.153   2.524
10573WAT      O31960   5.531   1.202   1.483
10573WAT     H131961   5.623   1.181   1.452
10573WAT     H231962   5.466   1.182   1.410
10574WAT      O31963   5.672   4.552   3.629
10574WAT     H131964   5.648   4.473   3.574
10574WAT     H231965   5.676   4.633   3.571
10575WAT      O31966   6.763   5.817   5.927
10575WAT     H131967   6.758   5.868   5.841
10575WAT     H231968   6.766   5.719   5.908
10576WAT      O31969   0.563   0.967   4.456
10576WAT     H131970   0.659   0.940   4.463
10576WAT     H231971   0.509   0.890   4.421
10577WAT      O31972   8.664   0.891   9.295
10577WAT     H131973   8.629   0.956   9.228
10577WAT     H231974   8.763   0.904   9.306
10578WAT      O31975   2.859   8.506   1.510
10578WAT     H131976   2.835   8.561   1.430
10578WAT     H231977   2.884   8.414   1.481
10579WAT      O31978   0.708   0.132   4.288
10579WAT     H131979   0.707   0.204   4.358
10579WAT     H231980   0.615   0.103   4.268
10580WAT      O31981   1.218   5.680   9.331
10580WAT     H131982   1.281   5.648   9.261
10580WAT     H231983   1.182   5.769   9.305
10581WAT      O31984   7.044   9.143   7.958
10581WAT     H131985   7.101   9.153   8.040
10581WAT     H231986   7.016   9.233   7.926
10582WAT      O31987   8.490   0.041   8.036
10582WAT     H131988   8.424   0.034   8.111
10582WAT     H231989   8.575   0.081   8.069
10583WAT      O31990   3.598   3.433   0.682
10583WAT     H131991   3.676   3.490   0.706
10583WAT     H231992   3.630   3.348   0.642
10584WAT      O31993   1.446   9.620   2.838
10584WAT     H131994   1.468   9.538   2.785
10584WAT     H231995   1.528   9.652   2.886
10585WAT      O31996   3.772   6.364   1.594
10585WAT     H131997   3.858   6.369   1.644
10585WAT     H231998   3.788   6.380   1.496
10586WAT      O31999   4.420   9.677   3.831
10586WAT     H132000   4.462   9.767   3.837
10586WAT     H232001   4.322   9.687   3.809
10587WAT      O32002   0.832   2.525   6.895
10587WAT     H132003   0.909   2.494   6.952
10587WAT     H232004   0.843   2.622   6.874
10588WAT      O32005   1.603   6.103   8.950
10588WAT     H132006   1.700   6.097   8.926
10588WAT     H232007   1.584   6.194   8.986
10589WAT      O32008   7.093   1.194   4.598
10589WAT     H132009   7.132   1.175   4.688
10589WAT     H232010   6.996   1.167   4.597
10590WAT      O32011   6.682   0.822   2.697
10590WAT     H132012   6.722   0.850   2.784
10590WAT     H232013   6.751   0.777   2.641
10591WAT      O32014   1.054   6.068   3.610
10591WAT     H132015   0.984   6.047   3.542
10591WAT     H232016   1.125   5.998   3.607
10592WAT      O32017   1.953   4.011   2.714
10592WAT     H132018   1.893   4.081   2.676
10592WAT     H232019   1.898   3.935   2.749
10593WAT      O32020   1.446   1.516   9.589
10593WAT     H132021   1.465   1.562   9.675
10593WAT     H232022   1.460   1.417   9.600
10594WAT      O32023   9.018   2.717   1.339
10594WAT     H132024   9.108   2.749   1.368
10594WAT     H232025   8.949   2.748   1.404
10595WAT      O32026   7.273   3.280   2.906
10595WAT     H132027   7.203   3.332   2.954
10595WAT     H232028   7.362   3.297   2.948
10596WAT      O32029   0.009   0.022   9.479
10596WAT     H132030   0.090  -0.030   9.506
10596WAT     H232031   0.016   0.047   9.383
10597WAT      O32032   3.288   9.838   1.773
10597WAT     H132033   3.265   9.846   1.871
10597WAT     H232034   3.208   9.804   1.724
10598WAT      O32035   6.249   8.239   5.556
10598WAT     H132036   6.257   8.317   5.493
10598WAT     H232037   6.315   8.250   5.631
10599WAT      O32038   8.097   9.639   5.531
10599WAT     H132039   8.072   9.710   5.464
10599WAT     H232040   8.021   9.575   5.541
10600WAT      O32041   2.816   4.578   2.978
10600WAT     H132042   2.788   4.555   2.885
10600WAT     H232043   2.801   4.499   3.037
10601WAT      O32044   9.208   0.006   1.593
10601WAT     H132045   9.157  -0.016   1.510
10601WAT     H232046   9.250  -0.077   1.630
10602WAT      O32047   5.539   1.588   0.866
10602WAT     H132048   5.462   1.529   0.844
10602WAT     H232049   5.570   1.635   0.784
10603WAT      O32050   8.091   0.037   0.938
10603WAT     H132051   8.060  -0.055   0.913
10603WAT     H232052   8.149   0.073   0.865
10604WAT      O32053   2.115   0.816   8.179
10604WAT     H132054   2.206   0.839   8.144
10604WAT     H232055   2.120   0.729   8.229
10605WAT      O32056   9.513   5.477   6.343
10605WAT     H132057   9.590   5.487   6.280
10605WAT     H232058   9.444   5.417   6.301
10606WAT      O32059   2.130   6.943   1.786
10606WAT     H132060   2.228   6.963   1.781
10606WAT     H232061   2.114   6.873   1.856
10607WAT      O32062   6.144   8.790   5.229
10607WAT     H132063   6.155   8.790   5.328
10607WAT     H232064   6.232   8.808   5.186
10608WAT      O32065   0.777   7.453   0.427
10608WAT     H132066   0.704   7.385   0.423
10608WAT     H232067   0.847   7.432   0.359
10609WAT      O32068   0.017   6.347   4.505
10609WAT     H132069   0.036   6.251   4.486
10609WAT     H232070  -0.037   6.355   4.589
10610WAT      O32071   3.034   1.997   9.533
10610WAT     H132072   3.024   1.980   9.435
10610WAT     H232073   2.962   2.060   9.563
10611WAT      O32074   8.938   1.793   8.987
10611WAT     H132075   8.922   1.885   8.951
10611WAT     H232076   8.908   1.725   8.920
10612WAT      O32077   0.077   0.918   7.686
10612WAT     H132078   0.040   0.845   7.629
10612WAT     H232079   0.006   0.951   7.748
10613WAT      O32080   7.774   6.467   1.305
10613WAT     H132081   7.763   6.547   1.246
10613WAT     H232082   7.689   6.414   1.305
10614WAT      O32083   3.953   1.441   1.671
10614WAT     H132084   3.921   1.535   1.665
10614WAT     H232085   3.983   1.422   1.765
10615WAT      O32086   4.096   6.524   8.136
10615WAT     H132087   4.103   6.483   8.046
10615WAT     H232088   4.172   6.493   8.194
10616WAT      O32089   7.508   7.365   9.591
10616WAT     H132090   7.450   7.349   9.671
10616WAT     H232091   7.459   7.337   9.509
10617WAT      O32092   3.493   2.447   4.450
10617WAT     H132093   3.547   2.365   4.433
10617WAT     H232094   3.425   2.458   4.377
10618WAT      O32095   6.474   4.357   6.588
10618WAT     H132096   6.426   4.367   6.501
10618WAT     H232097   6.445   4.430   6.650
10619WAT      O32098   2.401   2.937   5.419
10619WAT     H132099   2.419   2.924   5.517
10619WAT     H232100   2.401   3.034   5.397
10620WAT      O32101   5.425   9.832   0.587
10620WAT     H132102   5.336   9.876   0.594
10620WAT     H232103   5.413   9.735   0.567
10621WAT      O32104   7.291   8.060   2.972
10621WAT     H132105   7.289   8.120   2.891
10621WAT     H232106   7.383   8.057   3.010
10622WAT      O32107   9.274   7.824   5.330
10622WAT     H132108   9.270   7.882   5.249
10622WAT     H232109   9.343   7.753   5.316
10623WAT      O32110   9.128   2.571   6.286
10623WAT     H132111   9.190   2.649   6.279
10623WAT     H232112   9.180   2.487   6.299
10624WAT      O32113   7.710   9.364   0.206
10624WAT     H132114   7.648   9.290   0.180
10624WAT     H232115   7.746   9.408   0.124
10625WAT      O32116   0.925   4.540   5.531
10625WAT     H132117   0.922   4.637   5.554
10625WAT     H232118   1.020   4.510   5.527
10626WAT      O32119   3.523   8.674   0.034
10626WAT     H132120   3.579   8.680  -0.049
10626WAT     H232121   3.479   8.584   0.038
10627WAT      O32122   0.071   5.043   7.837
10627WAT     H132123   0.123   5.112   7.888
10627WAT     H232124   0.026   5.086   7.759
10628WAT      O32125   8.568   5.834   6.385
10628WAT     H132126   8.472   5.862   6.385
10628WAT     H232127   8.626   5.914   6.370
10629WAT      O32128   4.505   5.296   6.027
10629WAT     H132129   4.533   5.305   5.931
10629WAT     H232130   4.423   5.238   6.032
10630WAT      O32131   2.012   0.822   0.290
10630WAT     H132132   1.943   0.750   0.289
10630WAT     H232133   2.099   0.786   0.259
10631WAT      O32134   6.799   1.238   1.873
10631WAT     H132135   6.740   1.240   1.792
10631WAT     H232136   6.860   1.159   1.868
10632WAT      O32137   1.853   6.672   6.431
10632WAT     H132138   1.927   6.713   6.484
10632WAT     H232139   1.890   6.606   6.366
10633WAT      O32140   1.749   5.856   4.831
10633WAT     H132141   1.715   5.929   4.770
10633WAT     H232142   1.844   5.874   4.854
10634WAT      O32143   2.892   3.970   3.636
10634WAT     H132144   2.850   3.897   3.690
10634WAT     H232145   2.825   4.009   3.574
10635WAT      O32146   3.224   1.870   3.056
10635WAT     H132147   3.144   1.875   3.116
10635WAT     H232148   3.304   1.906   3.105
10636WAT      O32149   7.110   1.682   5.585
10636WAT     H132150   7.062   1.627   5.654
10636WAT     H232151   7.195   1.718   5.624
10637WAT      O32152   3.231   4.873   8.653
10637WAT     H132153   3.196   4.893   8.562
10637WAT     H232154   3.229   4.957   8.708
10638WAT      O32155   2.638   2.277   4.046
10638WAT     H132156   2.574   2.267   3.970
10638WAT     H232157   2.588   2.305   4.128
10639WAT      O32158   4.204   1.613   9.878
10639WAT     H132159   4.206   1.548   9.954
10639WAT     H232160   4.172   1.567   9.795
10640WAT      O32161   9.269   9.708   4.282
10640WAT     H132162   9.367   9.701   4.262
10640WAT     H232163   9.254   9.683   4.378
10641WAT      O32164   5.823   7.455   5.904
10641WAT     H132165   5.880   7.462   5.822
10641WAT     H232166   5.727   7.445   5.878
10642WAT      O32167   3.152   3.023   7.792
10642WAT     H132168   3.089   2.965   7.740
10642WAT     H232169   3.163   3.111   7.745
10643WAT      O32170   3.228   3.768   3.250
10643WAT     H132171   3.299   3.836   3.271
10643WAT     H232172   3.175   3.749   3.333
10644WAT      O32173   6.791   9.447   0.555
10644WAT     H132174   6.764   9.533   0.510
10644WAT     H232175   6.754   9.370   0.503
10645WAT      O32176   7.918   2.084   7.288
10645WAT     H132177   7.899   2.107   7.192
10645WAT     H232178   7.997   2.024   7.292
10646WAT      O32179   3.989   8.160   3.345
10646WAT     H132180   4.034   8.147   3.256
10646WAT     H232181   3.903   8.209   3.332
10647WAT      O32182   7.276   9.796   8.766
10647WAT     H132183   7.329   9.720   8.729
10647WAT     H232184   7.220   9.763   8.842
10648WAT      O32185   9.613   0.234   9.310
10648WAT     H132186   9.604   0.215   9.212
10648WAT     H232187   9.708   0.219   9.338
10649WAT      O32188   1.149   6.217   7.182
10649WAT     H132189   1.082   6.243   7.252
10649WAT     H232190   1.215   6.291   7.171
10650WAT      O32191   5.610   3.472   3.436
10650WAT     H132192   5.650   3.472   3.345
10650WAT     H232193   5.615   3.380   3.474
10651WAT      O32194   5.604   5.004   7.548
10651WAT     H132195   5.574   4.909   7.557
10651WAT     H232196   5.558   5.060   7.616
10652WAT      O32197   8.407   9.077   7.507
10652WAT     H132198   8.457   8.996   7.477
10652WAT     H232199   8.310   9.055   7.515
10653WAT      O32200   8.507   7.977   3.710
10653WAT     H132201   8.601   7.962   3.678
10653WAT     H232202   8.488   8.075   3.709
10654WAT      O32203   4.697   5.704   6.380
10654WAT     H132204   4.778   5.648   6.363
10654WAT     H232205   4.616   5.645   6.386
10655WAT      O32206   5.571   3.568   5.570
10655WAT     H132207   5.632   3.523   5.636
10655WAT     H232208   5.559   3.510   5.490
10656WAT      O32209   7.603   6.333   2.409
10656WAT     H132210   7.570   6.418   2.450
10656WAT     H232211   7.658   6.283   2.476
10657WAT      O32212   4.902   4.388   8.113
10657WAT     H132213   4.871   4.469   8.164
10657WAT     H232214   4.931   4.317   8.177
10658WAT      O32215   1.910   8.851   5.274
10658WAT     H132216   1.815   8.878   5.290
10658WAT     H232217   1.939   8.789   5.347
10659WAT      O32218   3.782   3.382   2.025
10659WAT     H132219   3.757   3.475   2.053
10659WAT     H232220   3.705   3.341   1.976
10660WAT      O32221   8.552   5.359   9.307
10660WAT     H132222   8.473   5.323   9.358
10660WAT     H232223   8.618   5.285   9.292
10661WAT      O32224   0.004   3.791   0.672
10661WAT     H132225  -0.032   3.883   0.661
10661WAT     H232226  -0.031   3.732   0.600
10662WAT      O32227   8.476   4.580   5.303
10662WAT     H132228   8.564   4.545   5.334
10662WAT     H232229   8.405   4.554   5.369
10663WAT      O32230   3.760   5.658   2.256
10663WAT     H132231   3.748   5.639   2.353
10663WAT     H232232   3.745   5.574   2.203
10664WAT      O32233   5.147   7.698   1.519
10664WAT     H132234   5.070   7.640   1.548
10664WAT     H232235   5.112   7.779   1.472
10665WAT      O32236   8.759   5.241   3.821
10665WAT     H132237   8.850   5.219   3.786
10665WAT     H232238   8.766   5.276   3.914
10666WAT      O32239   6.149   2.446   7.237
10666WAT     H132240   6.161   2.515   7.308
10666WAT     H232241   6.237   2.401   7.219
10667WAT      O32242   7.740   3.143   3.241
10667WAT     H132243   7.660   3.102   3.284
10667WAT     H232244   7.791   3.073   3.191
10668WAT      O32245   9.539   5.745   2.605
10668WAT     H132246   9.522   5.717   2.700
10668WAT     H232247   9.611   5.688   2.566
10669WAT      O32248   3.540   1.655   2.853
10669WAT     H132249   3.454   1.605   2.866
10669WAT     H232250   3.564   1.655   2.756
10670WAT      O32251   8.233   9.259   6.900
10670WAT     H132252   8.275   9.347   6.920
10670WAT     H232253   8.292   9.185   6.931
10671WAT      O32254   8.915   6.533   3.231
10671WAT     H132255   8.980   6.563   3.301
10671WAT     H232256   8.965   6.490   3.155
10672WAT      O32257   3.182   1.656   6.735
10672WAT     H132258   3.234   1.583   6.690
10672WAT     H232259   3.241   1.702   6.802
10673WAT      O32260   1.453   2.537   0.064
10673WAT     H132261   1.390   2.465   0.035
10673WAT     H232262   1.402   2.608   0.113
10674WAT      O32263   5.205   9.527   3.390
10674WAT     H132264   5.123   9.470   3.397
10674WAT     H232265   5.238   9.549   3.482
10675WAT      O32266   4.629   4.563   3.320
10675WAT     H132267   4.564   4.581   3.394
10675WAT     H232268   4.598   4.483   3.268
10676WAT      O32269   7.870   2.092   7.018
10676WAT     H132270   7.812   2.174   7.020
10676WAT     H232271   7.872   2.055   6.925
10677WAT      O32272   1.585   3.881   7.593
10677WAT     H132273   1.624   3.941   7.662
10677WAT     H232274   1.636   3.795   7.590
10678WAT      O32275   2.890   4.146   4.234
10678WAT     H132276   2.893   4.069   4.171
10678WAT     H232277   2.963   4.137   4.302
10679WAT      O32278   9.083   5.919   3.572
10679WAT     H132279   9.024   5.841   3.549
10679WAT     H232280   9.044   6.002   3.533
10680WAT      O32281   9.472   5.112   3.207
10680WAT     H132282   9.402   5.052   3.168
10680WAT     H232283   9.547   5.124   3.142
10681WAT      O32284   0.558   7.703   1.442
10681WAT     H132285   0.568   7.768   1.517
10681WAT     H232286   0.489   7.635   1.465
10682WAT      O32287   2.389   2.625   9.639
10682WAT     H132288   2.362   2.706   9.587
10682WAT     H232289   2.345   2.544   9.601
10683WAT      O32290   5.070   1.908   9.561
10683WAT     H132291   5.087   1.970   9.485
10683WAT     H232292   5.157   1.882   9.603
10684WAT      O32293   5.795   8.391   0.073
10684WAT     H132294   5.736   8.315   0.097
10684WAT     H232295   5.816   8.445   0.155
10685WAT      O32296   3.192   6.222   3.848
10685WAT     H132297   3.120   6.282   3.883
10685WAT     H232298   3.193   6.226   3.748
10686WAT      O32299   1.307   8.176   5.996
10686WAT     H132300   1.286   8.098   5.936
10686WAT     H232301   1.314   8.259   5.940
10687WAT      O32302   2.719   7.245   8.422
10687WAT     H132303   2.691   7.197   8.339
10687WAT     H232304   2.765   7.181   8.483
10688WAT      O32305   3.348   1.566   3.879
10688WAT     H132306   3.425   1.596   3.935
10688WAT     H232307   3.337   1.627   3.800
10689WAT      O32308   9.653   9.155   8.642
10689WAT     H132309   9.637   9.056   8.638
10689WAT     H232310   9.751   9.173   8.654
10690WAT      O32311   0.230   6.717   4.618
10690WAT     H132312   0.273   6.636   4.578
10690WAT     H232313   0.136   6.695   4.644
10691WAT      O32314   5.047   6.550   0.692
10691WAT     H132315   4.971   6.614   0.676
10691WAT     H232316   5.063   6.541   0.790
10692WAT      O32317   8.772   9.178   0.357
10692WAT     H132318   8.758   9.270   0.320
10692WAT     H232319   8.869   9.164   0.376
10693WAT      O32320   5.101   8.105   4.943
10693WAT     H132321   5.167   8.163   4.991
10693WAT     H232322   5.053   8.159   4.873
10694WAT      O32323   2.113   1.695   6.475
10694WAT     H132324   2.057   1.638   6.414
10694WAT     H232325   2.053   1.755   6.528
10695WAT      O32326   1.497   0.135   5.974
10695WAT     H132327   1.504   0.123   5.875
10695WAT     H232328   1.588   0.135   6.014
10696WAT      O32329   1.514   5.071   6.314
10696WAT     H132330   1.582   5.032   6.376
10696WAT     H232331   1.423   5.062   6.353
10697WAT      O32332   5.467   9.514   9.769
10697WAT     H132333   5.471   9.458   9.852
10697WAT     H232334   5.388   9.575   9.774
10698WAT      O32335   1.512   3.445   7.764
10698WAT     H132336   1.419   3.417   7.742
10698WAT     H232337   1.572   3.425   7.686
10699WAT      O32338   2.456   2.559   6.430
10699WAT     H132339   2.489   2.483   6.373
10699WAT     H232340   2.362   2.582   6.403
10700WAT      O32341   3.308   8.220   6.631
10700WAT     H132342   3.229   8.230   6.691
10700WAT     H232343   3.316   8.125   6.601
10701WAT      O32344   8.933   1.370   5.222
10701WAT     H132345   9.022   1.414   5.208
10701WAT     H232346   8.912   1.312   5.143
10702WAT      O32347   8.359   1.605   4.178
10702WAT     H132348   8.302   1.537   4.132
10702WAT     H232349   8.391   1.568   4.265
10703WAT      O32350   4.581   7.226   0.716
10703WAT     H132351   4.518   7.157   0.679
10703WAT     H232352   4.662   7.180   0.752
10704WAT      O32353   9.435   9.678   2.849
10704WAT     H132354   9.442   9.774   2.879
10704WAT     H232355   9.391   9.674   2.760
10705WAT      O32356   1.081   7.615   0.237
10705WAT     H132357   1.050   7.520   0.231
10705WAT     H232358   1.015   7.668   0.290
10706WAT      O32359   1.033   2.270   7.649
10706WAT     H132360   1.030   2.181   7.694
10706WAT     H232361   1.117   2.318   7.674
10707WAT      O32362   1.872   4.584   0.281
10707WAT     H132363   1.935   4.531   0.338
10707WAT     H232364   1.924   4.631   0.209
10708WAT      O32365   3.871   5.446   9.451
10708WAT     H132366   3.960   5.477   9.484
10708WAT     H232367   3.853   5.484   9.360
10709WAT      O32368   2.398   0.260   5.166
10709WAT     H132369   2.333   0.190   5.136
10709WAT     H232370   2.452   0.291   5.087
10710WAT      O32371   9.161   2.410   1.782
10710WAT     H132372   9.070   2.449   1.792
10710WAT     H232373   9.216   2.432   1.862
10711WAT      O32374   8.966   9.800   9.262
10711WAT     H132375   8.902   9.794   9.186
10711WAT     H232376   8.978   9.709   9.302
10712WAT      O32377   5.920   4.258   9.877
10712WAT     H132378   5.937   4.170   9.833
10712WAT     H232379   5.821   4.273   9.885
10713WAT      O32380   3.323   0.595   0.335
10713WAT     H132381   3.303   0.628   0.243
10713WAT     H232382   3.239   0.566   0.380
10714WAT      O32383   9.589   0.890   4.164
10714WAT     H132384   9.564   0.861   4.256
10714WAT     H232385   9.584   0.812   4.102
10715WAT      O32386   2.337   4.593   5.765
10715WAT     H132387   2.293   4.504   5.772
10715WAT     H232388   2.429   4.589   5.803
10716WAT      O32389   8.027   9.596   3.548
10716WAT     H132390   8.094   9.650   3.496
10716WAT     H232391   8.075   9.534   3.610
10717WAT      O32392   0.822   8.174   4.787
10717WAT     H132393   0.797   8.148   4.694
10717WAT     H232394   0.764   8.126   4.852
10718WAT      O32395   1.317   2.871   7.953
10718WAT     H132396   1.351   2.870   8.047
10718WAT     H232397   1.294   2.964   7.927
10719WAT      O32398   2.112   7.908   9.615
10719WAT     H132399   2.111   7.990   9.673
10719WAT     H232400   2.201   7.863   9.622
10720WAT      O32401   6.791   3.657   4.474
10720WAT     H132402   6.835   3.672   4.563
10720WAT     H232403   6.803   3.562   4.446
10721WAT      O32404   2.050   7.905   8.598
10721WAT     H132405   1.993   7.830   8.566
10721WAT     H232406   2.115   7.872   8.666
10722WAT      O32407   0.389   5.934   4.105
10722WAT     H132408   0.298   5.949   4.066
10722WAT     H232409   0.379   5.898   4.198
10723WAT      O32410   3.085   0.096   3.255
10723WAT     H132411   2.987   0.108   3.275
10723WAT     H232412   3.100   0.100   3.156
10724WAT      O32413   9.187   1.465   5.120
10724WAT     H132414   9.204   1.549   5.068
10724WAT     H232415   9.256   1.456   5.191
10725WAT      O32416   0.028   3.197   1.456
10725WAT     H132417   0.124   3.223   1.458
10725WAT     H232418   0.015   3.122   1.392
10726WAT      O32419   1.554   8.479   0.328
10726WAT     H132420   1.605   8.474   0.242
10726WAT     H232421   1.616   8.507   0.402
10727WAT      O32422   5.985   9.378   8.048
10727WAT     H132423   6.063   9.416   8.097
10727WAT     H232424   5.995   9.278   8.042
10728WAT      O32425   3.075   1.044   2.928
10728WAT     H132426   3.048   0.949   2.915
10728WAT     H232427   3.114   1.056   3.019
10729WAT      O32428   1.561   5.552   0.711
10729WAT     H132429   1.643   5.588   0.757
10729WAT     H232430   1.582   5.534   0.615
10730WAT      O32431   8.851   4.411   7.467
10730WAT     H132432   8.796   4.370   7.539
10730WAT     H232433   8.881   4.340   7.403
10731WAT      O32434   9.702   2.713   0.652
10731WAT     H132435   9.724   2.616   0.659
10731WAT     H232436   9.654   2.743   0.734
10732WAT      O32437   0.585   1.165   6.319
10732WAT     H132438   0.583   1.070   6.350
10732WAT     H232439   0.617   1.223   6.393
10733WAT      O32440   6.493   3.854   8.945
10733WAT     H132441   6.532   3.944   8.963
10733WAT     H232442   6.535   3.786   9.005
10734WAT      O32443   9.841   4.005   6.695
10734WAT     H132444   9.830   3.943   6.617
10734WAT     H232445   9.937   4.004   6.725
10735WAT      O32446   2.490   7.663   1.819
10735WAT     H132447   2.403   7.706   1.842
10735WAT     H232448   2.566   7.724   1.843
10736WAT      O32449   5.873   8.319   4.941
10736WAT     H132450   5.939   8.381   4.900
10736WAT     H232451   5.781   8.358   4.933
10737WAT      O32452   6.207   3.632   0.362
10737WAT     H132453   6.148   3.586   0.427
10737WAT     H232454   6.171   3.723   0.342
10738WAT      O32455   7.994   6.672   5.481
10738WAT     H132456   8.009   6.583   5.439
10738WAT     H232457   7.957   6.736   5.414
10739WAT      O32458   7.992   0.496   9.875
10739WAT     H132459   8.066   0.553   9.839
10739WAT     H232460   7.947   0.447   9.801
10740WAT      O32461   7.419   5.298   1.482
10740WAT     H132462   7.359   5.234   1.531
10740WAT     H232463   7.431   5.381   1.536
10741WAT      O32464   8.738   1.118   8.037
10741WAT     H132465   8.663   1.076   7.986
10741WAT     H232466   8.746   1.075   8.127
10742WAT      O32467   3.956   7.643   8.015
10742WAT     H132468   3.932   7.706   8.089
10742WAT     H232469   4.012   7.691   7.947
10743WAT      O32470   6.446   6.323   7.545
10743WAT     H132471   6.376   6.394   7.537
10743WAT     H232472   6.464   6.282   7.455
10744WAT      O32473   2.984   7.675   4.702
10744WAT     H132474   3.019   7.585   4.731
10744WAT     H232475   3.017   7.695   4.610
10745WAT      O32476   1.451   7.703   2.316
10745WAT     H132477   1.465   7.605   2.308
10745WAT     H232478   1.527   7.751   2.271
10746WAT      O32479   9.282   2.877   8.586
10746WAT     H132480   9.211   2.948   8.592
10746WAT     H232481   9.254   2.797   8.639
10747WAT      O32482   9.451   6.771   9.327
10747WAT     H132483   9.376   6.831   9.299
10747WAT     H232484   9.424   6.675   9.317
10748WAT      O32485   4.390   5.205   1.937
10748WAT     H132486   4.424   5.114   1.913
10748WAT     H232487   4.290   5.202   1.949
10749WAT      O32488   8.489   1.523   7.856
10749WAT     H132489   8.442   1.601   7.815
10749WAT     H232490   8.422   1.456   7.886
10750WAT      O32491   6.063   7.020   6.113
10750WAT     H132492   6.047   6.995   6.208
10750WAT     H232493   5.982   7.066   6.076
10751WAT      O32494   2.375   2.390   2.366
10751WAT     H132495   2.321   2.429   2.440
10751WAT     H232496   2.472   2.394   2.390
10752WAT      O32497   7.973   1.843   2.233
10752WAT     H132498   8.038   1.864   2.160
10752WAT     H232499   8.006   1.766   2.287
10753WAT      O32500   5.588   9.519   8.713
10753WAT     H132501   5.549   9.512   8.805
10753WAT     H232502   5.521   9.486   8.647
10754WAT      O32503   0.565   8.652   6.286
10754WAT     H132504   0.504   8.645   6.365
10754WAT     H232505   0.587   8.748   6.270
10755WAT      O32506   3.354   2.207   7.900
10755WAT     H132507   3.383   2.262   7.822
10755WAT     H232508   3.288   2.139   7.869
10756WAT      O32509   5.214   7.021   4.026
10756WAT     H132510   5.234   7.099   4.085
10756WAT     H232511   5.119   7.027   3.994
10757WAT      O32512   9.374   2.699   7.455
10757WAT     H132513   9.358   2.602   7.434
10757WAT     H232514   9.298   2.734   7.509
10758WAT      O32515   8.205   1.139   7.448
10758WAT     H132516   8.215   1.055   7.395
10758WAT     H232517   8.255   1.131   7.534
10759WAT      O32518   8.450   9.766   9.659
10759WAT     H132519   8.521   9.706   9.696
10759WAT     H232520   8.474   9.792   9.565
10760WAT      O32521   3.863   7.628   0.294
10760WAT     H132522   3.845   7.536   0.331
10760WAT     H232523   3.939   7.669   0.343
10761WAT      O32524   3.245   0.079   5.326
10761WAT     H132525   3.172   0.096   5.392
10761WAT     H232526   3.221   0.122   5.239
10762WAT      O32527   2.248   6.480   6.544
10762WAT     H132528   2.292   6.427   6.616
10762WAT     H232529   2.212   6.419   6.474
10763WAT      O32530   5.554   7.989   8.518
10763WAT     H132531   5.616   8.034   8.582
10763WAT     H232532   5.523   7.903   8.557
10764WAT      O32533   1.379   6.631   5.585
10764WAT     H132534   1.355   6.556   5.523
10764WAT     H232535   1.322   6.626   5.666
10765WAT      O32536   3.538   5.140   0.425
10765WAT     H132537   3.628   5.110   0.394
10765WAT     H232538   3.473   5.065   0.420
10766WAT      O32539   4.737   0.865   8.569
10766WAT     H132540   4.703   0.785   8.617
10766WAT     H232541   4.754   0.842   8.473
10767WAT      O32542   2.627   2.012   1.756
10767WAT     H132543   2.632   2.094   1.814
10767WAT     H232544   2.556   2.025   1.686
10768WAT      O32545   1.739   4.958   2.905
10768WAT     H132546   1.660   4.925   2.957
10768WAT     H232547   1.730   4.931   2.810
10769WAT      O32548   9.314   9.275   6.094
10769WAT     H132549   9.282   9.198   6.150
10769WAT     H232550   9.386   9.324   6.144
10770WAT      O32551   6.256   2.081   9.612
10770WAT     H132552   6.289   2.061   9.520
10770WAT     H232553   6.241   1.996   9.662
10771WAT      O32554   1.685   6.400   7.649
10771WAT     H132555   1.752   6.420   7.721
10771WAT     H232556   1.660   6.485   7.603
10772WAT      O32557   8.725   8.202   6.498
10772WAT     H132558   8.784   8.152   6.435
10772WAT     H232559   8.776   8.281   6.535
10773WAT      O32560   5.465   7.168   7.553
10773WAT     H132561   5.428   7.242   7.497
10773WAT     H232562   5.492   7.092   7.494
10774WAT      O32563   5.732   0.296   4.444
10774WAT     H132564   5.701   0.210   4.484
10774WAT     H232565   5.806   0.278   4.379
10775WAT      O32566   3.077   6.646   3.093
10775WAT     H132567   3.096   6.586   3.171
10775WAT     H232568   2.987   6.689   3.105
10776WAT      O32569   2.690   3.415   6.331
10776WAT     H132570   2.764   3.442   6.271
10776WAT     H232571   2.653   3.327   6.302
10777WAT      O32572   5.734   5.281   7.144
10777WAT     H132573   5.738   5.189   7.182
10777WAT     H232574   5.696   5.278   7.052
10778WAT      O32575   2.726   8.971   4.849
10778WAT     H132576   2.755   8.877   4.868
10778WAT     H232577   2.641   8.969   4.796
10779WAT      O32578   5.032   3.061   1.028
10779WAT     H132579   5.122   3.070   0.986
10779WAT     H232580   4.977   3.142   1.008
10780WAT      O32581   5.369   3.112   6.112
10780WAT     H132582   5.451   3.080   6.159
10780WAT     H232583   5.329   3.187   6.165
10781WAT      O32584   4.638   3.855   8.629
10781WAT     H132585   4.572   3.907   8.683
10781WAT     H232586   4.684   3.916   8.564
10782WAT      O32587   6.784   7.893   5.637
10782WAT     H132588   6.867   7.920   5.686
10782WAT     H232589   6.791   7.798   5.608
10783WAT      O32590   9.069   1.812   1.232
10783WAT     H132591   9.043   1.725   1.192
10783WAT     H232592   9.010   1.832   1.310
10784WAT      O32593   6.886   5.599   8.763
10784WAT     H132594   6.889   5.499   8.763
10784WAT     H232595   6.794   5.630   8.785
10785WAT      O32596   3.391   3.835   3.014
10785WAT     H132597   3.451   3.806   2.939
10785WAT     H232598   3.447   3.860   3.093
10786WAT      O32599   8.026   6.460   0.655
10786WAT     H132600   8.115   6.485   0.617
10786WAT     H232601   8.030   6.365   0.686
10787WAT      O32602   6.190   0.001   6.267
10787WAT     H132603   6.118  -0.009   6.198
10787WAT     H232604   6.267   0.051   6.227
10788WAT      O32605   3.293   1.421   8.232
10788WAT     H132606   3.356   1.348   8.204
10788WAT     H232607   3.200   1.384   8.233
10789WAT      O32608   7.337   8.155   7.191
10789WAT     H132609   7.432   8.125   7.200
10789WAT     H232610   7.281   8.077   7.163
10790WAT      O32611   0.545   5.748   3.596
10790WAT     H132612   0.480   5.713   3.529
10790WAT     H232613   0.507   5.829   3.640
10791WAT      O32614   7.679   3.013   2.197
10791WAT     H132615   7.768   2.969   2.201
10791WAT     H232616   7.657   3.036   2.102
10792WAT      O32617   8.456   6.469   4.086
10792WAT     H132618   8.537   6.526   4.099
10792WAT     H232619   8.388   6.520   4.033
10793WAT      O32620   4.113   4.139   3.990
10793WAT     H132621   4.087   4.085   4.071
10793WAT     H232622   4.120   4.235   4.016
10794WAT      O32623   4.518   5.030   9.868
10794WAT     H132624   4.522   4.930   9.862
10794WAT     H232625   4.539   5.059   9.961
10795WAT      O32626   3.982   3.268   0.505
10795WAT     H132627   3.931   3.190   0.542
10795WAT     H232628   4.055   3.292   0.568
10796WAT      O32629   8.389   3.935   3.034
10796WAT     H132630   8.485   3.907   3.037
10796WAT     H232631   8.381   4.032   3.057
10797WAT      O32632   1.280   7.401   4.060
10797WAT     H132633   1.221   7.413   4.140
10797WAT     H232634   1.295   7.304   4.043
10798WAT      O32635   5.044   0.307   6.955
10798WAT     H132636   4.967   0.368   6.972
10798WAT     H232637   5.125   0.362   6.932
10799WAT      O32638   5.501   9.213   1.953
10799WAT     H132639   5.475   9.236   1.859
10799WAT     H232640   5.595   9.242   1.969
10800WAT      O32641   2.992   5.569   1.727
10800WAT     H132642   2.936   5.519   1.661
10800WAT     H232643   2.942   5.649   1.759
10801WAT      O32644   0.047   8.222   7.420
10801WAT     H132645   0.015   8.304   7.374
10801WAT     H232646  -0.004   8.210   7.505
10802WAT      O32647   8.083   0.033   1.834
10802WAT     H132648   8.089  -0.052   1.781
10802WAT     H232649   7.988   0.048   1.861
10803WAT      O32650   8.945   1.817   0.575
10803WAT     H132651   8.977   1.837   0.668
10803WAT     H232652   8.877   1.884   0.547
10804WAT      O32653   7.223   6.297   9.036
10804WAT     H132654   7.192   6.232   8.966
10804WAT     H232655   7.321   6.285   9.052
10805WAT      O32656   5.752   0.983   4.533
10805WAT     H132657   5.655   0.965   4.516
10805WAT     H232658   5.762   1.048   4.608
10806WAT      O32659   9.097   7.654   7.068
10806WAT     H132660   9.190   7.647   7.032
10806WAT     H232661   9.063   7.563   7.091
10807WAT      O32662   3.231   1.585   4.670
10807WAT     H132663   3.244   1.621   4.762
10807WAT     H232664   3.133   1.578   4.651
10808WAT      O32665   9.875   7.650   1.871
10808WAT     H132666   9.924   7.674   1.787
10808WAT     H232667   9.875   7.551   1.882
10809WAT      O32668   2.495   5.400   0.318
10809WAT     H132669   2.564   5.465   0.287
10809WAT     H232670   2.424   5.391   0.247
10810WAT      O32671   2.442   7.251   2.761
10810WAT     H132672   2.507   7.311   2.714
10810WAT     H232673   2.490   7.194   2.827
10811WAT      O32674   0.355   0.778   7.965
10811WAT     H132675   0.429   0.804   8.027
10811WAT     H232676   0.362   0.832   7.881
10812WAT      O32677   5.756   3.172   9.126
10812WAT     H132678   5.839   3.133   9.166
10812WAT     H232679   5.753   3.270   9.145
10813WAT      O32680   0.689   1.746   5.843
10813WAT     H132681   0.679   1.703   5.932
10813WAT     H232682   0.707   1.676   5.774
10814WAT      O32683   0.121   3.384   8.535
10814WAT     H132684   0.135   3.335   8.621
10814WAT     H232685   0.086   3.320   8.466
10815WAT      O32686   1.114   8.080   7.364
10815WAT     H132687   1.134   7.992   7.408
10815WAT     H232688   1.126   8.071   7.265
10816WAT      O32689   6.002   4.101   0.811
10816WAT     H132690   6.077   4.161   0.839
10816WAT     H232691   6.035   4.037   0.742
10817WAT      O32692   0.398   0.207   3.688
10817WAT     H132693   0.334   0.208   3.765
10817WAT     H232694   0.490   0.187   3.721
10818WAT      O32695   2.775   4.373   1.377
10818WAT     H132696   2.865   4.335   1.400
10818WAT     H232697   2.710   4.351   1.450
10819WAT      O32698   5.846   7.024   2.081
10819WAT     H132699   5.751   7.014   2.052
10819WAT     H232700   5.888   7.101   2.034
10820WAT      O32701   4.214   2.994   6.348
10820WAT     H132702   4.251   3.084   6.370
10820WAT     H232703   4.240   2.929   6.419
10821WAT      O32704   1.613   4.032   7.352
10821WAT     H132705   1.595   3.976   7.270
10821WAT     H232706   1.612   3.973   7.433
10822WAT      O32707   5.714   7.539   0.705
10822WAT     H132708   5.680   7.447   0.688
10822WAT     H232709   5.803   7.550   0.660
10823WAT      O32710   0.068   4.979   8.183
10823WAT     H132711   0.126   4.949   8.258
10823WAT     H232712   0.040   4.900   8.128
10824WAT      O32713   7.670   5.352   4.818
10824WAT     H132714   7.741   5.422   4.805
10824WAT     H232715   7.696   5.291   4.892
10825WAT      O32716   1.351   9.544   7.203
10825WAT     H132717   1.329   9.630   7.248
10825WAT     H232718   1.307   9.541   7.113
10826WAT      O32719   1.324   8.647   0.389
10826WAT     H132720   1.399   8.594   0.349
10826WAT     H232721   1.339   8.744   0.369
10827WAT      O32722   2.899   4.290   7.912
10827WAT     H132723   2.838   4.234   7.856
10827WAT     H232724   2.989   4.294   7.869
10828WAT      O32725   0.681   5.356   6.271
10828WAT     H132726   0.661   5.259   6.276
10828WAT     H232727   0.636   5.404   6.346
10829WAT      O32728   7.520   2.921   0.886
10829WAT     H132729   7.595   2.955   0.830
10829WAT     H232730   7.542   2.933   0.982
10830WAT      O32731   3.428   3.161   0.418
10830WAT     H132732   3.404   3.137   0.324
10830WAT     H232733   3.373   3.106   0.482
10831WAT      O32734   7.441   4.570   5.795
10831WAT     H132735   7.354   4.524   5.811
10831WAT     H232736   7.437   4.618   5.707
10832WAT      O32737   7.222   4.315   8.005
10832WAT     H132738   7.239   4.234   8.061
10832WAT     H232739   7.197   4.286   7.912
10833WAT      O32740   4.400   1.205   6.227
10833WAT     H132741   4.461   1.195   6.306
10833WAT     H232742   4.319   1.257   6.254
10834WAT      O32743   8.557   4.941   1.828
10834WAT     H132744   8.626   5.012   1.817
10834WAT     H232745   8.601   4.852   1.832
10835WAT      O32746   2.807   0.483   8.590
10835WAT     H132747   2.880   0.541   8.554
10835WAT     H232748   2.719   0.514   8.554
10836WAT      O32749   1.019   0.759   0.878
10836WAT     H132750   0.958   0.817   0.931
10836WAT     H232751   1.108   0.803   0.868
10837WAT      O32752   8.909   6.701   4.295
10837WAT     H132753   9.000   6.717   4.255
10837WAT     H232754   8.906   6.610   4.335
10838WAT      O32755   6.190   4.349   5.212
10838WAT     H132756   6.198   4.262   5.162
10838WAT     H232757   6.245   4.344   5.295
10839WAT      O32758   0.007   7.785   0.499
10839WAT     H132759   0.069   7.844   0.549
10839WAT     H232760  -0.072   7.763   0.557
10840WAT      O32761   1.819   7.317   3.610
10840WAT     H132762   1.749   7.248   3.629
10840WAT     H232763   1.809   7.350   3.516
10841WAT      O32764   0.023   6.046   1.210
10841WAT     H132765  -0.028   6.101   1.143
10841WAT     H232766   0.104   6.096   1.240
10842WAT      O32767   6.242   9.026   8.343
10842WAT     H132768   6.312   9.044   8.412
10842WAT     H232769   6.240   8.929   8.321
10843WAT      O32770   5.294   0.549   1.399
10843WAT     H132771   5.354   0.576   1.474
10843WAT     H232772   5.200   0.540   1.434
10844WAT      O32773   6.001   4.198   3.280
10844WAT     H132774   6.019   4.136   3.356
10844WAT     H232775   6.078   4.261   3.270
10845WAT      O32776   2.635   3.155   9.856
10845WAT     H132777   2.648   3.167   9.757
10845WAT     H232778   2.599   3.064   9.874
10846WAT      O32779   2.597   1.708   5.755
10846WAT     H132780   2.690   1.670   5.756
10846WAT     H232781   2.535   1.644   5.710
10847WAT      O32782   8.428   9.333   7.447
10847WAT     H132783   8.371   9.378   7.517
10847WAT     H232784   8.412   9.234   7.449
10848WAT      O32785   0.348   5.275   9.543
10848WAT     H132786   0.260   5.268   9.590
10848WAT     H232787   0.358   5.199   9.479
10849WAT      O32788   1.904   0.879   1.449
10849WAT     H132789   1.828   0.890   1.386
10849WAT     H232790   1.976   0.945   1.427
10850WAT      O32791   6.392   3.134   3.195
10850WAT     H132792   6.452   3.168   3.123
10850WAT     H232793   6.297   3.142   3.166
10851WAT      O32794   0.273   6.454   6.513
10851WAT     H132795   0.225   6.442   6.426
10851WAT     H232796   0.225   6.404   6.585
10852WAT      O32797   7.271   7.862   0.504
10852WAT     H132798   7.208   7.790   0.533
10852WAT     H232799   7.346   7.823   0.452
10853WAT      O32800   0.376   6.458   3.575
10853WAT     H132801   0.370   6.378   3.636
10853WAT     H232802   0.315   6.530   3.608
10854WAT      O32803   2.855   0.153   7.694
10854WAT     H132804   2.837   0.083   7.763
10854WAT     H232805   2.871   0.241   7.738
10855WAT      O32806   5.117   0.178   7.180
10855WAT     H132807   5.085   0.236   7.255
10855WAT     H232808   5.112   0.229   7.095
10856WAT      O32809   9.448   2.903   7.322
10856WAT     H132810   9.533   2.941   7.361
10856WAT     H232811   9.417   2.827   7.379
10857WAT      O32812   1.364   1.946   2.064
10857WAT     H132813   1.302   2.002   2.118
10857WAT     H232814   1.375   1.857   2.109
10858WAT      O32815   3.040   2.433   3.096
10858WAT     H132816   2.946   2.401   3.091
10858WAT     H232817   3.102   2.362   3.062
10859WAT      O32818   0.874   2.176   1.480
10859WAT     H132819   0.956   2.180   1.422
10859WAT     H232820   0.808   2.113   1.439
10860WAT      O32821   4.344   7.128   4.866
10860WAT     H132822   4.293   7.042   4.868
10860WAT     H232823   4.285   7.203   4.895
10861WAT      O32824   5.531   7.848   2.020
10861WAT     H132825   5.437   7.863   2.048
10861WAT     H232826   5.587   7.926   2.046
10862WAT      O32827   4.319   1.806   8.259
10862WAT     H132828   4.389   1.857   8.309
10862WAT     H232829   4.250   1.869   8.223
10863WAT      O32830   3.214   4.886   3.968
10863WAT     H132831   3.184   4.798   4.006
10863WAT     H232832   3.178   4.960   4.024
10864WAT      O32833   4.757   5.572   3.025
10864WAT     H132834   4.797   5.624   2.950
10864WAT     H232835   4.817   5.495   3.049
10865WAT      O32836   0.253   7.125   8.077
10865WAT     H132837   0.283   7.047   8.131
10865WAT     H232838   0.330   7.187   8.062
10866WAT      O32839   3.157   9.646   3.887
10866WAT     H132840   3.102   9.703   3.826
10866WAT     H232841   3.249   9.637   3.849
10867WAT      O32842   8.183   3.423   1.745
10867WAT     H132843   8.177   3.501   1.807
10867WAT     H232844   8.095   3.376   1.741
10868WAT      O32845   7.680   4.525   5.862
10868WAT     H132846   7.691   4.548   5.959
10868WAT     H232847   7.584   4.536   5.836
10869WAT      O32848   9.385   7.641   7.626
10869WAT     H132849   9.317   7.573   7.650
10869WAT     H232850   9.429   7.676   7.709
10870WAT      O32851   6.126   7.340   6.740
10870WAT     H132852   6.043   7.375   6.698
10870WAT     H232853   6.183   7.296   6.671
10871WAT      O32854   4.474   0.601   3.228
10871WAT     H132855   4.441   0.649   3.147
10871WAT     H232856   4.461   0.503   3.216
10872WAT      O32857   5.215   0.020   9.377
10872WAT     H132858   5.306  -0.000   9.414
10872WAT     H232859   5.174   0.095   9.429
10873WAT      O32860   3.858   6.046   9.329
10873WAT     H132861   3.921   5.974   9.299
10873WAT     H232862   3.874   6.129   9.276
10874WAT      O32863   6.882   5.846   8.618
10874WAT     H132864   6.887   5.819   8.522
10874WAT     H232865   6.902   5.767   8.676
10875WAT      O32866   5.068   7.605   4.352
10875WAT     H132867   5.015   7.593   4.436
10875WAT     H232868   5.013   7.656   4.285
10876WAT      O32869   3.872   5.679   1.211
10876WAT     H132870   3.946   5.655   1.274
10876WAT     H232871   3.887   5.633   1.123
10877WAT      O32872   7.706   7.744   6.238
10877WAT     H132873   7.614   7.750   6.275
10877WAT     H232874   7.764   7.815   6.280
10878WAT      O32875   4.742   1.059   7.313
10878WAT     H132876   4.668   1.068   7.380
10878WAT     H232877   4.772   0.964   7.308
10879WAT      O32878   8.311   0.848   6.919
10879WAT     H132879   8.240   0.906   6.880
10879WAT     H232880   8.281   0.752   6.918
10880WAT      O32881   0.247   9.081   6.514
10880WAT     H132882   0.226   9.105   6.608
10880WAT     H232883   0.227   8.984   6.499
10881WAT      O32884   1.685   9.159   7.996
10881WAT     H132885   1.756   9.143   7.927
10881WAT     H232886   1.609   9.209   7.954
10882WAT      O32887   5.916   6.457   9.536
10882WAT     H132888   5.949   6.398   9.610
10882WAT     H232889   5.906   6.403   9.452
10883WAT      O32890   8.576   6.466   5.255
10883WAT     H132891   8.552   6.559   5.225
10883WAT     H232892   8.560   6.458   5.353
10884WAT      O32893   0.556   6.960   8.523
10884WAT     H132894   0.602   6.961   8.612
10884WAT     H232895   0.487   6.888   8.521
10885WAT      O32896   5.234   8.342   6.950
10885WAT     H132897   5.251   8.441   6.946
10885WAT     H232898   5.305   8.295   6.898
10886WAT      O32899   6.768   8.905   3.479
10886WAT     H132900   6.765   8.974   3.552
10886WAT     H232901   6.713   8.936   3.402
10887WAT      O32902   3.937   8.850   9.479
10887WAT     H132903   4.028   8.853   9.522
10887WAT     H232904   3.892   8.939   9.490
10888WAT      O32905   8.348   8.861   6.848
10888WAT     H132906   8.421   8.919   6.810
10888WAT     H232907   8.366   8.766   6.824
10889WAT      O32908   5.433   8.487   8.250
10889WAT     H132909   5.413   8.397   8.213
10889WAT     H232910   5.356   8.519   8.305
10890WAT      O32911   0.585   1.155   8.420
10890WAT     H132912   0.504   1.096   8.426
10890WAT     H232913   0.572   1.235   8.479
10891WAT      O32914   1.384   2.192   6.763
10891WAT     H132915   1.392   2.097   6.734
10891WAT     H232916   1.408   2.200   6.860
10892WAT      O32917   2.768   1.111   6.141
10892WAT     H132918   2.680   1.144   6.107
10892WAT     H232919   2.831   1.188   6.147
10893WAT      O32920   7.760   4.309   6.151
10893WAT     H132921   7.732   4.249   6.076
10893WAT     H232922   7.733   4.267   6.238
10894WAT      O32923   2.815   1.221   7.309
10894WAT     H132924   2.832   1.254   7.402
10894WAT     H232925   2.848   1.288   7.243
10895WAT      O32926   7.393   1.675   6.808
10895WAT     H132927   7.451   1.652   6.886
10895WAT     H232928   7.376   1.592   6.753
10896WAT      O32929   6.690   0.948   9.702
10896WAT     H132930   6.763   0.925   9.766
10896WAT     H232931   6.606   0.901   9.729
10897WAT      O32932   3.188   7.073   9.206
10897WAT     H132933   3.238   6.988   9.191
10897WAT     H232934   3.239   7.130   9.270
10898WAT      O32935   9.877   6.407   7.357
10898WAT     H132936   9.946   6.363   7.299
10898WAT     H232937   9.801   6.439   7.301
10899WAT      O32938   6.496   0.497   8.248
10899WAT     H132939   6.429   0.572   8.244
10899WAT     H232940   6.522   0.472   8.155
10900WAT      O32941   4.075   7.609   3.681
10900WAT     H132942   4.169   7.578   3.696
10900WAT     H232943   4.044   7.663   3.759
10901WAT      O32944   0.355   5.493   0.638
10901WAT     H132945   0.342   5.592   0.644
10901WAT     H232946   0.332   5.451   0.725
10902WAT      O32947   9.637   0.803   5.480
10902WAT     H132948   9.632   0.731   5.549
10902WAT     H232949   9.619   0.892   5.522
10903WAT      O32950   7.923   5.795   7.769
10903WAT     H132951   7.910   5.847   7.685
10903WAT     H232952   7.936   5.858   7.846
10904WAT      O32953   4.712   8.037   9.074
10904WAT     H132954   4.742   8.118   9.024
10904WAT     H232955   4.791   7.988   9.111
10905WAT      O32956   8.573   6.685   8.980
10905WAT     H132957   8.600   6.755   9.046
10905WAT     H232958   8.642   6.680   8.907
10906WAT      O32959   1.614   2.294   0.065
10906WAT     H132960   1.700   2.271   0.109
10906WAT     H232961   1.582   2.383   0.099
10907WAT      O32962   3.602   7.158   8.608
10907WAT     H132963   3.684   7.172   8.663
10907WAT     H232964   3.628   7.143   8.512
10908WAT      O32965   0.528   1.742   4.638
10908WAT     H132966   0.617   1.786   4.631
10908WAT     H232967   0.538   1.643   4.627
10909WAT      O32968   1.924   2.558   6.856
10909WAT     H132969   1.831   2.522   6.846
10909WAT     H232970   1.946   2.565   6.953
10910WAT      O32971   8.666   8.368   8.417
10910WAT     H132972   8.655   8.451   8.472
10910WAT     H232973   8.761   8.338   8.419
10911WAT      O32974   8.408   6.128   2.001
10911WAT     H132975   8.450   6.039   1.983
10911WAT     H232976   8.315   6.129   1.965
10912WAT      O32977   2.783   0.727   5.623
10912WAT     H132978   2.758   0.758   5.715
10912WAT     H232979   2.882   0.732   5.613
10913WAT      O32980   2.736   3.168   9.151
10913WAT     H132981   2.726   3.159   9.052
10913WAT     H232982   2.658   3.124   9.196
10914WAT      O32983   5.375   2.534   5.745
10914WAT     H132984   5.434   2.564   5.820
10914WAT     H232985   5.431   2.509   5.666
10915WAT      O32986   3.439   6.670   2.914
10915WAT     H132987   3.496   6.604   2.864
10915WAT     H232988   3.351   6.679   2.868
10916WAT      O32989   8.709   0.688   3.478
10916WAT     H132990   8.791   0.634   3.497
10916WAT     H232991   8.734   0.764   3.417
10917WAT      O32992   3.754   8.937   3.625
10917WAT     H132993   3.835   8.996   3.621
10917WAT     H232994   3.672   8.992   3.617
10918WAT      O32995   3.526   2.236   3.321
10918WAT     H132996   3.466   2.196   3.391
10918WAT     H232997   3.471   2.285   3.254
10919WAT      O32998   4.669   2.478   1.972
10919WAT     H132999   4.728   2.420   1.916
10919WAT     H233000   4.696   2.573   1.961
10920WAT      O33001   3.783   2.106   5.687
10920WAT     H133002   3.806   2.048   5.766
10920WAT     H233003   3.790   2.202   5.714
10921WAT      O33004   9.659   7.495   2.630
10921WAT     H133005   9.731   7.557   2.601
10921WAT     H233006   9.577   7.547   2.652
10922WAT      O33007   5.142   3.470   2.435
10922WAT     H133008   5.158   3.376   2.466
10922WAT     H233009   5.152   3.475   2.336
10923WAT      O33010   6.640   6.192   3.147
10923WAT     H133011   6.684   6.103   3.155
10923WAT     H233012   6.541   6.179   3.140
10924WAT      O33013   5.142   1.372   2.978
10924WAT     H133014   5.206   1.410   2.911
10924WAT     H233015   5.095   1.293   2.938
10925WAT      O33016   2.508   7.095   8.755
10925WAT     H133017   2.550   7.184   8.737
10925WAT     H233018   2.409   7.104   8.756
10926WAT      O33019   9.503   0.695   1.276
10926WAT     H133020   9.580   0.726   1.222
10926WAT     H233021   9.439   0.771   1.290
10927WAT      O33022   2.377   0.064   1.508
10927WAT     H133023   2.358   0.114   1.423
10927WAT     H233024   2.410  -0.028   1.485
10928WAT      O33025   2.056   1.278   7.259
10928WAT     H133026   2.069   1.369   7.297
10928WAT     H233027   1.958   1.258   7.252
10929WAT      O33028   9.405   6.574   1.610
10929WAT     H133029   9.473   6.647   1.607
10929WAT     H233030   9.320   6.606   1.568
10930WAT      O33031   2.600   0.564   8.376
10930WAT     H133032   2.620   0.604   8.287
10930WAT     H233033   2.605   0.465   8.370
10931WAT      O33034   7.783   3.962   5.733
10931WAT     H133035   7.839   3.983   5.813
10931WAT     H233036   7.746   4.047   5.696
10932WAT      O33037   1.694   1.947   3.328
10932WAT     H133038   1.691   1.865   3.386
10932WAT     H233039   1.609   1.953   3.275
10933WAT      O33040   7.242   8.180   5.095
10933WAT     H133041   7.254   8.272   5.134
10933WAT     H233042   7.325   8.126   5.112
10934WAT      O33043   1.002   4.796   7.345
10934WAT     H133044   1.076   4.863   7.340
10934WAT     H233045   1.000   4.742   7.261
10935WAT      O33046   9.837   6.365   8.806
10935WAT     H133047   9.843   6.453   8.852
10935WAT     H233048   9.925   6.343   8.764
10936WAT      O33049   0.050   2.652   8.214
10936WAT     H133050   0.106   2.733   8.199
10936WAT     H233051   0.001   2.661   8.301
10937WAT      O33052   2.123   5.151   6.415
10937WAT     H133053   2.059   5.227   6.408
10937WAT     H233054   2.162   5.132   6.325
10938WAT      O33055   8.472   8.829   5.178
10938WAT     H133056   8.454   8.925   5.201
10938WAT     H233057   8.486   8.821   5.080
10939WAT      O33058   8.467   3.866   7.282
10939WAT     H133059   8.517   3.811   7.349
10939WAT     H233060   8.528   3.892   7.208
10940WAT      O33061   8.850   2.247   4.295
10940WAT     H133062   8.813   2.255   4.387
10940WAT     H233063   8.877   2.153   4.277
10941WAT      O33064   7.894   4.961   2.005
10941WAT     H133065   7.958   4.982   1.931
10941WAT     H233066   7.831   5.037   2.017
10942WAT      O33067   2.170   5.259   7.564
10942WAT     H133068   2.186   5.318   7.485
10942WAT     H233069   2.255   5.249   7.616
10943WAT      O33070   8.718   8.003   5.605
10943WAT     H133071   8.742   8.099   5.621
10943WAT     H233072   8.622   7.996   5.579
10944WAT      O33073   7.220   0.754   6.853
10944WAT     H133074   7.280   0.821   6.810
10944WAT     H233075   7.267   0.714   6.932
10945WAT      O33076   6.212   9.314   3.726
10945WAT     H133077   6.112   9.309   3.724
10945WAT     H233078   6.248   9.244   3.788
10946WAT      O33079   7.738   1.813   1.544
10946WAT     H133080   7.796   1.737   1.513
10946WAT     H233081   7.788   1.899   1.535
10947WAT      O33082   7.181   5.839   4.043
10947WAT     H133083   7.270   5.866   4.008
10947WAT     H233084   7.166   5.879   4.134
10948WAT      O33085   3.770   9.443   9.642
10948WAT     H133086   3.819   9.356   9.637
10948WAT     H233087   3.821   9.513   9.592
10949WAT      O33088   2.840   1.133   1.662
10949WAT     H133089   2.880   1.065   1.601
10949WAT     H233090   2.807   1.087   1.745
10950WAT      O33091   6.441   0.579   3.388
10950WAT     H133092   6.496   0.548   3.465
10950WAT     H233093   6.438   0.679   3.387
10951WAT      O33094   4.513   5.441   6.946
10951WAT     H133095   4.424   5.483   6.964
10951WAT     H233096   4.550   5.475   6.859
10952WAT      O33097   0.464   5.286   1.691
10952WAT     H133098   0.389   5.229   1.726
10952WAT     H233099   0.426   5.368   1.649
10953WAT      O33100   0.427   6.711   2.146
10953WAT     H133101   0.486   6.726   2.225
10953WAT     H233102   0.480   6.673   2.071
10954WAT      O33103   9.012   5.183   5.966
10954WAT     H133104   9.049   5.229   6.047
10954WAT     H233105   8.937   5.123   5.993
10955WAT      O33106   6.837   2.269   2.236
10955WAT     H133107   6.851   2.176   2.201
10955WAT     H233108   6.815   2.330   2.160
10956WAT      O33109   1.066   8.141   2.014
10956WAT     H133110   1.045   8.098   1.926
10956WAT     H233111   1.123   8.222   1.998
10957WAT      O33112   3.281   2.589   9.698
10957WAT     H133113   3.240   2.649   9.766
10957WAT     H233114   3.230   2.503   9.694
10958WAT      O33115   6.045   1.805   8.178
10958WAT     H133116   6.131   1.829   8.133
10958WAT     H233117   6.048   1.833   8.274
10959WAT      O33118   0.913   0.699   4.268
10959WAT     H133119   0.839   0.643   4.305
10959WAT     H233120   0.962   0.647   4.197
10960WAT      O33121   1.710   5.433   8.250
10960WAT     H133122   1.785   5.430   8.317
10960WAT     H233123   1.718   5.355   8.188
10961WAT      O33124   6.453   0.376   5.298
10961WAT     H133125   6.353   0.384   5.298
10961WAT     H233126   6.490   0.427   5.377
10962WAT      O33127   4.239   8.628   5.864
10962WAT     H133128   4.141   8.639   5.882
10962WAT     H233129   4.277   8.561   5.928
10963WAT      O33130   4.293   5.228   2.242
10963WAT     H133131   4.386   5.243   2.276
10963WAT     H233132   4.293   5.153   2.176
10964WAT      O33133   8.997   1.896   5.606
10964WAT     H133134   8.982   1.967   5.675
10964WAT     H233135   9.073   1.837   5.634
10965WAT      O33136   9.559   2.834   8.108
10965WAT     H133137   9.499   2.757   8.129
10965WAT     H233138   9.643   2.800   8.066
10966WAT      O33139   2.554   9.126   7.127
10966WAT     H133140   2.596   9.159   7.042
10966WAT     H233141   2.625   9.107   7.195
10967WAT      O33142   0.938   5.458   9.031
10967WAT     H133143   1.037   5.468   9.026
10967WAT     H233144   0.908   5.461   9.126
10968WAT      O33145   5.323   4.768   0.238
10968WAT     H133146   5.252   4.808   0.180
10968WAT     H233147   5.280   4.708   0.306
10969WAT      O33148   7.739   3.423   7.540
10969WAT     H133149   7.701   3.477   7.615
10969WAT     H233150   7.790   3.346   7.576
10970WAT      O33151   3.294   4.873   5.960
10970WAT     H133152   3.275   4.860   6.058
10970WAT     H233153   3.261   4.794   5.909
10971WAT      O33154   5.946   4.781   3.650
10971WAT     H133155   6.015   4.848   3.679
10971WAT     H233156   5.911   4.732   3.729
10972WAT      O33157   1.544   0.366   9.337
10972WAT     H133158   1.472   0.410   9.284
10972WAT     H233159   1.631   0.376   9.290
10973WAT      O33160   3.689   1.474   4.129
10973WAT     H133161   3.599   1.449   4.166
10973WAT     H233162   3.756   1.477   4.203
10974WAT      O33163   5.029   1.294   3.727
10974WAT     H133164   5.014   1.351   3.808
10974WAT     H233165   5.004   1.346   3.645
10975WAT      O33166   5.830   0.300   3.828
10975WAT     H133167   5.826   0.382   3.771
10975WAT     H233168   5.798   0.323   3.921
10976WAT      O33169   7.641   4.284   0.757
10976WAT     H133170   7.594   4.348   0.695
10976WAT     H233171   7.621   4.309   0.852
10977WAT      O33172   2.686   7.776   2.903
10977WAT     H133173   2.664   7.861   2.855
10977WAT     H233174   2.602   7.737   2.941
10978WAT      O33175   5.341   0.885   2.565
10978WAT     H133176   5.428   0.853   2.602
10978WAT     H233177   5.281   0.807   2.548
10979WAT      O33178   9.869   3.486   9.198
10979WAT     H133179   9.807   3.474   9.276
10979WAT     H233180   9.819   3.469   9.113
10980WAT      O33181   6.466   1.447   2.912
10980WAT     H133182   6.498   1.494   2.830
10980WAT     H233183   6.411   1.367   2.887
10981WAT      O33184   3.407   9.412   7.396
10981WAT     H133185   3.314   9.374   7.399
10981WAT     H233186   3.444   9.400   7.304
10982WAT      O33187   9.497   6.294   7.850
10982WAT     H133188   9.402   6.265   7.835
10982WAT     H233189   9.526   6.267   7.942
10983WAT      O33190   0.855   6.325   8.765
10983WAT     H133191   0.884   6.383   8.689
10983WAT     H233192   0.828   6.383   8.842
10984WAT      O33193   3.439   8.734   5.991
10984WAT     H133194   3.401   8.778   6.073
10984WAT     H233195   3.484   8.648   6.017
10985WAT      O33196   5.149   2.636   6.472
10985WAT     H133197   5.138   2.542   6.505
10985WAT     H233198   5.244   2.649   6.442
10986WAT      O33199   6.388   6.804   8.501
10986WAT     H133200   6.472   6.857   8.490
10986WAT     H233201   6.407   6.707   8.489
10987WAT      O33202   9.079   3.127   1.352
10987WAT     H133203   9.046   3.218   1.325
10987WAT     H233204   9.103   3.074   1.271
10988WAT      O33205   8.990   7.366   2.991
10988WAT     H133206   9.057   7.295   3.015
10988WAT     H233207   9.036   7.454   2.986
10989WAT      O33208   2.474   4.463   2.662
10989WAT     H133209   2.394   4.446   2.604
10989WAT     H233210   2.476   4.396   2.736
10990WAT      O33211   8.194   0.023   5.075
10990WAT     H133212   8.110  -0.017   5.037
10990WAT     H233213   8.255  -0.050   5.105
10991WAT      O33214   8.622   4.726   4.764
10991WAT     H133215   8.720   4.747   4.762
10991WAT     H233216   8.585   4.746   4.855
10992WAT      O33217   0.511   5.014   2.139
10992WAT     H133218   0.599   5.019   2.092
10992WAT     H233219   0.517   4.949   2.215
10993WAT      O33220   1.357   4.423   0.163
10993WAT     H133221   1.423   4.475   0.217
10993WAT     H233222   1.277   4.403   0.219
10994WAT      O33223   2.186   7.562   4.647
10994WAT     H133224   2.236   7.501   4.708
10994WAT     H233225   2.170   7.650   4.693
10995WAT      O33226   5.440   6.032   2.251
10995WAT     H133227   5.519   6.079   2.211
10995WAT     H233228   5.448   5.934   2.232
10996WAT      O33229   5.716   7.695   1.285
10996WAT     H133230   5.717   7.795   1.284
10996WAT     H233231   5.630   7.663   1.326
10997WAT      O33232   5.077   7.919   1.901
10997WAT     H133233   5.138   7.852   1.944
10997WAT     H233234   5.038   7.880   1.818
10998WAT      O33235   3.751   5.883   5.285
10998WAT     H133236   3.759   5.800   5.339
10998WAT     H233237   3.769   5.861   5.189
10999WAT      O33238   2.511   1.321   5.634
10999WAT     H133239   2.553   1.326   5.724
10999WAT     H233240   2.579   1.290   5.567
11000WAT      O33241   9.348   6.933   0.624
11000WAT     H133242   9.364   6.867   0.550
11000WAT     H233243   9.363   6.888   0.712
11001WAT      O33244   2.745   4.518   7.397
11001WAT     H133245   2.821   4.545   7.338
11001WAT     H233246   2.663   4.569   7.371
11002WAT      O33247   2.244   6.091   1.233
11002WAT     H133248   2.338   6.123   1.219
11002WAT     H233249   2.182   6.141   1.174
11003WAT      O33250   0.563   7.883   1.638
11003WAT     H133251   0.651   7.930   1.642
11003WAT     H233252   0.491   7.945   1.668
11004WAT      O33253   2.831   0.672   7.401
11004WAT     H133254   2.906   0.644   7.462
11004WAT     H233255   2.843   0.768   7.376
11005WAT      O33256   6.613   5.686   0.221
11005WAT     H133257   6.606   5.777   0.181
11005WAT     H233258   6.556   5.622   0.168
11006WAT      O33259   6.542   5.524   9.051
11006WAT     H133260   6.606   5.449   9.034
11006WAT     H233261   6.449   5.493   9.035
11007WAT      O33262   7.937   4.891   1.053
11007WAT     H133263   7.903   4.847   0.970
11007WAT     H233264   8.035   4.876   1.060
11008WAT      O33265   9.506   0.762   1.868
11008WAT     H133266   9.490   0.806   1.779
11008WAT     H233267   9.540   0.830   1.933
11009WAT      O33268   5.405   1.208   7.772
11009WAT     H133269   5.462   1.218   7.690
11009WAT     H233270   5.357   1.294   7.789
11010WAT      O33271   4.496   3.332   7.260
11010WAT     H133272   4.491   3.361   7.165
11010WAT     H233273   4.569   3.381   7.307
11011WAT      O33274   1.443   5.287   4.500
11011WAT     H133275   1.477   5.333   4.418
11011WAT     H233276   1.416   5.193   4.477
11012WAT      O33277   0.062   5.796   0.863
11012WAT     H133278   0.045   5.795   0.962
11012WAT     H233279  -0.017   5.757   0.815
11013WAT      O33280   0.595   3.965   7.673
11013WAT     H133281   0.674   4.024   7.659
11013WAT     H233282   0.563   3.974   7.768
11014WAT      O33283   9.241   9.628   4.547
11014WAT     H133284   9.158   9.684   4.554
11014WAT     H233285   9.234   9.550   4.609
11015WAT      O33286   7.568   2.668   1.756
11015WAT     H133287   7.530   2.760   1.764
11015WAT     H233288   7.503   2.602   1.792
11016WAT      O33289   5.003   3.495   4.123
11016WAT     H133290   4.935   3.506   4.195
11016WAT     H233291   4.964   3.527   4.036
11017WAT      O33292   4.087   6.445   7.197
11017WAT     H133293   3.999   6.462   7.152
11017WAT     H233294   4.106   6.346   7.195
11018WAT      O33295   0.128   1.453   4.373
11018WAT     H133296   0.189   1.500   4.438
11018WAT     H233297   0.068   1.391   4.423
11019WAT      O33298   9.131   2.242   6.525
11019WAT     H133299   9.172   2.296   6.597
11019WAT     H233300   9.056   2.188   6.562
11020WAT      O33301   0.234   1.086   4.594
11020WAT     H133302   0.181   1.170   4.601
11020WAT     H233303   0.267   1.075   4.500
11021WAT      O33304   1.741   6.694   6.682
11021WAT     H133305   1.756   6.685   6.583
11021WAT     H233306   1.647   6.720   6.699
11022WAT      O33307   6.111   6.570   9.248
11022WAT     H133308   6.033   6.631   9.229
11022WAT     H233309   6.080   6.475   9.247
11023WAT      O33310   6.200   2.226   5.126
11023WAT     H133311   6.223   2.304   5.067
11023WAT     H233312   6.266   2.153   5.110
11024WAT      O33313   9.470   6.837   0.918
11024WAT     H133314   9.555   6.792   0.944
11024WAT     H233315   9.392   6.788   0.957
11025WAT      O33316   1.295   5.415   5.729
11025WAT     H133317   1.371   5.427   5.665
11025WAT     H233318   1.329   5.416   5.822
11026WAT      O33319   3.188   8.608   7.304
11026WAT     H133320   3.114   8.597   7.370
11026WAT     H233321   3.164   8.561   7.219
11027WAT      O33322   5.516   8.254   4.988
11027WAT     H133323   5.426   8.252   5.030
11027WAT     H233324   5.579   8.198   5.042
11028WAT      O33325   3.054   1.827   1.118
11028WAT     H133326   3.101   1.883   1.186
11028WAT     H233327   3.099   1.836   1.030
11029WAT      O33328   6.810   4.916   0.157
11029WAT     H133329   6.736   4.849   0.160
11029WAT     H233330   6.830   4.940   0.062
11030WAT      O33331   2.827   3.516   5.042
11030WAT     H133332   2.773   3.600   5.034
11030WAT     H233333   2.806   3.455   4.966
11031WAT      O33334   2.058   8.090   3.794
11031WAT     H133335   2.127   8.036   3.840
11031WAT     H233336   2.096   8.130   3.710
11032WAT      O33337   5.814   0.915   8.113
11032WAT     H133338   5.817   0.857   8.032
11032WAT     H233339   5.726   0.902   8.160
11033WAT      O33340   1.879   6.928   6.770
11033WAT     H133341   1.854   6.833   6.752
11033WAT     H233342   1.941   6.932   6.848
11034WAT      O33343   9.118   7.064   0.507
11034WAT     H133344   9.144   7.114   0.425
11034WAT     H233345   9.200   7.023   0.548
11035WAT      O33346   6.067   8.602   9.232
11035WAT     H133347   6.091   8.696   9.208
11035WAT     H233348   6.032   8.599   9.325
11036WAT      O33349   2.966   3.451   5.283
11036WAT     H133350   2.986   3.539   5.325
11036WAT     H233351   2.928   3.466   5.191
11037WAT      O33352   4.417   8.799   3.643
11037WAT     H133353   4.495   8.749   3.608
11037WAT     H233354   4.356   8.822   3.567
11038WAT      O33355   3.983   6.763   8.223
11038WAT     H133356   4.045   6.688   8.203
11038WAT     H233357   4.004   6.801   8.313
11039WAT      O33358   0.250   4.982   5.387
11039WAT     H133359   0.281   4.974   5.481
11039WAT     H233360   0.161   4.938   5.377
11040WAT      O33361   6.946   5.147   0.250
11040WAT     H133362   6.892   5.067   0.224
11040WAT     H233363   6.913   5.226   0.199
11041WAT      O33364   5.978   2.555   7.066
11041WAT     H133365   5.887   2.571   7.105
11041WAT     H233366   6.032   2.500   7.130
11042WAT      O33367   2.233   6.255   9.409
11042WAT     H133368   2.181   6.224   9.489
11042WAT     H233369   2.314   6.196   9.397
11043WAT      O33370   3.148   6.193   1.403
11043WAT     H133371   3.219   6.178   1.472
11043WAT     H233372   3.109   6.104   1.376
11044WAT      O33373   5.699   0.490   8.288
11044WAT     H133374   5.691   0.578   8.241
11044WAT     H233375   5.794   0.474   8.313
11045WAT      O33376   4.526   3.496   1.448
11045WAT     H133377   4.575   3.537   1.372
11045WAT     H233378   4.583   3.497   1.530
11046WAT      O33379   4.386   9.086   5.205
11046WAT     H133380   4.350   9.013   5.263
11046WAT     H233381   4.325   9.165   5.209
11047WAT      O33382   9.357   5.211   7.453
11047WAT     H133383   9.305   5.286   7.494
11047WAT     H233384   9.401   5.243   7.369
11048WAT      O33385   8.277   8.984   4.534
11048WAT     H133386   8.189   9.024   4.509
11048WAT     H233387   8.327   9.048   4.593
11049WAT      O33388   1.571   1.629   8.666
11049WAT     H133389   1.664   1.618   8.703
11049WAT     H233390   1.555   1.726   8.646
11050WAT      O33391   0.645   9.143   7.775
11050WAT     H133392   0.672   9.052   7.806
11050WAT     H233393   0.583   9.134   7.697
11051WAT      O33394   5.582   2.946   8.306
11051WAT     H133395   5.589   2.977   8.401
11051WAT     H233396   5.619   2.853   8.299
11052WAT      O33397   6.103   8.892   6.796
11052WAT     H133398   6.187   8.880   6.848
11052WAT     H233399   6.089   8.990   6.777
11053WAT      O33400   5.221   6.466   3.766
11053WAT     H133401   5.181   6.482   3.676
11053WAT     H233402   5.202   6.372   3.794
11054WAT      O33403   3.042   3.327   3.726
11054WAT     H133404   2.969   3.297   3.664
11054WAT     H233405   3.089   3.247   3.762
11055WAT      O33406   0.781   2.975   5.223
11055WAT     H133407   0.769   2.990   5.321
11055WAT     H233408   0.701   3.010   5.174
11056WAT      O33409   9.331   2.734   1.148
11056WAT     H133410   9.380   2.651   1.124
11056WAT     H233411   9.312   2.735   1.246
11057WAT      O33412   4.299   3.200   0.326
11057WAT     H133413   4.238   3.272   0.293
11057WAT     H233414   4.292   3.120   0.266
11058WAT      O33415   2.240   1.132   2.867
11058WAT     H133416   2.224   1.208   2.929
11058WAT     H233417   2.197   1.152   2.778
11059WAT      O33418   6.327   4.538   0.441
11059WAT     H133419   6.355   4.475   0.368
11059WAT     H233420   6.409   4.571   0.489
11060WAT      O33421   5.394   2.256   3.491
11060WAT     H133422   5.312   2.236   3.437
11060WAT     H233423   5.423   2.174   3.539
11061WAT      O33424   4.231   7.973   5.338
11061WAT     H133425   4.133   7.957   5.349
11061WAT     H233426   4.251   7.995   5.242
11062WAT      O33427   1.889   7.129   7.927
11062WAT     H133428   1.884   7.192   8.004
11062WAT     H233429   1.808   7.139   7.869
11063WAT      O33430   8.669   3.746   1.169
11063WAT     H133431   8.599   3.776   1.233
11063WAT     H233432   8.634   3.671   1.112
11064WAT      O33433   5.654   8.532   8.466
11064WAT     H133434   5.588   8.503   8.396
11064WAT     H233435   5.627   8.495   8.555
11065WAT      O33436   0.614   4.348   7.044
11065WAT     H133437   0.562   4.278   7.094
11065WAT     H233438   0.632   4.316   6.951
11066WAT      O33439   1.677   4.021   1.782
11066WAT     H133440   1.700   4.111   1.743
11066WAT     H233441   1.582   4.021   1.811
11067WAT      O33442   3.532   5.559   5.613
11067WAT     H133443   3.566   5.634   5.670
11067WAT     H233444   3.501   5.594   5.525
11068WAT      O33445   6.950   0.307   6.521
11068WAT     H133446   6.964   0.402   6.491
11068WAT     H233447   7.020   0.283   6.588
11069WAT      O33448   1.981   9.384   1.915
11069WAT     H133449   2.033   9.412   1.995
11069WAT     H233450   1.888   9.420   1.921
11070WAT      O33451   8.160   1.404   6.158
11070WAT     H133452   8.229   1.432   6.092
11070WAT     H233453   8.205   1.362   6.237
11071WAT      O33454   8.093   4.440   1.982
11071WAT     H133455   8.192   4.430   1.988
11071WAT     H233456   8.066   4.528   2.021
11072WAT      O33457   1.907   8.049   6.340
11072WAT     H133458   2.006   8.037   6.352
11072WAT     H233459   1.890   8.123   6.274
11073WAT      O33460   9.013   3.779   2.330
11073WAT     H133461   9.072   3.854   2.358
11073WAT     H233462   9.010   3.709   2.401
11074WAT      O33463   9.031   7.543   2.276
11074WAT     H133464   9.062   7.524   2.369
11074WAT     H233465   8.963   7.475   2.249
11075WAT      O33466   9.158   2.142   4.421
11075WAT     H133467   9.116   2.200   4.491
11075WAT     H233468   9.089   2.085   4.378
11076WAT      O33469   8.689   9.256   2.674
11076WAT     H133470   8.652   9.216   2.758
11076WAT     H233471   8.780   9.216   2.656
11077WAT      O33472   5.508   8.609   6.552
11077WAT     H133473   5.499   8.689   6.611
11077WAT     H233474   5.596   8.613   6.504
11078WAT      O33475   8.176   5.532   1.596
11078WAT     H133476   8.168   5.433   1.606
11078WAT     H233477   8.130   5.577   1.672
11079WAT      O33478   2.777   5.326   3.373
11079WAT     H133479   2.847   5.396   3.362
11079WAT     H233480   2.687   5.365   3.353
11080WAT      O33481   0.566   1.050   5.382
11080WAT     H133482   0.620   1.014   5.458
11080WAT     H233483   0.627   1.088   5.312
11081WAT      O33484   4.448   0.581   8.126
11081WAT     H133485   4.498   0.513   8.072
11081WAT     H233486   4.499   0.667   8.126
11082WAT      O33487   6.170   5.112   0.759
11082WAT     H133488   6.112   5.173   0.813
11082WAT     H233489   6.146   5.017   0.777
11083WAT      O33490   7.379   4.436   7.633
11083WAT     H133491   7.342   4.485   7.554
11083WAT     H233492   7.305   4.390   7.682
11084WAT      O33493   6.822   3.728   7.028
11084WAT     H133494   6.911   3.683   7.038
11084WAT     H233495   6.750   3.660   7.025
11085WAT      O33496   0.898   5.272   1.466
11085WAT     H133497   0.912   5.299   1.561
11085WAT     H233498   0.840   5.191   1.462
11086WAT      O33499   2.860   5.910   9.079
11086WAT     H133500   2.946   5.948   9.115
11086WAT     H233501   2.795   5.985   9.065
11087WAT      O33502   3.195   8.511   6.462
11087WAT     H133503   3.186   8.429   6.519
11087WAT     H233504   3.265   8.495   6.392
11088WAT      O33505   7.598   3.763   7.975
11088WAT     H133506   7.557   3.677   7.945
11088WAT     H233507   7.575   3.836   7.911
11089WAT      O33508   7.080   5.009   5.638
11089WAT     H133509   7.173   4.983   5.664
11089WAT     H233510   7.065   5.105   5.658
11090WAT      O33511   1.400   4.476   6.236
11090WAT     H133512   1.358   4.513   6.318
11090WAT     H233513   1.477   4.418   6.261
11091WAT      O33514   5.159   3.339   8.654
11091WAT     H133515   5.087   3.341   8.724
11091WAT     H233516   5.120   3.312   8.566
11092WAT      O33517   6.129   7.978   5.598
11092WAT     H133518   6.194   8.039   5.553
11092WAT     H233519   6.040   7.985   5.552
11093WAT      O33520   1.242   3.437   2.958
11093WAT     H133521   1.276   3.527   2.983
11093WAT     H233522   1.174   3.446   2.884
11094WAT      O33523   0.734   3.779   6.677
11094WAT     H133524   0.688   3.716   6.740
11094WAT     H233525   0.833   3.763   6.681
11095WAT      O33526   6.386   0.649   7.286
11095WAT     H133527   6.324   0.582   7.246
11095WAT     H233528   6.414   0.715   7.216
11096WAT      O33529   4.268   2.577   9.020
11096WAT     H133530   4.245   2.612   8.929
11096WAT     H233531   4.254   2.650   9.088
11097WAT      O33532   4.647   4.637   8.577
11097WAT     H133533   4.582   4.639   8.653
11097WAT     H233534   4.734   4.599   8.610
11098WAT      O33535   5.290   2.866   8.304
11098WAT     H133536   5.390   2.866   8.308
11098WAT     H233537   5.261   2.828   8.216
11099WAT      O33538   7.396   8.423   1.229
11099WAT     H133539   7.464   8.494   1.209
11099WAT     H233540   7.402   8.397   1.325
11100WAT      O33541   1.570   4.365   8.357
11100WAT     H133542   1.618   4.360   8.445
11100WAT     H233543   1.542   4.273   8.329
11101WAT      O33544   2.146   2.954   8.997
11101WAT     H133545   2.177   2.965   8.903
11101WAT     H233546   2.140   3.044   9.041
11102WAT      O33547   6.972   3.633   3.471
11102WAT     H133548   7.052   3.608   3.526
11102WAT     H233549   6.990   3.721   3.426
11103WAT      O33550   7.972   3.813   8.481
11103WAT     H133551   7.979   3.902   8.437
11103WAT     H233552   7.875   3.787   8.488
11104WAT      O33553   8.734   2.676   6.044
11104WAT     H133554   8.751   2.772   6.067
11104WAT     H233555   8.784   2.617   6.107
11105WAT      O33556   3.128   9.322   0.973
11105WAT     H133557   3.116   9.223   0.966
11105WAT     H233558   3.222   9.346   0.945
11106WAT      O33559   1.557   6.266   4.233
11106WAT     H133560   1.597   6.232   4.148
11106WAT     H233561   1.458   6.249   4.232
11107WAT      O33562   7.954   6.511   2.770
11107WAT     H133563   8.051   6.518   2.747
11107WAT     H233564   7.935   6.424   2.814
11108WAT      O33565   0.296   6.904   1.985
11108WAT     H133566   0.348   6.949   1.913
11108WAT     H233567   0.356   6.844   2.037
11109WAT      O33568   7.647   4.358   5.196
11109WAT     H133569   7.609   4.444   5.162
11109WAT     H233570   7.744   4.352   5.170
11110WAT      O33571   6.429   5.233   8.988
11110WAT     H133572   6.389   5.242   8.896
11110WAT     H233573   6.492   5.156   8.988
11111WAT      O33574   5.316   9.611   6.405
11111WAT     H133575   5.338   9.699   6.363
11111WAT     H233576   5.221   9.611   6.436
11112WAT      O33577   6.055   4.068   4.196
11112WAT     H133578   6.124   4.091   4.127
11112WAT     H233579   5.967   4.106   4.169
11113WAT      O33580   2.177   3.872   8.857
11113WAT     H133581   2.242   3.815   8.906
11113WAT     H233582   2.139   3.941   8.919
11114WAT      O33583   2.369   2.471  -0.001
11114WAT     H133584   2.390   2.569  -0.005
11114WAT     H233585   2.315   2.452   0.081
11115WAT      O33586   8.637   5.617   3.064
11115WAT     H133587   8.711   5.555   3.039
11115WAT     H233588   8.669   5.712   3.060
11116WAT      O33589   0.465   7.090   6.831
11116WAT     H133590   0.481   7.064   6.736
11116WAT     H233591   0.423   7.181   6.834
11117WAT      O33592   7.790   1.519   8.954
11117WAT     H133593   7.696   1.499   8.926
11117WAT     H233594   7.822   1.447   9.016
11118WAT      O33595   5.630   7.078   7.778
11118WAT     H133596   5.729   7.089   7.769
11118WAT     H233597   5.594   7.033   7.696
11119WAT      O33598   7.621   4.537   0.342
11119WAT     H133599   7.597   4.531   0.245
11119WAT     H233600   7.686   4.611   0.356
11120WAT      O33601   5.955   6.445   2.846
11120WAT     H133602   6.034   6.485   2.799
11120WAT     H233603   5.987   6.377   2.912
11121WAT      O33604   1.450   7.092   9.801
11121WAT     H133605   1.507   7.117   9.722
11121WAT     H233606   1.383   7.164   9.817
11122WAT      O33607   4.312   6.386   1.280
11122WAT     H133608   4.409   6.365   1.273
11122WAT     H233609   4.276   6.351   1.366
11123WAT      O33610   4.876   5.912   1.766
11123WAT     H133611   4.837   5.823   1.789
11123WAT     H233612   4.974   5.912   1.789
11124WAT      O33613   5.309   1.402   6.524
11124WAT     H133614   5.250   1.460   6.468
11124WAT     H233615   5.304   1.432   6.620
11125WAT      O33616   2.099   6.994   4.366
11125WAT     H133617   2.176   6.986   4.303
11125WAT     H233618   2.018   7.024   4.316
11126WAT      O33619   8.333   2.981   8.100
11126WAT     H133620   8.414   2.950   8.050
11126WAT     H233621   8.343   2.960   8.197
11127WAT      O33622   4.512   3.356   6.454
11127WAT     H133623   4.569   3.301   6.393
11127WAT     H233624   4.563   3.373   6.539
11128WAT      O33625   2.557   0.547   1.570
11128WAT     H133626   2.537   0.465   1.624
11128WAT     H233627   2.601   0.520   1.484
11129WAT      O33628   0.593   2.943   8.364
11129WAT     H133629   0.583   2.846   8.341
11129WAT     H233630   0.651   2.987   8.296
11130WAT      O33631   5.677   6.658   9.559
11130WAT     H133632   5.698   6.750   9.526
11130WAT     H233633   5.758   6.600   9.551
11131WAT      O33634   2.300   6.607   0.399
11131WAT     H133635   2.257   6.696   0.380
11131WAT     H233636   2.357   6.581   0.321
11132WAT      O33637   3.977   5.867   3.771
11132WAT     H133638   4.026   5.881   3.857
11132WAT     H233639   3.961   5.955   3.727
11133WAT      O33640   0.083   2.796   8.938
11133WAT     H133641   0.003   2.841   8.897
11133WAT     H233642   0.145   2.865   8.975
11134WAT      O33643   6.123   9.439   1.639
11134WAT     H133644   6.078   9.522   1.607
11134WAT     H233645   6.215   9.433   1.601
11135WAT      O33646   5.497   0.449   3.214
11135WAT     H133647   5.540   0.464   3.125
11135WAT     H233648   5.446   0.530   3.241
11136WAT      O33649   3.243   8.148   1.856
11136WAT     H133650   3.244   8.131   1.758
11136WAT     H233651   3.149   8.143   1.890
11137WAT      O33652   2.233   7.872   4.407
11137WAT     H133653   2.156   7.850   4.348
11137WAT     H233654   2.317   7.833   4.368
11138WAT      O33655   7.123   3.758   8.975
11138WAT     H133656   7.119   3.774   8.876
11138WAT     H233657   7.212   3.719   8.999
11139WAT      O33658   0.897   5.919   4.688
11139WAT     H133659   0.846   5.920   4.602
11139WAT     H233660   0.847   5.971   4.757
11140WAT      O33661   7.332   6.101   5.214
11140WAT     H133662   7.345   6.078   5.311
11140WAT     H233663   7.356   6.197   5.200
11141WAT      O33664   6.851   2.760   9.269
11141WAT     H133665   6.901   2.733   9.187
11141WAT     H233666   6.775   2.819   9.243
11142WAT      O33667   1.365   3.410   3.292
11142WAT     H133668   1.454   3.456   3.285
11142WAT     H233669   1.370   3.323   3.242
11143WAT      O33670   6.564   5.257   2.158
11143WAT     H133671   6.465   5.266   2.149
11143WAT     H233672   6.605   5.248   2.068
11144WAT      O33673   7.726   9.490   0.992
11144WAT     H133674   7.723   9.524   1.086
11144WAT     H233675   7.775   9.403   0.989
11145WAT      O33676   4.023   5.284   5.097
11145WAT     H133677   4.094   5.296   5.167
11145WAT     H233678   4.061   5.303   5.007
11146WAT      O33679   0.619   6.187   0.595
11146WAT     H133680   0.536   6.179   0.650
11146WAT     H233681   0.695   6.144   0.643
11147WAT      O33682   6.991   3.742   1.524
11147WAT     H133683   7.056   3.754   1.448
11147WAT     H233684   7.038   3.760   1.610
11148WAT      O33685   1.091   7.466   4.298
11148WAT     H133686   1.112   7.394   4.364
11148WAT     H233687   1.129   7.552   4.330
11149WAT      O33688   6.896   5.516   0.680
11149WAT     H133689   6.980   5.479   0.641
11149WAT     H233690   6.909   5.612   0.703
11150WAT      O33691   1.783   9.817   1.883
11150WAT     H133692   1.701   9.761   1.871
11150WAT     H233693   1.789   9.882   1.808
11151WAT      O33694   2.309   0.630   9.480
11151WAT     H133695   2.257   0.713   9.461
11151WAT     H233696   2.349   0.595   9.395
11152WAT      O33697   9.260   5.578   7.288
11152WAT     H133698   9.272   5.541   7.380
11152WAT     H233699   9.163   5.595   7.272
11153WAT      O33700   0.407   3.555   5.330
11153WAT     H133701   0.319   3.535   5.287
11153WAT     H233702   0.393   3.616   5.408
11154WAT      O33703   7.617   2.300   5.569
11154WAT     H133704   7.692   2.235   5.558
11154WAT     H233705   7.573   2.315   5.480
11155WAT      O33706   4.822   1.844   2.001
11155WAT     H133707   4.795   1.779   2.072
11155WAT     H233708   4.753   1.844   1.928
11156WAT      O33709   4.220   0.821   2.633
11156WAT     H133710   4.180   0.731   2.651
11156WAT     H233711   4.223   0.873   2.719
11157WAT      O33712   3.187   5.352   0.354
11157WAT     H133713   3.213   5.301   0.436
11157WAT     H233714   3.087   5.353   0.346
11158WAT      O33715   1.326   2.023   6.502
11158WAT     H133716   1.239   2.069   6.521
11158WAT     H233717   1.378   2.076   6.436
11159WAT      O33718   8.879   8.151   5.263
11159WAT     H133719   8.835   8.231   5.303
11159WAT     H233720   8.813   8.075   5.259
11160WAT      O33721   5.811   9.730   1.844
11160WAT     H133722   5.819   9.699   1.750
11160WAT     H233723   5.895   9.707   1.894
11161WAT      O33724   6.489   1.830   8.715
11161WAT     H133725   6.488   1.800   8.620
11161WAT     H233726   6.398   1.819   8.754
11162WAT      O33727   7.540   5.716   9.871
11162WAT     H133728   7.551   5.665   9.956
11162WAT     H233729   7.553   5.655   9.793
11163WAT      O33730   9.225   8.569   7.373
11163WAT     H133731   9.255   8.535   7.462
11163WAT     H233732   9.226   8.669   7.374
11164WAT      O33733   6.400   3.602   4.075
11164WAT     H133734   6.487   3.650   4.075
11164WAT     H233735   6.325   3.669   4.078
11165WAT      O33736   6.131   0.966   2.323
11165WAT     H133737   6.141   1.035   2.251
11165WAT     H233738   6.121   1.011   2.411
11166WAT      O33739   2.083   3.674   0.570
11166WAT     H133740   1.999   3.658   0.622
11166WAT     H233741   2.124   3.586   0.545
11167WAT      O33742   1.465   6.519   6.741
11167WAT     H133743   1.502   6.525   6.648
11167WAT     H233744   1.518   6.578   6.802
11168WAT      O33745   0.897   1.603   0.823
11168WAT     H133746   0.805   1.624   0.857
11168WAT     H233747   0.958   1.680   0.841
11169WAT      O33748   2.293   9.792   9.827
11169WAT     H133749   2.284   9.881   9.871
11169WAT     H233750   2.205   9.767   9.786
11170WAT      O33751   7.907   9.518   2.881
11170WAT     H133752   7.829   9.580   2.892
11170WAT     H233753   7.975   9.538   2.952
11171WAT      O33754   3.891   6.390   6.337
11171WAT     H133755   3.914   6.483   6.312
11171WAT     H233756   3.852   6.389   6.429
11172WAT      O33757   3.137   6.149   0.998
11172WAT     H133758   3.107   6.233   1.041
11172WAT     H233759   3.126   6.073   1.062
11173WAT      O33760   7.209   4.935   1.274
11173WAT     H133761   7.189   4.892   1.362
11173WAT     H233762   7.280   4.883   1.227
11174WAT      O33763   0.899   4.068   6.404
11174WAT     H133764   0.896   3.982   6.354
11174WAT     H233765   0.837   4.063   6.483
11175WAT      O33766   5.211   3.733   8.501
11175WAT     H133767   5.218   3.639   8.467
11175WAT     H233768   5.254   3.795   8.435
11176WAT      O33769   2.909   3.173   8.431
11176WAT     H133770   2.832   3.237   8.434
11176WAT     H233771   2.992   3.223   8.405
11177WAT      O33772   0.067   2.895   9.714
11177WAT     H133773  -0.003   2.950   9.761
11177WAT     H233774   0.024   2.815   9.672
11178WAT      O33775   6.874   8.043   8.172
11178WAT     H133776   6.792   7.986   8.165
11178WAT     H233777   6.864   8.107   8.248
11179WAT      O33778   0.306   7.803   7.393
11179WAT     H133779   0.244   7.765   7.462
11179WAT     H233780   0.254   7.825   7.311
11180WAT      O33781   4.935   7.961   8.675
11180WAT     H133782   4.940   7.974   8.576
11180WAT     H233783   4.844   7.928   8.700
11181WAT      O33784   2.366   9.065   5.876
11181WAT     H133785   2.421   8.996   5.924
11181WAT     H233786   2.270   9.055   5.903
11182WAT      O33787   9.852   8.488   8.340
11182WAT     H133788   9.875   8.427   8.416
11182WAT     H233789   9.852   8.435   8.254
11183WAT      O33790   0.543   6.906   3.721
11183WAT     H133791   0.553   6.840   3.795
11183WAT     H233792   0.588   6.992   3.746
11184WAT      O33793   5.442   3.928   7.105
11184WAT     H133794   5.365   3.869   7.079
11184WAT     H233795   5.518   3.913   7.041
11185WAT      O33796   5.193   0.677   2.479
11185WAT     H133797   5.276   0.622   2.484
11185WAT     H233798   5.144   0.657   2.395
11186WAT      O33799   2.814   6.563   1.606
11186WAT     H133800   2.900   6.559   1.555
11186WAT     H233801   2.821   6.631   1.679
11187WAT      O33802   8.630   3.463   6.959
11187WAT     H133803   8.566   3.480   6.884
11187WAT     H233804   8.666   3.550   6.993
11188WAT      O33805   0.683   1.961   8.245
11188WAT     H133806   0.620   1.894   8.284
11188WAT     H233807   0.777   1.930   8.255
11189WAT      O33808   0.684   4.937   6.943
11189WAT     H133809   0.781   4.958   6.935
11189WAT     H233810   0.666   4.894   7.031
11190WAT      O33811   7.496   4.346   4.525
11190WAT     H133812   7.513   4.388   4.614
11190WAT     H233813   7.576   4.293   4.497
11191WAT      O33814   4.031   3.299   1.655
11191WAT     H133815   3.965   3.323   1.583
11191WAT     H233816   4.064   3.383   1.698
11192WAT      O33817   8.915   1.426   9.724
11192WAT     H133818   8.994   1.364   9.717
11192WAT     H233819   8.838   1.387   9.673
11193WAT      O33820   4.921   1.285   4.979
11193WAT     H133821   5.020   1.296   4.973
11193WAT     H233822   4.890   1.315   5.070
11194WAT      O33823   7.384   3.969   4.592
11194WAT     H133824   7.456   3.967   4.522
11194WAT     H233825   7.324   4.047   4.576
11195WAT      O33826   5.115   4.943   0.059
11195WAT     H133827   5.100   4.888  -0.023
11195WAT     H233828   5.200   4.994   0.051
11196WAT      O33829   1.109   0.269   4.495
11196WAT     H133830   1.180   0.266   4.565
11196WAT     H233831   1.086   0.365   4.475
11197WAT      O33832   5.728   8.928   4.035
11197WAT     H133833   5.710   8.921   4.133
11197WAT     H233834   5.827   8.939   4.020
11198WAT      O33835   2.107   8.217   7.338
11198WAT     H133836   2.021   8.234   7.386
11198WAT     H233837   2.101   8.253   7.245
11199WAT      O33838   4.779   2.594   8.608
11199WAT     H133839   4.720   2.586   8.688
11199WAT     H233840   4.858   2.533   8.618
11200WAT      O33841   3.722   5.439   4.425
11200WAT     H133842   3.725   5.481   4.516
11200WAT     H233843   3.710   5.510   4.356
11201WAT      O33844   5.747   3.433   5.982
11201WAT     H133845   5.722   3.337   5.995
11201WAT     H233846   5.785   3.468   6.068
11202WAT      O33847   4.329   3.416   9.229
11202WAT     H133848   4.403   3.359   9.265
11202WAT     H233849   4.310   3.490   9.293
11203WAT      O33850   9.152   5.559   9.816
11203WAT     H133851   9.175   5.645   9.861
11203WAT     H233852   9.053   5.542   9.823
11204WAT      O33853   8.833   4.087   6.570
11204WAT     H133854   8.746   4.091   6.521
11204WAT     H233855   8.897   4.152   6.531
11205WAT      O33856   0.647   6.810   7.985
11205WAT     H133857   0.728   6.758   8.013
11205WAT     H233858   0.618   6.869   8.060
11206WAT      O33859   3.013   3.900   3.154
11206WAT     H133860   3.076   3.828   3.185
11206WAT     H233861   3.057   3.951   3.079
11207WAT      O33862   0.653   3.685   2.100
11207WAT     H133863   0.618   3.715   2.188
11207WAT     H233864   0.684   3.764   2.048
11208WAT      O33865   2.270   2.349   9.386
11208WAT     H133866   2.256   2.373   9.482
11208WAT     H233867   2.274   2.249   9.377
11209WAT      O33868   9.375   5.700   9.517
11209WAT     H133869   9.459   5.733   9.560
11209WAT     H233870   9.296   5.744   9.560
11210WAT      O33871   4.304   2.168   0.048
11210WAT     H133872   4.287   2.088  -0.010
11210WAT     H233873   4.306   2.140   0.144
11211WAT      O33874   6.550   3.296   7.710
11211WAT     H133875   6.497   3.212   7.720
11211WAT     H233876   6.596   3.297   7.621
11212WAT      O33877   1.342   9.043   1.602
11212WAT     H133878   1.366   8.993   1.685
11212WAT     H233879   1.274   9.113   1.624
11213WAT      O33880   2.017   5.144   9.005
11213WAT     H133881   1.957   5.105   9.075
11213WAT     H233882   1.979   5.232   8.974
11214WAT      O33883   5.104   9.333   5.859
11214WAT     H133884   5.150   9.411   5.902
11214WAT     H233885   5.013   9.362   5.828
11215WAT      O33886   4.868   4.930   6.088
11215WAT     H133887   4.906   4.908   5.998
11215WAT     H233888   4.768   4.936   6.080
11216WAT      O33889   3.704   2.872   6.993
11216WAT     H133890   3.648   2.884   6.911
11216WAT     H233891   3.782   2.935   6.991
11217WAT      O33892   7.154   2.501   8.815
11217WAT     H133893   7.089   2.465   8.882
11217WAT     H233894   7.227   2.550   8.862
11218WAT      O33895   2.008   6.457   7.420
11218WAT     H133896   2.018   6.396   7.498
11218WAT     H233897   2.092   6.511   7.409
11219WAT      O33898   0.214   0.939   8.600
11219WAT     H133899   0.133   0.997   8.591
11219WAT     H233900   0.260   0.959   8.687
11220WAT      O33901   6.088   7.109   2.188
11220WAT     H133902   6.166   7.051   2.165
11220WAT     H233903   6.005   7.054   2.189
11221WAT      O33904   6.186   1.755   0.823
11221WAT     H133905   6.260   1.693   0.849
11221WAT     H233906   6.104   1.702   0.801
11222WAT      O33907   5.340   5.099   3.614
11222WAT     H133908   5.327   5.007   3.651
11222WAT     H233909   5.305   5.166   3.679
11223WAT      O33910   9.606   7.350   6.731
11223WAT     H133911   9.566   7.437   6.704
11223WAT     H233912   9.696   7.366   6.772
11224WAT      O33913   8.452   8.255   1.031
11224WAT     H133914   8.454   8.326   1.102
11224WAT     H233915   8.359   8.220   1.021
11225WAT      O33916   4.438   3.874   5.396
11225WAT     H133917   4.428   3.929   5.480
11225WAT     H233918   4.385   3.790   5.406
11226WAT      O33919   7.393   5.424   7.608
11226WAT     H133920   7.323   5.461   7.669
11226WAT     H233921   7.352   5.402   7.519
11227WAT      O33922   5.494   7.920   5.342
11227WAT     H133923   5.454   7.914   5.433
11227WAT     H233924   5.425   7.897   5.273
11228WAT      O33925   6.818   4.131   7.907
11228WAT     H133926   6.817   4.099   8.001
11228WAT     H233927   6.737   4.097   7.859
11229WAT      O33928   3.293   6.923   6.510
11229WAT     H133929   3.289   6.904   6.412
11229WAT     H233930   3.297   7.022   6.525
11230WAT      O33931   7.619   1.884   6.681
11230WAT     H133932   7.615   1.981   6.658
11230WAT     H233933   7.592   1.871   6.776
11231WAT      O33934   0.505   5.484   4.346
11231WAT     H133935   0.518   5.519   4.254
11231WAT     H233936   0.593   5.477   4.392
11232WAT      O33937   7.501   8.550   6.458
11232WAT     H133938   7.538   8.527   6.548
11232WAT     H233939   7.502   8.649   6.445
11233WAT      O33940   1.607   0.212   8.512
11233WAT     H133941   1.516   0.244   8.488
11233WAT     H233942   1.667   0.291   8.526
11234WAT      O33943   3.527   2.209   5.135
11234WAT     H133944   3.463   2.143   5.097
11234WAT     H233945   3.585   2.164   5.203
11235WAT      O33946   8.673   6.526   9.239
11235WAT     H133947   8.748   6.590   9.255
11235WAT     H233948   8.678   6.490   9.146
11236WAT      O33949   1.969   3.201   0.040
11236WAT     H133950   1.994   3.131   0.106
11236WAT     H233951   1.992   3.170  -0.052
11237WAT      O33952   5.677   8.332   9.118
11237WAT     H133953   5.626   8.314   9.033
11237WAT     H233954   5.640   8.414   9.162
11238WAT      O33955   1.664   7.267   7.845
11238WAT     H133956   1.662   7.268   7.745
11238WAT     H233957   1.658   7.360   7.879
11239WAT      O33958   5.018   7.633   8.366
11239WAT     H133959   5.098   7.574   8.366
11239WAT     H233960   5.011   7.680   8.454
11240WAT      O33961   6.950   6.334   5.826
11240WAT     H133962   7.027   6.397   5.816
11240WAT     H233963   6.943   6.305   5.921
11241WAT      O33964   5.451   1.264   4.117
11241WAT     H133965   5.410   1.324   4.048
11241WAT     H233966   5.523   1.210   4.075
11242WAT      O33967   7.892   3.386   1.329
11242WAT     H133968   7.887   3.286   1.319
11242WAT     H233969   7.901   3.428   1.239
11243WAT      O33970   4.159   4.494   3.776
11243WAT     H133971   4.148   4.410   3.723
11243WAT     H233972   4.156   4.472   3.874
11244WAT      O33973   8.039   7.768   1.372
11244WAT     H133974   8.081   7.794   1.459
11244WAT     H233975   7.942   7.793   1.373
11245WAT      O33976   0.814   6.263   0.316
11245WAT     H133977   0.796   6.332   0.245
11245WAT     H233978   0.772   6.292   0.402
11246WAT      O33979   9.543   0.740   2.230
11246WAT     H133980   9.586   0.650   2.238
11246WAT     H233981   9.520   0.775   2.321
11247WAT      O33982   6.057   1.419   2.882
11247WAT     H133983   5.969   1.375   2.865
11247WAT     H233984   6.059   1.452   2.977
11248WAT      O33985   3.053   3.027   9.085
11248WAT     H133986   2.980   3.011   9.018
11248WAT     H233987   3.082   3.123   9.080
11249WAT      O33988   6.500   9.676   5.517
11249WAT     H133989   6.506   9.752   5.452
11249WAT     H233990   6.479   9.592   5.468
11250WAT      O33991   0.757   3.024   6.978
11250WAT     H133992   0.839   3.081   6.979
11250WAT     H233993   0.677   3.080   7.002
11251WAT      O33994   4.341   7.307   6.332
11251WAT     H133995   4.423   7.354   6.365
11251WAT     H233996   4.363   7.211   6.313
11252WAT      O33997   7.796   2.100   1.504
11252WAT     H133998   7.769   2.162   1.578
11252WAT     H233999   7.888   2.123   1.473
11253WAT      O34000   9.338   5.851   8.542
11253WAT     H134001   9.295   5.815   8.459
11253WAT     H234002   9.277   5.834   8.620
11254WAT      O34003   2.437   9.645   2.720
11254WAT     H134004   2.429   9.618   2.624
11254WAT     H234005   2.525   9.691   2.735
11255WAT      O34006   5.296   4.701   1.998
11255WAT     H134007   5.254   4.621   1.954
11255WAT     H234008   5.310   4.682   2.095
11256WAT      O34009   6.603   1.924   4.185
11256WAT     H134010   6.552   1.888   4.264
11256WAT     H234011   6.629   1.849   4.125
11257WAT      O34012   3.778   0.707   8.815
11257WAT     H134013   3.791   0.806   8.822
11257WAT     H234014   3.859   0.665   8.774
11258WAT      O34015   6.891   7.608   9.491
11258WAT     H134016   6.935   7.694   9.464
11258WAT     H234017   6.889   7.545   9.412
11259WAT      O34018   2.121   8.372   0.634
11259WAT     H134019   2.084   8.375   0.727
11259WAT     H234020   2.104   8.460   0.589
11260WAT      O34021   0.115   1.739   7.007
11260WAT     H134022   0.188   1.672   7.022
11260WAT     H234023   0.151   1.831   7.024
11261WAT      O34024   8.337   5.839   0.834
11261WAT     H134025   8.364   5.782   0.756
11261WAT     H234026   8.273   5.788   0.892
11262WAT      O34027   9.199   6.393   3.736
11262WAT     H134028   9.188   6.488   3.708
11262WAT     H234029   9.281   6.355   3.695
11263WAT      O34030   9.653   1.289   9.414
11263WAT     H134031   9.618   1.333   9.331
11263WAT     H234032   9.708   1.355   9.466
11264WAT      O34033   2.377   8.566   7.805
11264WAT     H134034   2.413   8.565   7.712
11264WAT     H234035   2.277   8.559   7.803
11265WAT      O34036   4.630   3.931   7.703
11265WAT     H134037   4.646   3.915   7.800
11265WAT     H234038   4.716   3.923   7.652
11266WAT      O34039   9.600   8.055   1.082
11266WAT     H134040   9.675   8.022   1.138
11266WAT     H234041   9.513   8.026   1.122
11267WAT      O34042   4.131   8.613   4.364
11267WAT     H134043   4.150   8.626   4.462
11267WAT     H234044   4.166   8.691   4.313
11268WAT      O34045   3.866   7.089   6.001
11268WAT     H134046   3.767   7.098   6.011
11268WAT     H234047   3.888   7.006   5.951
11269WAT      O34048   7.050   5.223   1.018
11269WAT     H134049   7.140   5.225   0.974
11269WAT     H234050   6.979   5.242   0.950
11270WAT      O34051   2.843   8.125   9.472
11270WAT     H134052   2.821   8.159   9.564
11270WAT     H234053   2.764   8.075   9.435
11271WAT      O34054   4.983   8.648   0.387
11271WAT     H134055   5.076   8.612   0.401
11271WAT     H234056   4.988   8.744   0.361
11272WAT      O34057   4.924   9.595   0.063
11272WAT     H134058   4.997   9.635   0.119
11272WAT     H234059   4.962   9.561  -0.023
11273WAT      O34060   5.108   7.053   2.033
11273WAT     H134061   5.106   7.017   2.126
11273WAT     H234062   5.145   6.984   1.971
11274WAT      O34063   7.084   6.633   9.525
11274WAT     H134064   7.089   6.590   9.434
11274WAT     H234065   7.038   6.721   9.517
11275WAT      O34066   3.390   3.311   7.980
11275WAT     H134067   3.448   3.230   7.983
11275WAT     H234068   3.418   3.370   7.906
11276WAT      O34069   7.629   4.212   4.007
11276WAT     H134070   7.593   4.288   3.953
11276WAT     H234071   7.559   4.140   4.015
11277WAT      O34072   1.769   7.144   1.693
11277WAT     H134073   1.859   7.185   1.678
11277WAT     H234074   1.722   7.192   1.767
11278WAT      O34075   6.061   8.716   4.630
11278WAT     H134076   6.073   8.735   4.533
11278WAT     H234077   6.128   8.766   4.684
11279WAT      O34078   5.660   8.682   5.099
11279WAT     H134079   5.592   8.749   5.067
11279WAT     H234080   5.715   8.723   5.171
11280WAT      O34081   5.989   9.088   7.585
11280WAT     H134082   6.022   9.180   7.607
11280WAT     H234083   5.899   9.094   7.541
11281WAT      O34084   9.173   2.171   2.033
11281WAT     H134085   9.184   2.249   1.971
11281WAT     H234086   9.076   2.151   2.043
11282WAT      O34087   4.729   5.677   5.624
11282WAT     H134088   4.689   5.694   5.534
11282WAT     H234089   4.783   5.593   5.621
11283WAT      O34090   1.719   8.495   0.100
11283WAT     H134091   1.667   8.440   0.034
11283WAT     H234092   1.806   8.450   0.120
11284WAT      O34093   1.519   9.752   6.318
11284WAT     H134094   1.505   9.708   6.407
11284WAT     H234095   1.597   9.814   6.324
11285WAT      O34096   3.815   6.552   8.983
11285WAT     H134097   3.826   6.607   9.065
11285WAT     H234098   3.731   6.577   8.936
11286WAT      O34099   3.817   6.407   8.626
11286WAT     H134100   3.858   6.405   8.535
11286WAT     H234101   3.888   6.419   8.695
11287WAT      O34102   6.596   6.831   3.092
11287WAT     H134103   6.571   6.928   3.090
11287WAT     H234104   6.563   6.787   3.008
11288WAT      O34105   8.633   0.221   4.590
11288WAT     H134106   8.538   0.253   4.581
11288WAT     H234107   8.637   0.151   4.661
11289WAT      O34108   9.576   3.957   5.150
11289WAT     H134109   9.644   3.888   5.178
11289WAT     H234110   9.569   4.027   5.222
11290WAT      O34111   5.165   8.329   6.346
11290WAT     H134112   5.220   8.366   6.421
11290WAT     H234113   5.195   8.369   6.259
11291WAT      O34114   8.002   6.182   0.720
11291WAT     H134115   8.000   6.122   0.800
11291WAT     H234116   7.909   6.197   0.687
11292WAT      O34117   5.165   9.041   6.688
11292WAT     H134118   5.134   9.136   6.679
11292WAT     H234119   5.254   9.030   6.644
11293WAT      O34120   6.149   5.593   3.644
11293WAT     H134121   6.102   5.601   3.732
11293WAT     H234122   6.173   5.497   3.628
11294WAT      O34123   8.798   1.925   3.234
11294WAT     H134124   8.859   1.878   3.171
11294WAT     H234125   8.758   1.858   3.297
11295WAT      O34126   8.196   9.349   1.131
11295WAT     H134127   8.217   9.412   1.205
11295WAT     H234128   8.241   9.261   1.148
11296WAT      O34129   6.034   6.342   3.118
11296WAT     H134130   6.116   6.394   3.141
11296WAT     H234131   5.960   6.368   3.179
11297WAT      O34132   9.308   0.251   5.625
11297WAT     H134133   9.400   0.290   5.637
11297WAT     H234134   9.240   0.324   5.633
11298WAT      O34135   3.463   2.051   1.981
11298WAT     H134136   3.413   2.054   1.894
11298WAT     H234137   3.542   1.989   1.971
11299WAT      O34138   3.974   2.566   4.055
11299WAT     H134139   4.009   2.659   4.045
11299WAT     H234140   3.881   2.561   4.017
11300WAT      O34141   4.323   8.497   8.218
11300WAT     H134142   4.263   8.429   8.260
11300WAT     H234143   4.284   8.588   8.231
11301WAT      O34144   6.002   1.533   0.773
11301WAT     H134145   6.076   1.471   0.746
11301WAT     H234146   5.917   1.481   0.783
11302WAT      O34147   9.876   8.039   5.149
11302WAT     H134148   9.957   7.999   5.106
11302WAT     H234149   9.889   8.044   5.248
11303WAT      O34150   0.399   4.287   1.564
11303WAT     H134151   0.496   4.296   1.588
11303WAT     H234152   0.391   4.224   1.486
11304WAT      O34153   0.912   8.357   4.015
11304WAT     H134154   0.853   8.320   4.086
11304WAT     H234155   0.956   8.441   4.048
11305WAT      O34156   5.324   8.395   7.674
11305WAT     H134157   5.362   8.303   7.684
11305WAT     H234158   5.310   8.435   7.764
11306WAT      O34159   7.388   9.675   6.580
11306WAT     H134160   7.440   9.593   6.554
11306WAT     H234161   7.431   9.756   6.540
11307WAT      O34162   0.058   1.287   8.782
11307WAT     H134163   0.083   1.220   8.712
11307WAT     H234164   0.023   1.370   8.738
11308WAT      O34165   7.756   9.698   6.263
11308WAT     H134166   7.664   9.689   6.223
11308WAT     H234167   7.749   9.703   6.362
11309WAT      O34168   0.736   1.285   8.807
11309WAT     H134169   0.823   1.278   8.760
11309WAT     H234170   0.751   1.319   8.900
11310WAT      O34171   9.790   9.685   7.632
11310WAT     H134172   9.812   9.765   7.576
11310WAT     H234173   9.702   9.647   7.603
11311WAT      O34174   9.306   2.832   9.274
11311WAT     H134175   9.224   2.889   9.279
11311WAT     H234176   9.290   2.746   9.324
11312WAT      O34177   1.126   3.719   7.348
11312WAT     H134178   1.044   3.721   7.291
11312WAT     H234179   1.144   3.811   7.383
11313WAT      O34180   1.553   0.276   2.994
11313WAT     H134181   1.532   0.227   2.909
11313WAT     H234182   1.468   0.298   3.041
11314WAT      O34183   2.716   4.753   8.077
11314WAT     H134184   2.747   4.662   8.049
11314WAT     H234185   2.737   4.767   8.174
11315WAT      O34186   0.030   4.967   6.708
11315WAT     H134187  -0.035   5.036   6.738
11315WAT     H234188   0.108   5.011   6.663
11316WAT      O34189   8.244   1.865   6.348
11316WAT     H134190   8.198   1.819   6.424
11316WAT     H234191   8.176   1.893   6.280
11317WAT      O34192   3.774   6.842   7.864
11317WAT     H134193   3.796   6.935   7.835
11317WAT     H234194   3.722   6.844   7.949
11318WAT      O34195   0.676   0.931   7.565
11318WAT     H134196   0.765   0.930   7.518
11318WAT     H234197   0.636   1.022   7.555
11319WAT      O34198   1.084   2.266   4.314
11319WAT     H134199   1.095   2.365   4.301
11319WAT     H234200   1.029   2.249   4.395
11320WAT      O34201   2.343   0.479   6.989
11320WAT     H134202   2.322   0.570   7.023
11320WAT     H234203   2.264   0.443   6.938
11321WAT      O34204   4.126   7.995   1.033
11321WAT     H134205   4.164   8.021   1.122
11321WAT     H234206   4.196   8.004   0.963
11322WAT      O34207   8.507   3.665   0.731
11322WAT     H134208   8.547   3.722   0.659
11322WAT     H234209   8.409   3.657   0.717
11323WAT      O34210   6.434   4.247   7.282
11323WAT     H134211   6.455   4.166   7.227
11323WAT     H234212   6.520   4.291   7.309
11324WAT      O34213   5.571   2.683   6.245
11324WAT     H134214   5.532   2.592   6.231
11324WAT     H234215   5.658   2.675   6.294
11325WAT      O34216   6.449   8.112   0.108
11325WAT     H134217   6.521   8.168   0.147
11325WAT     H234218   6.380   8.092   0.178
11326WAT      O34219   1.988   7.741   3.445
11326WAT     H134220   2.076   7.735   3.398
11326WAT     H234221   2.003   7.738   3.544
11327WAT      O34222   1.244   0.317   5.741
11327WAT     H134223   1.166   0.376   5.724
11327WAT     H234224   1.259   0.308   5.839
11328WAT      O34225   3.582   7.795   2.272
11328WAT     H134226   3.530   7.756   2.196
11328WAT     H234227   3.554   7.890   2.286
11329WAT      O34228   5.545   4.320   1.438
11329WAT     H134229   5.602   4.355   1.363
11329WAT     H234230   5.487   4.246   1.403
11330WAT      O34231   7.340   1.695   2.485
11330WAT     H134232   7.248   1.689   2.523
11330WAT     H234233   7.368   1.606   2.450
11331WAT      O34234   6.454   8.449   6.764
11331WAT     H134235   6.431   8.541   6.732
11331WAT     H234236   6.369   8.397   6.779
11332WAT      O34237   0.817   0.955   1.363
11332WAT     H134238   0.748   1.010   1.316
11332WAT     H234239   0.798   0.956   1.462
11333WAT      O34240   7.403   2.378   2.393
11333WAT     H134241   7.394   2.305   2.325
11333WAT     H234242   7.426   2.338   2.482
11334WAT      O34243   9.429   2.180   1.465
11334WAT     H134244   9.461   2.274   1.476
11334WAT     H234245   9.408   2.163   1.369
11335WAT      O34246   6.011   1.977   4.853
11335WAT     H134247   5.954   2.041   4.802
11335WAT     H234248   5.953   1.907   4.896
11336WAT      O34249   9.333   8.141   2.622
11336WAT     H134250   9.275   8.221   2.610
11336WAT     H234251   9.355   8.130   2.720
11337WAT      O34252   0.343   9.812   6.148
11337WAT     H134253   0.359   9.842   6.053
11337WAT     H234254   0.424   9.833   6.203
11338WAT      O34255   8.849   3.779   8.078
11338WAT     H134256   8.945   3.755   8.087
11338WAT     H234257   8.840   3.862   8.023
11339WAT      O34258   4.490   1.356   8.117
11339WAT     H134259   4.445   1.294   8.181
11339WAT     H234260   4.423   1.416   8.076
11340WAT      O34261   3.604   6.126   6.357
11340WAT     H134262   3.519   6.084   6.389
11340WAT     H234263   3.602   6.132   6.257
11341WAT      O34264   6.134   7.793   8.543
11341WAT     H134265   6.134   7.866   8.611
11341WAT     H234266   6.153   7.705   8.587
11342WAT      O34267   2.522   2.249   0.273
11342WAT     H134268   2.503   2.283   0.365
11342WAT     H234269   2.621   2.245   0.259
11343WAT      O34270   3.034   0.330   9.524
11343WAT     H134271   2.939   0.306   9.544
11343WAT     H234272   3.092   0.303   9.601
11344WAT      O34273   5.436   9.571   0.949
11344WAT     H134274   5.396   9.519   1.023
11344WAT     H234275   5.405   9.535   0.861
11345WAT      O34276   9.064   1.802   3.448
11345WAT     H134277   8.986   1.758   3.493
11345WAT     H234278   9.149   1.772   3.491
11346WAT      O34279   1.356   2.875   3.595
11346WAT     H134280   1.408   2.961   3.590
11346WAT     H234281   1.286   2.882   3.666
11347WAT      O34282   4.261   9.399   4.690
11347WAT     H134283   4.237   9.305   4.713
11347WAT     H234284   4.350   9.400   4.643
11348WAT      O34285   8.788   0.863   7.414
11348WAT     H134286   8.877   0.820   7.429
11348WAT     H234287   8.773   0.875   7.316
11349WAT      O34288   4.223   3.795   6.919
11349WAT     H134289   4.206   3.893   6.912
11349WAT     H234290   4.259   3.760   6.833
11350WAT      O34291   9.512   1.062   9.781
11350WAT     H134292   9.580   1.096   9.846
11350WAT     H234293   9.434   1.125   9.779
11351WAT      O34294   1.634   4.418   4.436
11351WAT     H134295   1.587   4.329   4.431
11351WAT     H234296   1.566   4.490   4.454
11352WAT      O34297   8.120   3.226   6.675
11352WAT     H134298   8.144   3.134   6.643
11352WAT     H234299   8.087   3.221   6.769
11353WAT      O34300   3.634   5.827   4.881
11353WAT     H134301   3.581   5.805   4.799
11353WAT     H234302   3.597   5.910   4.922
11354WAT      O34303   6.523   7.897   3.921
11354WAT     H134304   6.545   7.991   3.947
11354WAT     H234305   6.466   7.898   3.839
11355WAT      O34306   8.677   4.923   6.555
11355WAT     H134307   8.755   4.890   6.501
11355WAT     H234308   8.592   4.906   6.505
11356WAT      O34309   0.215   3.894   3.480
11356WAT     H134310   0.237   3.986   3.513
11356WAT     H234311   0.298   3.849   3.449
11357WAT      O34312   0.576   2.112   1.660
11357WAT     H134313   0.645   2.113   1.733
11357WAT     H234314   0.541   2.205   1.646
11358WAT      O34315   4.273   5.523   7.618
11358WAT     H134316   4.297   5.427   7.603
11358WAT     H234317   4.206   5.530   7.692
11359WAT      O34318   2.331   9.192   1.899
11359WAT     H134319   2.250   9.152   1.856
11359WAT     H234320   2.339   9.288   1.874
11360WAT      O34321   2.547   6.405   6.670
11360WAT     H134322   2.570   6.502   6.660
11360WAT     H234323   2.528   6.385   6.767
11361WAT      O34324   4.255   7.081   8.194
11361WAT     H134325   4.199   7.078   8.111
11361WAT     H234326   4.239   7.167   8.242
11362WAT      O34327   2.296   4.656   7.499
11362WAT     H134328   2.231   4.703   7.439
11362WAT     H234329   2.389   4.682   7.475
11363WAT      O34330   6.526   5.781   0.490
11363WAT     H134331   6.578   5.751   0.409
11363WAT     H234332   6.436   5.814   0.461
11364WAT      O34333   9.205   2.225   0.003
11364WAT     H134334   9.137   2.295  -0.019
11364WAT     H234335   9.230   2.233   0.099
11365WAT      O34336   0.164   2.821   5.417
11365WAT     H134337   0.145   2.725   5.395
11365WAT     H234338   0.189   2.871   5.334
11366WAT      O34339   0.894   0.395   8.592
11366WAT     H134340   0.876   0.297   8.600
11366WAT     H234341   0.883   0.424   8.496
11367WAT      O34342   3.042   3.714   5.421
11367WAT     H134343   3.129   3.666   5.435
11367WAT     H234344   3.058   3.802   5.377
11368WAT      O34345   3.158   4.103   0.352
11368WAT     H134346   3.246   4.096   0.304
11368WAT     H234347   3.173   4.132   0.446
11369WAT      O34348   8.802   0.044   8.673
11369WAT     H134349   8.875   0.110   8.658
11369WAT     H234350   8.832  -0.046   8.640
11370WAT      O34351   1.201   2.077   5.524
11370WAT     H134352   1.161   2.114   5.441
11370WAT     H234353   1.301   2.081   5.519
11371WAT      O34354   3.562   4.840   3.025
11371WAT     H134355   3.501   4.913   3.054
11371WAT     H234356   3.557   4.830   2.925
11372WAT      O34357   1.492   0.639   0.569
11372WAT     H134358   1.444   0.617   0.654
11372WAT     H234359   1.452   0.586   0.494
11373WAT      O34360   3.876   6.374   9.478
11373WAT     H134361   3.957   6.325   9.508
11373WAT     H234362   3.867   6.459   9.530
11374WAT      O34363   3.087   6.342   1.181
11374WAT     H134364   2.988   6.333   1.191
11374WAT     H234365   3.131   6.321   1.269
11375WAT      O34366   3.081   8.537   7.664
11375WAT     H134367   3.041   8.569   7.578
11375WAT     H234368   3.008   8.508   7.726
11376WAT      O34369   2.757   9.550   3.234
11376WAT     H134370   2.737   9.468   3.287
11376WAT     H234371   2.673   9.581   3.188
11377WAT      O34372   3.940   7.063   6.582
11377WAT     H134373   3.952   7.110   6.670
11377WAT     H234374   3.902   7.128   6.516
11378WAT      O34375   0.782   4.363   8.197
11378WAT     H134376   0.801   4.371   8.099
11378WAT     H234377   0.785   4.454   8.239
11379WAT      O34378   8.434   5.618   1.534
11379WAT     H134379   8.422   5.674   1.452
11379WAT     H234380   8.351   5.564   1.549
11380WAT      O34381   0.758   3.659   9.776
11380WAT     H134382   0.760   3.738   9.715
11380WAT     H234383   0.827   3.671   9.848
11381WAT      O34384   6.956   8.684   5.583
11381WAT     H134385   6.934   8.767   5.633
11381WAT     H234386   7.017   8.705   5.507
11382WAT      O34387   2.884   8.393   7.830
11382WAT     H134388   2.880   8.467   7.898
11382WAT     H234389   2.887   8.305   7.877
11383WAT      O34390   0.884   3.345   4.342
11383WAT     H134391   0.959   3.409   4.355
11383WAT     H234392   0.913   3.253   4.369
11384WAT      O34393   4.083   0.150   3.763
11384WAT     H134394   4.088   0.190   3.672
11384WAT     H234395   4.073   0.223   3.831
11385WAT      O34396   2.510   8.222   0.972
11385WAT     H134397   2.570   8.229   1.052
11385WAT     H234398   2.429   8.278   0.986
11386WAT      O34399   2.744   2.150   2.701
11386WAT     H134400   2.651   2.181   2.682
11386WAT     H234401   2.741   2.060   2.745
11387WAT      O34402   9.246   4.702   8.782
11387WAT     H134403   9.319   4.642   8.815
11387WAT     H234404   9.158   4.658   8.796
11388WAT      O34405   7.082   3.133   8.162
11388WAT     H134406   7.132   3.047   8.158
11388WAT     H234407   7.081   3.176   8.072
11389WAT      O34408   0.377   1.351   9.695
11389WAT     H134409   0.390   1.257   9.726
11389WAT     H234410   0.423   1.413   9.759
11390WAT      O34411   8.215   9.412   4.710
11390WAT     H134412   8.255   9.501   4.734
11390WAT     H234413   8.239   9.345   4.780
11391WAT      O34414   2.724   4.472   3.694
11391WAT     H134415   2.794   4.517   3.750
11391WAT     H234416   2.639   4.525   3.699
11392WAT      O34417   0.483   8.409   7.311
11392WAT     H134418   0.449   8.490   7.359
11392WAT     H234419   0.441   8.327   7.350
11393WAT      O34420   1.580   7.240   0.992
11393WAT     H134421   1.583   7.338   0.969
11393WAT     H234422   1.580   7.186   0.909
11394WAT      O34423   0.225   9.747   0.630
11394WAT     H134424   0.322   9.738   0.653
11394WAT     H234425   0.169   9.735   0.712
11395WAT      O34426   8.334   5.887   5.313
11395WAT     H134427   8.261   5.823   5.338
11395WAT     H234428   8.295   5.965   5.266
11396WAT      O34429   6.903   9.675   0.287
11396WAT     H134430   6.847   9.741   0.236
11396WAT     H234431   6.952   9.721   0.360
11397WAT      O34432   7.590   4.792   1.815
11397WAT     H134433   7.507   4.741   1.838
11397WAT     H234434   7.669   4.745   1.855
11398WAT      O34435   7.155   0.488   1.315
11398WAT     H134436   7.118   0.401   1.349
11398WAT     H234437   7.113   0.510   1.227
11399WAT      O34438   9.173   9.720   2.622
11399WAT     H134439   9.218   9.772   2.549
11399WAT     H234440   9.161   9.625   2.592
11400WAT      O34441   0.113   7.064   0.371
11400WAT     H134442   0.147   6.970   0.368
11400WAT     H234443   0.054   7.075   0.451
11401WAT      O34444   2.094   0.433   7.676
11401WAT     H134445   2.066   0.402   7.767
11401WAT     H234446   2.013   0.463   7.626
11402WAT      O34447   6.283   5.306   9.641
11402WAT     H134448   6.222   5.331   9.717
11402WAT     H234449   6.284   5.379   9.574
11403WAT      O34450   2.223   4.351   1.031
11403WAT     H134451   2.195   4.265   1.075
11403WAT     H234452   2.150   4.382   0.970
11404WAT      O34453   1.457   0.175   0.580
11404WAT     H134454   1.438   0.251   0.641
11404WAT     H234455   1.396   0.180   0.500
11405WAT      O34456   0.078   5.220   0.667
11405WAT     H134457   0.029   5.301   0.698
11405WAT     H234458   0.023   5.172   0.598
11406WAT      O34459   0.073   3.095   2.162
11406WAT     H134460   0.020   3.014   2.187
11406WAT     H234461   0.016   3.156   2.107
11407WAT      O34462   8.142   6.609   6.701
11407WAT     H134463   8.181   6.588   6.791
11407WAT     H234464   8.197   6.566   6.629
11408WAT      O34465   3.819   0.052   4.863
11408WAT     H134466   3.834   0.150   4.848
11408WAT     H234467   3.783   0.012   4.778
11409WAT      O34468   1.694   2.332   7.137
11409WAT     H134469   1.773   2.289   7.092
11409WAT     H234470   1.726   2.395   7.207
11410WAT      O34471   2.981   6.130   6.323
11410WAT     H134472   2.972   6.048   6.379
11410WAT     H234473   2.956   6.109   6.229
11411WAT      O34474   3.208   7.452   1.451
11411WAT     H134475   3.303   7.424   1.463
11411WAT     H234476   3.203   7.552   1.442
11412WAT      O34477   4.109   2.428   5.306
11412WAT     H134478   4.203   2.420   5.336
11412WAT     H234479   4.083   2.345   5.256
11413WAT      O34480   1.003   6.543   7.186
11413WAT     H134481   0.929   6.609   7.199
11413WAT     H234482   1.043   6.555   7.095
11414WAT      O34483   8.527   4.162   5.148
11414WAT     H134484   8.565   4.160   5.056
11414WAT     H234485   8.597   4.192   5.213
11415WAT      O34486   2.321   5.515   5.110
11415WAT     H134487   2.369   5.439   5.067
11415WAT     H234488   2.250   5.480   5.171
11416WAT      O34489   7.215   6.223   7.814
11416WAT     H134490   7.122   6.188   7.803
11416WAT     H234491   7.247   6.262   7.727
11417WAT      O34492   1.008   7.825   6.000
11417WAT     H134493   0.986   7.882   6.079
11417WAT     H234494   1.082   7.762   6.024
11418WAT      O34495   3.232   8.212   9.089
11418WAT     H134496   3.232   8.291   9.027
11418WAT     H234497   3.231   8.244   9.184
11419WAT      O34498   7.838   7.774   2.989
11419WAT     H134499   7.766   7.834   3.025
11419WAT     H234500   7.822   7.681   3.023
11420WAT      O34501   0.364   5.718   0.294
11420WAT     H134502   0.308   5.667   0.360
11420WAT     H234503   0.313   5.730   0.209
11421WAT      O34504   5.409   8.122   7.703
11421WAT     H134505   5.424   8.044   7.764
11421WAT     H234506   5.375   8.089   7.615
11422WAT      O34507   3.330   7.369   9.754
11422WAT     H134508   3.234   7.343   9.758
11422WAT     H234509   3.376   7.344   9.839
11423WAT      O34510   5.148   7.141   0.600
11423WAT     H134511   5.068   7.156   0.542
11423WAT     H234512   5.118   7.120   0.693
11424WAT      O34513   5.369   0.990   9.851
11424WAT     H134514   5.369   0.892   9.830
11424WAT     H234515   5.288   1.033   9.810
11425WAT      O34516   8.923   5.608   3.878
11425WAT     H134517   8.883   5.590   3.968
11425WAT     H234518   9.001   5.547   3.863
11426WAT      O34519   4.293   9.552   5.253
11426WAT     H134520   4.332   9.601   5.175
11426WAT     H234521   4.237   9.614   5.307
11427WAT      O34522   9.276   0.978   9.492
11427WAT     H134523   9.247   0.903   9.552
11427WAT     H234524   9.374   0.994   9.505
11428WAT      O34525   6.038   0.171   9.789
11428WAT     H134526   6.070   0.265   9.803
11428WAT     H234527   6.099   0.124   9.725
11429WAT      O34528   1.343   7.824   1.559
11429WAT     H134529   1.297   7.895   1.504
11429WAT     H234530   1.439   7.848   1.569
11430WAT      O34531   4.384   0.083   3.652
11430WAT     H134532   4.359  -0.008   3.685
11430WAT     H234533   4.463   0.076   3.591
11431WAT      O34534   4.923   2.047   3.628
11431WAT     H134535   4.955   2.139   3.608
11431WAT     H234536   4.824   2.042   3.616
11432WAT      O34537   0.978   9.215   9.709
11432WAT     H134538   1.074   9.225   9.734
11432WAT     H234539   0.969   9.138   9.645
11433WAT      O34540   9.008   2.889   7.377
11433WAT     H134541   9.003   2.834   7.293
11433WAT     H234542   9.087   2.861   7.431
11434WAT      O34543   2.701   5.833   3.139
11434WAT     H134544   2.739   5.903   3.079
11434WAT     H234545   2.641   5.774   3.086
11435WAT      O34546   7.004   3.186   3.187
11435WAT     H134547   6.925   3.223   3.236
11435WAT     H234548   7.043   3.258   3.128
11436WAT      O34549   3.968   9.273   5.311
11436WAT     H134550   3.901   9.251   5.240
11436WAT     H234551   3.920   9.309   5.392
11437WAT      O34552   9.659   8.801   7.259
11437WAT     H134553   9.642   8.743   7.179
11437WAT     H234554   9.740   8.858   7.241
11438WAT      O34555   9.196   5.790   0.738
11438WAT     H134556   9.247   5.708   0.714
11438WAT     H234557   9.138   5.817   0.661
11439WAT      O34558   5.393   1.312   8.574
11439WAT     H134559   5.432   1.310   8.666
11439WAT     H234560   5.445   1.376   8.517
11440WAT      O34561   3.771   0.152   5.340
11440WAT     H134562   3.727   0.096   5.270
11440WAT     H234563   3.713   0.153   5.422
11441WAT      O34564   1.741   3.456   0.333
11441WAT     H134565   1.743   3.361   0.302
11441WAT     H234566   1.757   3.459   0.432
11442WAT      O34567   1.372   9.225   0.370
11442WAT     H134568   1.445   9.268   0.423
11442WAT     H234569   1.412   9.170   0.296
11443WAT      O34570   5.191   9.320   6.631
11443WAT     H134571   5.282   9.330   6.670
11443WAT     H234572   5.197   9.289   6.537
11444WAT      O34573   5.869   8.742   6.788
11444WAT     H134574   5.807   8.786   6.722
11444WAT     H234575   5.957   8.789   6.787
11445WAT      O34576   0.598   4.454   9.735
11445WAT     H134577   0.583   4.357   9.751
11445WAT     H234578   0.513   4.497   9.707
11446WAT      O34579   7.645   0.409   5.910
11446WAT     H134580   7.549   0.399   5.883
11446WAT     H234581   7.669   0.506   5.915
11447WAT      O34582   0.208   1.605   1.216
11447WAT     H134583   0.289   1.633   1.268
11447WAT     H234584   0.137   1.674   1.225
11448WAT      O34585   9.064   6.057   6.857
11448WAT     H134586   9.149   6.108   6.844
11448WAT     H234587   9.080   5.960   6.841
11449WAT      O34588   4.141   4.205   4.982
11449WAT     H134589   4.071   4.138   5.008
11449WAT     H234590   4.200   4.164   4.912
11450WAT      O34591   1.550   7.903   8.233
11450WAT     H134592   1.542   7.805   8.249
11450WAT     H234593   1.469   7.950   8.269
11451WAT      O34594   3.211   7.037   8.661
11451WAT     H134595   3.300   6.992   8.653
11451WAT     H234596   3.178   7.028   8.755
11452WAT      O34597   5.746   5.614   7.965
11452WAT     H134598   5.772   5.690   7.906
11452WAT     H234599   5.698   5.649   8.045
11453WAT      O34600   9.451   7.534   9.452
11453WAT     H134601   9.392   7.482   9.390
11453WAT     H234602   9.534   7.562   9.403
11454WAT      O34603   8.076   8.040   7.777
11454WAT     H134604   8.156   8.006   7.727
11454WAT     H234605   8.096   8.039   7.875
11455WAT      O34606   9.200   5.816   2.810
11455WAT     H134607   9.174   5.854   2.721
11455WAT     H234608   9.270   5.746   2.797
11456WAT      O34609   3.924   0.893   1.415
11456WAT     H134610   3.964   0.807   1.447
11456WAT     H234611   3.946   0.966   1.480
11457WAT      O34612   2.389   5.853   4.666
11457WAT     H134613   2.337   5.813   4.742
11457WAT     H234614   2.472   5.801   4.651
11458WAT      O34615   3.464   7.057   3.496
11458WAT     H134616   3.491   7.110   3.416
11458WAT     H234617   3.370   7.025   3.486
11459WAT      O34618   3.647   6.463   6.054
11459WAT     H134619   3.627   6.556   6.022
11459WAT     H234620   3.603   6.449   6.143
11460WAT      O34621   6.568   5.197   8.386
11460WAT     H134622   6.600   5.107   8.354
11460WAT     H234623   6.646   5.248   8.423
11461WAT      O34624   4.306   8.016   0.853
11461WAT     H134625   4.364   8.090   0.886
11461WAT     H234626   4.363   7.942   0.817
11462WAT      O34627   7.568   1.806   4.970
11462WAT     H134628   7.510   1.855   4.905
11462WAT     H234629   7.512   1.775   5.047
11463WAT      O34630   1.444   2.772   5.756
11463WAT     H134631   1.406   2.712   5.826
11463WAT     H234632   1.532   2.735   5.724
11464WAT      O34633   0.182   2.717   6.005
11464WAT     H134634   0.272   2.761   6.004
11464WAT     H234635   0.150   2.703   5.911
11465WAT      O34636   7.060   1.963   2.763
11465WAT     H134637   6.973   1.997   2.729
11465WAT     H234638   7.128   1.965   2.690
11466WAT      O34639   5.186   0.843   8.096
11466WAT     H134640   5.221   0.752   8.071
11466WAT     H234641   5.216   0.910   8.028
11467WAT      O34642   5.669   9.295   3.796
11467WAT     H134643   5.600   9.316   3.727
11467WAT     H234644   5.646   9.341   3.882
11468WAT      O34645   9.136   1.365   6.637
11468WAT     H134646   9.169   1.334   6.548
11468WAT     H234647   9.102   1.459   6.629
11469WAT      O34648   8.907   6.664   1.384
11469WAT     H134649   8.926   6.738   1.320
11469WAT     H234650   8.924   6.695   1.477
11470WAT      O34651   8.964   0.088   1.068
11470WAT     H134652   8.904   0.149   1.118
11470WAT     H234653   8.927  -0.005   1.069
11471WAT      O34654   1.284   6.465   9.368
11471WAT     H134655   1.381   6.488   9.358
11471WAT     H234656   1.267   6.377   9.324
11472WAT      O34657   5.220   2.949   8.740
11472WAT     H134658   5.292   2.899   8.788
11472WAT     H234659   5.259   3.032   8.699
11473WAT      O34660   1.185   5.396   8.611
11473WAT     H134661   1.268   5.451   8.619
11473WAT     H234662   1.199   5.307   8.654
11474WAT      O34663   7.980   1.532   1.273
11474WAT     H134664   7.961   1.483   1.188
11474WAT     H234665   7.902   1.522   1.335
11475WAT      O34666   9.821   4.768   5.821
11475WAT     H134667   9.857   4.744   5.731
11475WAT     H234668   9.798   4.685   5.872
11476WAT      O34669   8.673   0.631   0.310
11476WAT     H134670   8.680   0.558   0.242
11476WAT     H234671   8.610   0.702   0.277
11477WAT      O34672   9.223   0.659   4.186
11477WAT     H134673   9.171   0.574   4.195
11477WAT     H234674   9.317   0.644   4.216
11478WAT      O34675   4.245   9.698   5.509
11478WAT     H134676   4.332   9.743   5.531
11478WAT     H234677   4.245   9.606   5.549
11479WAT      O34678   2.851   2.080   1.251
11479WAT     H134679   2.923   2.119   1.308
11479WAT     H234680   2.762   2.098   1.293
11480WAT      O34681   7.250   3.511   1.607
11480WAT     H134682   7.171   3.465   1.648
11480WAT     H234683   7.265   3.599   1.652
11481WAT      O34684   2.126   9.334   5.364
11481WAT     H134685   2.032   9.312   5.392
11481WAT     H234686   2.173   9.250   5.336
11482WAT      O34687   4.879   3.086   9.498
11482WAT     H134688   4.845   2.999   9.462
11482WAT     H234689   4.866   3.158   9.429
11483WAT      O34690   3.537   0.235   7.681
11483WAT     H134691   3.590   0.199   7.758
11483WAT     H234692   3.470   0.166   7.652
11484WAT      O34693   7.400   6.807   1.956
11484WAT     H134694   7.493   6.840   1.971
11484WAT     H234695   7.335   6.870   1.999
11485WAT      O34696   4.025   7.696   3.269
11485WAT     H134697   4.079   7.678   3.351
11485WAT     H234698   4.042   7.625   3.201
11486WAT      O34699   7.361   4.366   8.682
11486WAT     H134700   7.312   4.314   8.752
11486WAT     H234701   7.295   4.412   8.623
11487WAT      O34702   8.928   4.227   9.847
11487WAT     H134703   8.943   4.285   9.926
11487WAT     H234704   9.017   4.198   9.810
11488WAT      O34705   3.857   0.499   0.623
11488WAT     H134706   3.824   0.457   0.538
11488WAT     H234707   3.934   0.447   0.658
11489WAT      O34708   0.800   6.551   9.760
11489WAT     H134709   0.845   6.486   9.698
11489WAT     H234710   0.796   6.512   9.852
11490WAT      O34711   7.682   7.255   3.050
11490WAT     H134712   7.763   7.299   3.090
11490WAT     H234713   7.660   7.300   2.964
11491WAT      O34714   1.285   4.909   8.221
11491WAT     H134715   1.324   4.953   8.140
11491WAT     H234716   1.236   4.976   8.276
11492WAT      O34717   5.489   0.461   8.016
11492WAT     H134718   5.509   0.363   8.025
11492WAT     H234719   5.551   0.513   8.075
11493WAT      O34720   5.861   7.150   5.966
11493WAT     H134721   5.876   7.248   5.956
11493WAT     H234722   5.785   7.121   5.909
11494WAT      O34723   5.588   3.464   3.829
11494WAT     H134724   5.664   3.422   3.779
11494WAT     H234725   5.604   3.562   3.839
11495WAT      O34726   9.386   9.642   1.644
11495WAT     H134727   9.449   9.589   1.701
11495WAT     H234728   9.356   9.587   1.567
11496WAT      O34729   3.287   9.442   5.211
11496WAT     H134730   3.360   9.376   5.190
11496WAT     H234731   3.327   9.533   5.218
11497WAT      O34732   7.623   8.539   2.190
11497WAT     H134733   7.594   8.632   2.169
11497WAT     H234734   7.555   8.495   2.249
11498WAT      O34735   8.966   9.751   4.595
11498WAT     H134736   8.943   9.823   4.530
11498WAT     H234737   8.961   9.787   4.689
11499WAT      O34738   9.805   0.914   6.512
11499WAT     H134739   9.780   0.891   6.418
11499WAT     H234740   9.841   1.007   6.515
11500WAT      O34741   4.263   3.447   2.864
11500WAT     H134742   4.330   3.380   2.896
11500WAT     H234743   4.171   3.417   2.889
11501WAT      O34744   9.472   5.608   0.116
11501WAT     H134745   9.460   5.639   0.022
11501WAT     H234746   9.414   5.528   0.132
11502WAT      O34747   5.769   0.058   5.176
11502WAT     H134748   5.784   0.116   5.257
11502WAT     H234749   5.670   0.045   5.163
11503WAT      O34750   0.624   6.463   0.802
11503WAT     H134751   0.533   6.484   0.768
11503WAT     H234752   0.680   6.426   0.728
11504WAT      O34753   8.709   1.598   1.877
11504WAT     H134754   8.676   1.684   1.839
11504WAT     H234755   8.809   1.592   1.865
11505WAT      O34756   3.710   6.216   7.093
11505WAT     H134757   3.747   6.288   7.152
11505WAT     H234758   3.623   6.183   7.131
11506WAT      O34759   6.015   6.088   2.975
11506WAT     H134760   6.062   6.022   3.035
11506WAT     H234761   6.011   6.177   3.021
11507WAT      O34762   5.424   3.798   5.828
11507WAT     H134763   5.480   3.881   5.831
11507WAT     H234764   5.395   3.781   5.734
11508WAT      O34765   0.656   5.211   5.087
11508WAT     H134766   0.559   5.205   5.113
11508WAT     H234767   0.670   5.289   5.027
11509WAT      O34768   2.982   3.726   4.878
11509WAT     H134769   2.935   3.805   4.917
11509WAT     H234770   2.987   3.653   4.946
11510WAT      O34771   8.174   0.922   1.706
11510WAT     H134772   8.222   0.932   1.793
11510WAT     H234773   8.122   1.006   1.687
11511WAT      O34774   5.522   7.634   4.927
11511WAT     H134775   5.586   7.632   5.003
11511WAT     H234776   5.434   7.597   4.957
11512WAT      O34777   7.166   9.238   2.402
11512WAT     H134778   7.180   9.307   2.473
11512WAT     H234779   7.166   9.147   2.444
11513WAT      O34780   4.121   2.298   1.247
11513WAT     H134781   4.213   2.313   1.210
11513WAT     H234782   4.117   2.334   1.340
11514WAT      O34783   2.445   3.431   1.057
11514WAT     H134784   2.366   3.395   1.008
11514WAT     H234785   2.431   3.528   1.077
11515WAT      O34786   8.476   8.229   7.949
11515WAT     H134787   8.481   8.265   8.042
11515WAT     H234788   8.479   8.304   7.883
11516WAT      O34789   8.352   5.630   7.832
11516WAT     H134790   8.385   5.661   7.922
11516WAT     H234791   8.259   5.593   7.842
11517WAT      O34792   5.601   3.252   1.859
11517WAT     H134793   5.580   3.173   1.916
11517WAT     H234794   5.561   3.239   1.768
11518WAT      O34795   5.557   3.796   6.560
11518WAT     H134796   5.627   3.801   6.631
11518WAT     H234797   5.598   3.815   6.471
11519WAT      O34798   4.046   4.570   8.848
11519WAT     H134799   4.108   4.610   8.780
11519WAT     H234800   3.953   4.604   8.833
11520WAT      O34801   4.411   9.616   4.754
11520WAT     H134802   4.356   9.536   4.729
11520WAT     H234803   4.491   9.621   4.694
11521WAT      O34804   4.801   1.965   9.012
11521WAT     H134805   4.757   2.022   9.081
11521WAT     H234806   4.782   2.003   8.921
11522WAT      O34807   9.774   6.109   0.425
11522WAT     H134808   9.705   6.037   0.428
11522WAT     H234809   9.765   6.161   0.340
11523WAT      O34810   0.916   5.533   2.493
11523WAT     H134811   0.900   5.540   2.592
11523WAT     H234812   0.980   5.604   2.465
11524WAT      O34813   0.502   5.471   0.297
11524WAT     H134814   0.457   5.398   0.348
11524WAT     H234815   0.480   5.559   0.339
11525WAT      O34816   7.064   9.276   5.737
11525WAT     H134817   7.119   9.204   5.693
11525WAT     H234818   7.007   9.320   5.668
11526WAT      O34819   6.450   3.292   5.951
11526WAT     H134820   6.414   3.384   5.965
11526WAT     H234821   6.550   3.295   5.944
11527WAT      O34822   5.969   2.136   3.613
11527WAT     H134823   5.947   2.162   3.707
11527WAT     H234824   6.012   2.046   3.613
11528WAT      O34825   1.881   2.286   4.323
11528WAT     H134826   1.893   2.259   4.228
11528WAT     H234827   1.970   2.311   4.362
11529WAT      O34828   4.224   9.795   9.306
11529WAT     H134829   4.228   9.768   9.402
11529WAT     H234830   4.243   9.893   9.298
11530WAT      O34831   7.627   3.322   8.451
11530WAT     H134832   7.633   3.225   8.428
11530WAT     H234833   7.664   3.377   8.376
11531WAT      O34834   1.958   5.411   1.790
11531WAT     H134835   2.005   5.427   1.876
11531WAT     H234836   1.921   5.498   1.755
11532WAT      O34837   0.546   7.893   6.237
11532WAT     H134838   0.592   7.953   6.173
11532WAT     H234839   0.535   7.940   6.325
11533WAT      O34840   7.740   9.592   2.553
11533WAT     H134841   7.832   9.605   2.590
11533WAT     H234842   7.747   9.566   2.457
11534WAT      O34843   6.741   4.200   3.209
11534WAT     H134844   6.833   4.226   3.179
11534WAT     H234845   6.748   4.131   3.282
11535WAT      O34846   7.158   9.604   5.564
11535WAT     H134847   7.188   9.644   5.477
11535WAT     H234848   7.095   9.529   5.546
11536WAT      O34849   6.029   2.286   7.701
11536WAT     H134850   6.042   2.382   7.726
11536WAT     H234851   6.094   2.261   7.629
11537WAT      O34852   9.614   3.684   8.672
11537WAT     H134853   9.683   3.623   8.712
11537WAT     H234854   9.611   3.770   8.722
11538WAT      O34855   2.270   8.345   8.590
11538WAT     H134856   2.309   8.435   8.606
11538WAT     H234857   2.171   8.348   8.601
11539WAT      O34858   6.370   3.355   0.409
11539WAT     H134859   6.341   3.391   0.320
11539WAT     H234860   6.295   3.301   0.449
11540WAT      O34861   6.854   7.956   0.929
11540WAT     H134862   6.938   7.925   0.885
11540WAT     H234863   6.877   8.006   1.012
11541WAT      O34864   1.306   7.789   2.705
11541WAT     H134865   1.391   7.824   2.665
11541WAT     H234866   1.268   7.857   2.768
11542WAT      O34867   1.566   0.010   9.665
11542WAT     H134868   1.543   0.056   9.580
11542WAT     H234869   1.629   0.067   9.718
11543WAT      O34870   2.367   7.287   6.742
11543WAT     H134871   2.319   7.230   6.809
11543WAT     H234872   2.322   7.376   6.737
11544WAT      O34873   2.298   4.387   8.469
11544WAT     H134874   2.367   4.426   8.408
11544WAT     H234875   2.254   4.461   8.521
11545WAT      O34876   7.895   0.610   6.981
11545WAT     H134877   7.871   0.541   7.049
11545WAT     H234878   7.858   0.584   6.892
11546WAT      O34879   6.938   9.249   3.736
11546WAT     H134880   6.870   9.276   3.668
11546WAT     H234881   7.023   9.222   3.691
11547WAT      O34882   7.005   8.422   2.958
11547WAT     H134883   6.963   8.489   3.020
11547WAT     H234884   6.945   8.409   2.879
11548WAT      O34885   3.451   6.009   5.610
11548WAT     H134886   3.527   6.051   5.560
11548WAT     H234887   3.457   5.909   5.601
11549WAT      O34888   1.817   7.824   1.765
11549WAT     H134889   1.848   7.903   1.818
11549WAT     H234890   1.893   7.762   1.748
11550WAT      O34891   5.717   6.202   4.039
11550WAT     H134892   5.741   6.292   4.004
11550WAT     H234893   5.651   6.212   4.114
11551WAT      O34894   6.031   7.345   5.111
11551WAT     H134895   6.090   7.408   5.162
11551WAT     H234896   5.990   7.394   5.034
11552WAT      O34897   0.501   6.245   2.155
11552WAT     H134898   0.548   6.255   2.243
11552WAT     H234899   0.567   6.254   2.081
11553WAT      O34900   2.717   0.315   9.273
11553WAT     H134901   2.675   0.352   9.356
11553WAT     H234902   2.763   0.229   9.293
11554WAT      O34903   7.709   5.331   3.081
11554WAT     H134904   7.647   5.349   3.004
11554WAT     H234905   7.681   5.386   3.160
11555WAT      O34906   4.293   2.112   2.972
11555WAT     H134907   4.237   2.084   3.050
11555WAT     H234908   4.368   2.046   2.960
11556WAT      O34909   0.992   1.555   8.032
11556WAT     H134910   1.069   1.490   8.036
11556WAT     H234911   0.925   1.523   7.965
11557WAT      O34912   7.454   2.583   9.769
11557WAT     H134913   7.496   2.572   9.679
11557WAT     H234914   7.516   2.547   9.839
11558WAT      O34915   0.412   0.496   1.542
11558WAT     H134916   0.328   0.447   1.560
11558WAT     H234917   0.477   0.481   1.617
11559WAT      O34918   6.105   3.569   5.768
11559WAT     H134919   6.085   3.471   5.765
11559WAT     H234920   6.031   3.616   5.815
11560WAT      O34921   7.238   4.915   1.769
11560WAT     H134922   7.295   4.838   1.797
11560WAT     H234923   7.187   4.950   1.847
11561WAT      O34924   4.508   0.180   6.716
11561WAT     H134925   4.487   0.145   6.807
11561WAT     H234926   4.467   0.271   6.705
11562WAT      O34927   1.288   0.316   6.000
11562WAT     H134928   1.326   0.386   6.060
11562WAT     H234929   1.351   0.238   5.995
11563WAT      O34930   3.956   0.144   5.675
11563WAT     H134931   4.005   0.231   5.660
11563WAT     H234932   3.858   0.158   5.663
11564WAT      O34933   3.922   6.639   4.709
11564WAT     H134934   3.988   6.567   4.686
11564WAT     H234935   3.850   6.601   4.767
11565WAT      O34936   6.085   1.070   0.506
11565WAT     H134937   5.992   1.068   0.470
11565WAT     H234938   6.132   1.152   0.474
11566WAT      O34939   9.155   0.426   0.846
11566WAT     H134940   9.095   0.506   0.847
11566WAT     H234941   9.103   0.345   0.822
11567WAT      O34942   2.365   0.972   2.608
11567WAT     H134943   2.294   1.034   2.643
11567WAT     H234944   2.453   0.997   2.648
11568WAT      O34945   6.348   7.381   8.593
11568WAT     H134946   6.313   7.336   8.676
11568WAT     H234947   6.368   7.477   8.614
11569WAT      O34948   4.705   8.834   4.851
11569WAT     H134949   4.664   8.791   4.931
11569WAT     H234950   4.696   8.933   4.858
11570WAT      O34951   5.577   8.695   8.119
11570WAT     H134952   5.503   8.638   8.154
11570WAT     H234953   5.635   8.724   8.195
11571WAT      O34954   9.110   1.880   7.347
11571WAT     H134955   9.044   1.806   7.333
11571WAT     H234956   9.061   1.963   7.376
11572WAT      O34957   7.418   8.817   6.730
11572WAT     H134958   7.375   8.851   6.814
11572WAT     H234959   7.491   8.880   6.702
11573WAT      O34960   4.396   0.754   3.017
11573WAT     H134961   4.298   0.733   3.011
11573WAT     H234962   4.409   0.851   3.037
11574WAT      O34963   7.894   6.870   8.371
11574WAT     H134964   7.974   6.812   8.352
11574WAT     H234965   7.838   6.876   8.288
11575WAT      O34966   2.877   3.976   2.515
11575WAT     H134967   2.822   4.006   2.593
11575WAT     H234968   2.821   3.919   2.455
11576WAT      O34969   5.636   3.836   6.262
11576WAT     H134970   5.685   3.768   6.207
11576WAT     H234971   5.579   3.893   6.201
11577WAT      O34972   7.697   6.903   7.250
11577WAT     H134973   7.702   7.003   7.252
11577WAT     H234974   7.759   6.868   7.180
11578WAT      O34975   8.535   2.731   9.449
11578WAT     H134976   8.593   2.725   9.531
11578WAT     H234977   8.559   2.814   9.398
11579WAT      O34978   8.580   3.294   2.515
11579WAT     H134979   8.627   3.219   2.470
11579WAT     H234980   8.645   3.342   2.575
11580WAT      O34981   2.254   1.784   5.139
11580WAT     H134982   2.302   1.726   5.072
11580WAT     H234983   2.257   1.879   5.108
11581WAT      O34984   7.106   0.883   0.379
11581WAT     H134985   7.157   0.962   0.347
11581WAT     H234986   7.027   0.866   0.320
11582WAT      O34987   2.882   6.655   7.726
11582WAT     H134988   2.899   6.592   7.802
11582WAT     H234989   2.866   6.747   7.763
11583WAT      O34990   1.525   5.398   4.909
11583WAT     H134991   1.582   5.318   4.927
11583WAT     H234992   1.571   5.480   4.943
11584WAT      O34993   7.460   8.685   4.327
11584WAT     H134994   7.482   8.630   4.407
11584WAT     H234995   7.488   8.780   4.343
11585WAT      O34996   1.518   2.738   5.351
11585WAT     H134997   1.422   2.716   5.332
11585WAT     H234998   1.568   2.653   5.371
11586WAT      O34999   4.948   3.588   3.888
11586WAT     H135000   4.995   3.511   3.845
11586WAT     H235001   4.966   3.672   3.835
11587WAT      O35002   9.432   4.785   4.086
11587WAT     H135003   9.474   4.701   4.121
11587WAT     H235004   9.500   4.858   4.087
11588WAT      O35005   9.320   5.912   2.005
11588WAT     H135006   9.357   5.842   1.944
11588WAT     H235007   9.239   5.954   1.963
11589WAT      O35008   7.298   0.326   2.028
11589WAT     H135009   7.339   0.313   1.938
11589WAT     H235010   7.319   0.247   2.085
11590WAT      O35011   4.611   6.761   1.799
11590WAT     H135012   4.646   6.775   1.707
11590WAT     H235013   4.653   6.828   1.861
11591WAT      O35014   4.795   0.288   0.509
11591WAT     H135015   4.780   0.203   0.458
11591WAT     H235016   4.880   0.331   0.479
11592WAT      O35017   0.487   6.943   5.051
11592WAT     H135018   0.413   6.983   5.105
11592WAT     H235019   0.574   6.965   5.094
11593WAT      O35020   5.414   5.334   0.839
11593WAT     H135021   5.435   5.401   0.768
11593WAT     H235022   5.318   5.341   0.864
11594WAT      O35023   7.349   3.000   5.763
11594WAT     H135024   7.372   3.039   5.852
11594WAT     H235025   7.288   2.922   5.775
11595WAT      O35026   7.675   8.938   7.542
11595WAT     H135027   7.611   8.869   7.576
11595WAT     H235028   7.635   8.983   7.462
11596WAT      O35029   6.348   3.760   0.606
11596WAT     H135030   6.280   3.817   0.651
11596WAT     H235031   6.311   3.724   0.521
11597WAT      O35032   7.704   3.332   8.861
11597WAT     H135033   7.790   3.310   8.816
11597WAT     H235034   7.707   3.301   8.956
11598WAT      O35035   6.690   5.410   7.584
11598WAT     H135036   6.773   5.366   7.551
11598WAT     H235037   6.711   5.463   7.666
11599WAT      O35038   7.204   8.418   7.789
11599WAT     H135039   7.130   8.396   7.854
11599WAT     H235040   7.246   8.333   7.758
11600WAT      O35041   9.883   3.222   4.012
11600WAT     H135042   9.898   3.308   3.965
11600WAT     H235043   9.853   3.152   3.947
11601WAT      O35044   8.703   7.029   6.744
11601WAT     H135045   8.608   7.051   6.720
11601WAT     H235046   8.704   6.951   6.807
11602WAT      O35047   6.706   5.196   7.352
11602WAT     H135048   6.748   5.287   7.348
11602WAT     H235049   6.711   5.154   7.261
11603WAT      O35050   2.104   2.872   1.131
11603WAT     H135051   2.061   2.944   1.185
11603WAT     H235052   2.063   2.869   1.040
11604WAT      O35053   7.751   5.759   1.761
11604WAT     H135054   7.843   5.725   1.740
11604WAT     H235055   7.756   5.852   1.797
11605WAT      O35056   3.364   4.126   8.089
11605WAT     H135057   3.272   4.089   8.079
11605WAT     H235058   3.403   4.095   8.176
11606WAT      O35059   5.362   0.664   3.281
11606WAT     H135060   5.339   0.735   3.214
11606WAT     H235061   5.396   0.706   3.365
11607WAT      O35062   6.785   3.703   2.242
11607WAT     H135063   6.812   3.647   2.163
11607WAT     H235064   6.860   3.708   2.307
11608WAT      O35065   1.593   0.884   3.902
11608WAT     H135066   1.601   0.953   3.973
11608WAT     H235067   1.503   0.891   3.859
11609WAT      O35068   6.124   3.327   8.664
11609WAT     H135069   6.036   3.302   8.704
11609WAT     H235070   6.184   3.246   8.662
11610WAT      O35071   3.032   0.255   6.029
11610WAT     H135072   3.055   0.340   6.078
11610WAT     H235073   3.105   0.189   6.041
11611WAT      O35074   7.421   1.684   1.901
11611WAT     H135075   7.506   1.713   1.857
11611WAT     H235076   7.344   1.703   1.841
11612WAT      O35077   7.201   7.649   1.469
11612WAT     H135078   7.152   7.710   1.408
11612WAT     H235079   7.190   7.680   1.563
11613WAT      O35080   3.017   9.205   1.896
11613WAT     H135081   3.033   9.155   1.981
11613WAT     H235082   2.921   9.192   1.867
11614WAT      O35083   4.071   7.398   7.065
11614WAT     H135084   4.027   7.392   7.154
11614WAT     H235085   4.148   7.335   7.061
11615WAT      O35086   9.349   6.513   5.660
11615WAT     H135087   9.364   6.428   5.710
11615WAT     H235088   9.253   6.539   5.666
11616WAT      O35089   8.600   7.307   1.494
11616WAT     H135090   8.668   7.238   1.519
11616WAT     H235091   8.516   7.262   1.464
11617WAT      O35092   1.338   9.053   3.199
11617WAT     H135093   1.290   9.046   3.287
11617WAT     H235094   1.352   8.961   3.162
11618WAT      O35095   8.603   7.761   8.497
11618WAT     H135096   8.589   7.745   8.595
11618WAT     H235097   8.529   7.718   8.445
11619WAT      O35098   2.356   1.182   1.781
11619WAT     H135099   2.258   1.165   1.789
11619WAT     H235100   2.371   1.278   1.756
11620WAT      O35101   8.611   9.785   7.520
11620WAT     H135102   8.522   9.826   7.540
11620WAT     H235103   8.662   9.845   7.459
11621WAT      O35104   7.166   5.525   7.764
11621WAT     H135105   7.194   5.612   7.804
11621WAT     H235106   7.145   5.460   7.837
11622WAT      O35107   3.743   2.128   1.547
11622WAT     H135108   3.708   2.046   1.502
11622WAT     H235109   3.743   2.204   1.483
11623WAT      O35110   5.814   3.296   1.037
11623WAT     H135111   5.821   3.203   1.002
11623WAT     H235112   5.788   3.293   1.134
11624WAT      O35113   2.040   4.437   0.856
11624WAT     H135114   2.124   4.475   0.816
11624WAT     H235115   1.973   4.420   0.784
11625WAT      O35116   0.160   4.472   5.097
11625WAT     H135117   0.063   4.459   5.120
11625WAT     H235118   0.200   4.541   5.158
11626WAT      O35119   7.095   6.657   1.590
11626WAT     H135120   7.159   6.728   1.619
11626WAT     H235121   7.001   6.689   1.605
11627WAT      O35122   9.200   3.381   4.339
11627WAT     H135123   9.104   3.403   4.358
11627WAT     H235124   9.204   3.304   4.275
11628WAT      O35125   0.458   5.255   8.802
11628WAT     H135126   0.551   5.267   8.835
11628WAT     H235127   0.453   5.172   8.745
11629WAT      O35128   2.790   4.342   8.811
11629WAT     H135129   2.721   4.350   8.883
11629WAT     H235130   2.881   4.342   8.852
11630WAT      O35131   7.948   0.638   8.554
11630WAT     H135132   8.031   0.644   8.610
11630WAT     H235133   7.913   0.544   8.556
11631WAT      O35134   6.489   0.848   3.374
11631WAT     H135135   6.514   0.902   3.454
11631WAT     H235136   6.420   0.896   3.320
11632WAT      O35137   8.937   4.753   6.722
11632WAT     H135138   8.908   4.811   6.798
11632WAT     H235139   8.918   4.800   6.636
11633WAT      O35140   1.593   5.516   7.444
11633WAT     H135141   1.514   5.577   7.457
11633WAT     H235142   1.573   5.427   7.484
11634WAT      O35143   4.802   3.092   8.022
11634WAT     H135144   4.877   3.059   8.078
11634WAT     H235145   4.728   3.025   8.022
11635WAT      O35146   6.767   7.901   5.290
11635WAT     H135147   6.818   7.917   5.375
11635WAT     H235148   6.669   7.902   5.310
11636WAT      O35149   9.445   2.291   3.551
11636WAT     H135150   9.445   2.308   3.452
11636WAT     H235151   9.384   2.357   3.596
11637WAT      O35152   8.364   9.660   4.765
11637WAT     H135153   8.453   9.650   4.721
11637WAT     H235154   8.369   9.731   4.835
11638WAT      O35155   1.637   5.738   9.559
11638WAT     H135156   1.679   5.774   9.476
11638WAT     H235157   1.642   5.806   9.631
11639WAT      O35158   6.561   4.581   8.108
11639WAT     H135159   6.568   4.569   8.207
11639WAT     H235160   6.589   4.674   8.084
11640WAT      O35161   8.627   1.897   6.760
11640WAT     H135162   8.595   1.893   6.665
11640WAT     H235163   8.620   1.992   6.793
11641WAT      O35164   6.231   8.356   0.116
11641WAT     H135165   6.220   8.433   0.053
11641WAT     H235166   6.320   8.364   0.162
11642WAT      O35167   3.041   0.125   0.645
11642WAT     H135168   3.066   0.031   0.668
11642WAT     H235169   3.119   0.172   0.605
11643WAT      O35170   8.733   4.590   2.435
11643WAT     H135171   8.645   4.547   2.412
11643WAT     H235172   8.787   4.528   2.490
11644WAT      O35173   3.957   8.693   9.866
11644WAT     H135174   3.898   8.699   9.946
11644WAT     H235175   4.010   8.777   9.856
11645WAT      O35176   3.100   8.030   0.357
11645WAT     H135177   3.114   8.128   0.350
11645WAT     H235178   3.158   7.992   0.429
11646WAT      O35179   9.676   7.315   0.284
11646WAT     H135180   9.682   7.381   0.210
11646WAT     H235181   9.717   7.228   0.254
11647WAT      O35182   3.608   2.824   4.802
11647WAT     H135183   3.608   2.746   4.740
11647WAT     H235184   3.566   2.903   4.757
11648WAT      O35185   9.132   0.563   5.095
11648WAT     H135186   9.042   0.594   5.126
11648WAT     H235187   9.197   0.638   5.103
11649WAT      O35188   6.552   3.516   2.878
11649WAT     H135189   6.575   3.613   2.887
11649WAT     H235190   6.515   3.499   2.787
11650WAT      O35191   9.716   4.928   0.126
11650WAT     H135192   9.656   4.978   0.064
11650WAT     H235193   9.665   4.903   0.209
11651WAT      O35194   5.958   3.082   3.946
11651WAT     H135195   5.962   3.109   4.042
11651WAT     H235196   5.982   3.160   3.888
11652WAT      O35197   5.107   1.043   8.769
11652WAT     H135198   5.009   1.054   8.787
11652WAT     H235199   5.121   1.020   8.673
11653WAT      O35200   8.353   9.438   6.138
11653WAT     H135201   8.419   9.409   6.208
11653WAT     H235202   8.291   9.506   6.178
11654WAT      O35203   7.576   9.086   9.213
11654WAT     H135204   7.522   9.143   9.152
11654WAT     H235205   7.598   9.139   9.296
11655WAT      O35206   4.482   3.978   2.587
11655WAT     H135207   4.577   4.005   2.604
11655WAT     H235208   4.420   4.051   2.619
11656WAT      O35209   0.144   6.250   7.547
11656WAT     H135210   0.077   6.309   7.501
11656WAT     H235211   0.099   6.199   7.620
11657WAT      O35212   1.822   1.444   5.742
11657WAT     H135213   1.910   1.434   5.696
11657WAT     H235214   1.832   1.505   5.821
11658WAT      O35215   7.604   2.046   5.970
11658WAT     H135216   7.552   2.101   5.905
11658WAT     H235217   7.586   2.078   6.063
11659WAT      O35218   8.096   5.121   0.823
11659WAT     H135219   8.054   5.061   0.754
11659WAT     H235220   8.042   5.204   0.832
11660WAT      O35221   5.442   4.145   0.583
11660WAT     H135222   5.458   4.050   0.610
11660WAT     H235223   5.416   4.199   0.662
11661WAT      O35224   3.073   0.226   4.558
11661WAT     H135225   3.034   0.250   4.468
11661WAT     H235226   3.165   0.191   4.546
11662WAT      O35227   9.138   8.426   5.572
11662WAT     H135228   9.196   8.498   5.534
11662WAT     H235229   9.130   8.351   5.507
11663WAT      O35230   4.363   2.061   3.343
11663WAT     H135231   4.453   2.021   3.328
11663WAT     H235232   4.370   2.137   3.407
11664WAT      O35233   6.135   1.485   4.693
11664WAT     H135234   6.175   1.490   4.601
11664WAT     H235235   6.043   1.445   4.686
11665WAT      O35236   5.811   8.881   5.545
11665WAT     H135237   5.885   8.947   5.559
11665WAT     H235238   5.764   8.865   5.632
11666WAT      O35239   4.606   0.699   2.834
11666WAT     H135240   4.545   0.641   2.781
11666WAT     H235241   4.568   0.715   2.925
11667WAT      O35242   5.816   5.790   0.487
11667WAT     H135243   5.773   5.701   0.499
11667WAT     H235244   5.838   5.829   0.576
11668WAT      O35245   8.434   8.231   3.667
11668WAT     H135246   8.391   8.290   3.734
11668WAT     H235247   8.392   8.245   3.577
11669WAT      O35248   4.828   3.299   9.192
11669WAT     H135249   4.897   3.371   9.182
11669WAT     H235250   4.873   3.210   9.191
11670WAT      O35251   5.839   7.321   8.898
11670WAT     H135252   5.769   7.377   8.854
11670WAT     H235253   5.924   7.374   8.904
11671WAT      O35254   7.637   7.149   9.028
11671WAT     H135255   7.708   7.183   8.966
11671WAT     H235256   7.679   7.126   9.117
11672WAT      O35257   7.460   5.031   4.749
11672WAT     H135258   7.525   5.002   4.820
11672WAT     H235259   7.507   5.089   4.683
11673WAT      O35260   1.640   6.266   6.296
11673WAT     H135261   1.672   6.236   6.386
11673WAT     H235262   1.672   6.359   6.278
11674WAT      O35263   5.896   4.055   5.815
11674WAT     H135264   5.911   4.131   5.752
11674WAT     H235265   5.882   3.970   5.763
11675WAT      O35266   6.173   6.610   2.781
11675WAT     H135267   6.182   6.691   2.722
11675WAT     H235268   6.227   6.536   2.742
11676WAT      O35269   9.767   3.021   3.859
11676WAT     H135270   9.822   2.940   3.881
11676WAT     H235271   9.670   2.995   3.856
11677WAT      O35272   6.977   4.290   3.135
11677WAT     H135273   6.981   4.360   3.206
11677WAT     H235274   6.952   4.331   3.048
11678WAT      O35275   8.511   5.303   4.891
11678WAT     H135276   8.531   5.383   4.835
11678WAT     H235277   8.475   5.230   4.832
11679WAT      O35278   5.431   7.241   0.360
11679WAT     H135279   5.412   7.144   0.378
11679WAT     H235280   5.417   7.293   0.444
11680WAT      O35281   7.566   5.431   6.869
11680WAT     H135282   7.601   5.348   6.825
11680WAT     H235283   7.477   5.454   6.831
11681WAT      O35284   0.217   9.383   3.113
11681WAT     H135285   0.212   9.294   3.156
11681WAT     H235286   0.143   9.392   3.046
11682WAT      O35287   8.352   1.241   7.235
11682WAT     H135288   8.365   1.151   7.194
11682WAT     H235289   8.275   1.239   7.298
11683WAT      O35290   4.990   6.836   1.009
11683WAT     H135291   4.912   6.799   1.060
11683WAT     H235292   5.074   6.793   1.041
11684WAT      O35293   1.158   7.319   3.147
11684WAT     H135294   1.096   7.251   3.106
11684WAT     H235295   1.105   7.381   3.205
11685WAT      O35296   3.917   2.550   2.168
11685WAT     H135297   3.827   2.556   2.211
11685WAT     H235298   3.931   2.630   2.109
11686WAT      O35299   0.787   5.341   2.352
11686WAT     H135300   0.840   5.257   2.347
11686WAT     H235301   0.838   5.410   2.403
11687WAT      O35302   4.308   7.504   0.805
11687WAT     H135303   4.381   7.444   0.838
11687WAT     H235304   4.235   7.508   0.873
11688WAT      O35305   9.230   6.401   6.973
11688WAT     H135306   9.227   6.366   6.880
11688WAT     H235307   9.314   6.454   6.986
11689WAT      O35308   4.093   0.580   9.099
11689WAT     H135309   4.162   0.628   9.152
11689WAT     H235310   4.002   0.598   9.138
11690WAT      O35311   2.116   0.227   9.568
11690WAT     H135312   2.145   0.278   9.486
11690WAT     H235313   2.060   0.150   9.540
11691WAT      O35314   9.303   0.696   2.082
11691WAT     H135315   9.310   0.713   1.983
11691WAT     H235316   9.395   0.689   2.121
11692WAT      O35317   2.837   7.574   1.174
11692WAT     H135318   2.921   7.562   1.122
11692WAT     H235319   2.844   7.657   1.229
11693WAT      O35320   6.815   7.921   4.496
11693WAT     H135321   6.747   7.973   4.547
11693WAT     H235322   6.845   7.974   4.417
11694WAT      O35323   7.289   3.243   6.979
11694WAT     H135324   7.333   3.216   6.894
11694WAT     H235325   7.221   3.175   7.004
11695WAT      O35326   8.132   3.657   4.769
11695WAT     H135327   8.159   3.749   4.799
11695WAT     H235328   8.212   3.597   4.770
11696WAT      O35329   1.902   6.452   1.517
11696WAT     H135330   1.824   6.430   1.576
11696WAT     H235331   1.966   6.510   1.568
11697WAT      O35332   0.883   5.674   6.502
11697WAT     H135333   0.832   5.751   6.463
11697WAT     H235334   0.972   5.706   6.533
11698WAT      O35335   0.778   0.979   9.338
11698WAT     H135336   0.725   0.898   9.364
11698WAT     H235337   0.723   1.036   9.277
11699WAT      O35338   9.069   0.531   1.182
11699WAT     H135339   9.011   0.460   1.221
11699WAT     H235340   9.147   0.488   1.135
11700WAT      O35341   1.750   7.613   3.452
11700WAT     H135342   1.755   7.523   3.410
11700WAT     H235343   1.842   7.646   3.472
11701WAT      O35344   3.133   3.198   1.855
11701WAT     H135345   3.147   3.265   1.927
11701WAT     H235346   3.040   3.161   1.861
11702WAT      O35347   2.504   5.505   3.877
11702WAT     H135348   2.508   5.424   3.935
11702WAT     H235349   2.566   5.493   3.799
11703WAT      O35350   5.014   9.362   3.467
11703WAT     H135351   5.028   9.288   3.533
11703WAT     H235352   4.916   9.380   3.457
11704WAT      O35353   3.708   1.529   2.467
11704WAT     H135354   3.717   1.458   2.537
11704WAT     H235355   3.654   1.605   2.502
11705WAT      O35356   2.541   7.637   7.354
11705WAT     H135357   2.627   7.634   7.303
11705WAT     H235358   2.470   7.590   7.302
11706WAT      O35359   9.690   6.349   3.339
11706WAT     H135360   9.679   6.448   3.332
11706WAT     H235361   9.778   6.323   3.300
11707WAT      O35362   4.157   7.076   2.944
11707WAT     H135363   4.219   7.144   2.906
11707WAT     H235364   4.107   7.031   2.870
11708WAT      O35365   2.724   0.834   2.852
11708WAT     H135366   2.717   0.747   2.803
11708WAT     H235367   2.670   0.903   2.806
11709WAT      O35368   1.167   8.667   7.417
11709WAT     H135369   1.144   8.709   7.329
11709WAT     H235370   1.131   8.573   7.419
11710WAT      O35371   7.337   8.471   9.555
11710WAT     H135372   7.244   8.498   9.532
11710WAT     H235373   7.401   8.515   9.492
11711WAT      O35374   6.282   5.187   5.997
11711WAT     H135375   6.217   5.195   6.071
11711WAT     H235376   6.351   5.118   6.020
11712WAT      O35377   2.699   6.682   3.198
11712WAT     H135378   2.720   6.717   3.290
11712WAT     H235379   2.723   6.751   3.130
11713WAT      O35380   3.465   9.294   6.308
11713WAT     H135381   3.493   9.368   6.369
11713WAT     H235382   3.406   9.331   6.236
11714WAT      O35383   7.739   0.812   8.516
11714WAT     H135384   7.812   0.744   8.528
11714WAT     H235385   7.664   0.772   8.464
11715WAT      O35386   9.344   8.898   4.551
11715WAT     H135387   9.387   8.947   4.626
11715WAT     H235388   9.252   8.933   4.536
11716WAT      O35389   9.099   0.467   7.380
11716WAT     H135390   9.004   0.499   7.370
11716WAT     H235391   9.098   0.373   7.414
11717WAT      O35392   6.028   1.316   7.299
11717WAT     H135393   6.030   1.382   7.375
11717WAT     H235394   5.991   1.360   7.218
11718WAT      O35395   2.569   0.073   9.779
11718WAT     H135396   2.550   0.135   9.855
11718WAT     H235397   2.516   0.101   9.699
11719WAT      O35398   1.273   7.154   3.727
11719WAT     H135399   1.276   7.252   3.744
11719WAT     H235400   1.194   7.132   3.670
11720WAT      O35401   4.006   6.098   4.052
11720WAT     H135402   3.919   6.059   4.021
11720WAT     H235403   4.044   6.043   4.125
11721WAT      O35404   0.076   1.551   0.976
11721WAT     H135405  -0.000   1.616   0.975
11721WAT     H235406   0.153   1.590   1.026
11722WAT      O35407   9.188   0.485   5.544
11722WAT     H135408   9.172   0.431   5.461
11722WAT     H235409   9.271   0.539   5.534
11723WAT      O35410   3.920   0.040   4.090
11723WAT     H135411   3.899  -0.056   4.069
11723WAT     H235412   4.007   0.045   4.138
11724WAT      O35413   0.639   4.689   9.495
11724WAT     H135414   0.709   4.738   9.546
11724WAT     H235415   0.674   4.666   9.404
11725WAT      O35416   1.949   0.053   2.202
11725WAT     H135417   1.851   0.052   2.220
11725WAT     H235418   1.966   0.023   2.108
11726WAT      O35419   5.398   0.248   1.801
11726WAT     H135420   5.441   0.248   1.711
11726WAT     H235421   5.317   0.189   1.799
11727WAT      O35422   8.140   6.293   8.739
11727WAT     H135423   8.057   6.297   8.795
11727WAT     H235424   8.200   6.221   8.774
11728WAT      O35425   4.386   1.755   8.823
11728WAT     H135426   4.444   1.678   8.850
11728WAT     H235427   4.331   1.729   8.744
11729WAT      O35428   7.521   6.273   6.849
11729WAT     H135429   7.576   6.356   6.860
11729WAT     H235430   7.574   6.194   6.879
11730WAT      O35431   8.721   4.565   1.211
11730WAT     H135432   8.659   4.639   1.237
11730WAT     H235433   8.673   4.478   1.216
11731WAT      O35434   2.801   2.972   7.966
11731WAT     H135435   2.814   3.058   7.917
11731WAT     H235436   2.827   2.984   8.062
11732WAT      O35437   2.963   8.242   0.069
11732WAT     H135438   2.931   8.152   0.099
11732WAT     H235439   2.931   8.312   0.133
11733WAT      O35440   9.339   2.193   1.198
11733WAT     H135441   9.381   2.122   1.141
11733WAT     H235442   9.370   2.283   1.167
11734WAT      O35443   7.447   1.029   1.791
11734WAT     H135444   7.527   1.076   1.830
11734WAT     H235445   7.460   0.930   1.798
11735WAT      O35446   2.226   6.284   7.223
11735WAT     H135447   2.236   6.344   7.303
11735WAT     H235448   2.233   6.339   7.140
11736WAT      O35449   4.128   9.442   4.245
11736WAT     H135450   4.099   9.352   4.212
11736WAT     H235451   4.185   9.486   4.175
11737WAT      O35452   9.485   4.716   1.135
11737WAT     H135453   9.582   4.690   1.132
11737WAT     H235454   9.432   4.649   1.084
11738WAT      O35455   5.092   0.502   9.801
11738WAT     H135456   5.087   0.586   9.855
11738WAT     H235457   5.075   0.524   9.705
11739WAT      O35458   3.892   4.750   0.729
11739WAT     H135459   3.969   4.791   0.681
11739WAT     H235460   3.873   4.802   0.813
11740WAT      O35461   5.529   3.773   8.247
11740WAT     H135462   5.614   3.805   8.205
11740WAT     H235463   5.500   3.837   8.318
11741WAT      O35464   2.831   6.910   2.781
11741WAT     H135465   2.779   6.971   2.721
11741WAT     H235466   2.928   6.911   2.755
11742WAT      O35467   0.589   2.155   8.048
11742WAT     H135468   0.627   2.096   8.119
11742WAT     H235469   0.510   2.111   8.006
11743WAT      O35470   0.846   1.050   1.859
11743WAT     H135471   0.846   0.950   1.849
11743WAT     H235472   0.776   1.077   1.924
11744WAT      O35473   2.097   8.657   7.710
11744WAT     H135474   2.023   8.644   7.776
11744WAT     H235475   2.090   8.749   7.670
11745WAT      O35476   0.954   1.414   4.240
11745WAT     H135477   0.900   1.368   4.170
11745WAT     H235478   0.893   1.457   4.307
11746WAT      O35479   4.558   8.538   7.077
11746WAT     H135480   4.594   8.586   6.998
11746WAT     H235481   4.628   8.478   7.115
11747WAT      O35482   3.349   7.739   0.148
11747WAT     H135483   3.308   7.828   0.126
11747WAT     H235484   3.338   7.678   0.070
11748WAT      O35485   9.445   5.273   0.450
11748WAT     H135486   9.538   5.253   0.478
11748WAT     H235487   9.425   5.370   0.464
11749WAT      O35488   2.558   0.059   2.280
11749WAT     H135489   2.461   0.060   2.257
11749WAT     H235490   2.600   0.144   2.248
11750WAT      O35491   4.714   3.133   2.771
11750WAT     H135492   4.619   3.165   2.764
11750WAT     H235493   4.715   3.034   2.778
11751WAT      O35494   4.693   5.785   5.370
11751WAT     H135495   4.665   5.720   5.298
11751WAT     H235496   4.774   5.835   5.340
11752WAT      O35497   7.153   7.775   0.067
11752WAT     H135498   7.153   7.694   0.009
11752WAT     H235499   7.241   7.823   0.058
11753WAT      O35500   0.622   2.848   1.460
11753WAT     H135501   0.675   2.882   1.538
11753WAT     H235502   0.580   2.761   1.483
11754WAT      O35503   5.274   9.134   4.339
11754WAT     H135504   5.211   9.057   4.342
11754WAT     H235505   5.299   9.160   4.432
11755WAT      O35506   3.588   0.565   7.110
11755WAT     H135507   3.678   0.556   7.152
11755WAT     H235508   3.525   0.499   7.152
11756WAT      O35509   0.471   3.109   1.803
11756WAT     H135510   0.397   3.107   1.870
11756WAT     H235511   0.543   3.170   1.835
11757WAT      O35512   7.210   9.186   6.639
11757WAT     H135513   7.180   9.093   6.620
11757WAT     H235514   7.218   9.200   6.737
11758WAT      O35515   4.950   4.406   2.853
11758WAT     H135516   5.037   4.376   2.815
11758WAT     H235517   4.877   4.344   2.824
11759WAT      O35518   3.094   5.671   7.445
11759WAT     H135519   3.049   5.673   7.356
11759WAT     H235520   3.192   5.687   7.433
11760WAT      O35521   9.490   4.472   0.535
11760WAT     H135522   9.502   4.476   0.435
11760WAT     H235523   9.417   4.407   0.557
11761WAT      O35524   7.401   5.851   8.179
11761WAT     H135525   7.434   5.941   8.208
11761WAT     H235526   7.471   5.782   8.198
11762WAT      O35527   3.970   4.029   0.790
11762WAT     H135528   4.065   4.055   0.769
11762WAT     H235529   3.943   4.070   0.877
11763WAT      O35530   3.205   6.512   9.713
11763WAT     H135531   3.113   6.496   9.678
11763WAT     H235532   3.214   6.608   9.740
11764WAT      O35533   8.778   3.326   4.023
11764WAT     H135534   8.778   3.239   4.073
11764WAT     H235535   8.718   3.391   4.070
11765WAT      O35536   9.205   8.055   8.153
11765WAT     H135537   9.163   7.967   8.130
11765WAT     H235538   9.223   8.106   8.069
11766WAT      O35539   4.226   6.243   3.835
11766WAT     H135540   4.284   6.184   3.778
11766WAT     H235541   4.207   6.197   3.921
11767WAT      O35542   4.238   6.146   8.617
11767WAT     H135543   4.155   6.097   8.645
11767WAT     H235544   4.214   6.239   8.589
11768WAT      O35545   0.756   6.962   6.792
11768WAT     H135546   0.781   6.893   6.860
11768WAT     H235547   0.667   6.940   6.753
11769WAT      O35548   0.615   6.216   2.614
11769WAT     H135549   0.588   6.128   2.653
11769WAT     H235550   0.540   6.281   2.623
11770WAT      O35551   9.054   6.369   7.182
11770WAT     H135552   9.115   6.365   7.103
11770WAT     H235553   9.106   6.351   7.265
11771WAT      O35554   4.453   5.033   5.399
11771WAT     H135555   4.514   4.965   5.358
11771WAT     H235556   4.492   5.124   5.388
11772WAT      O35557   6.145   6.798   8.353
11772WAT     H135558   6.220   6.791   8.419
11772WAT     H235559   6.085   6.718   8.363
11773WAT      O35560   9.255   0.775   3.572
11773WAT     H135561   9.231   0.691   3.621
11773WAT     H235562   9.173   0.831   3.560
11774WAT      O35563   0.231   3.614   9.843
11774WAT     H135564   0.177   3.549   9.788
11774WAT     H235565   0.202   3.608   9.938
11775WAT      O35566   6.928   5.437   1.740
11775WAT     H135567   6.967   5.353   1.778
11775WAT     H235568   6.840   5.416   1.697
11776WAT      O35569   7.890   2.117   6.634
11776WAT     H135570   7.932   2.196   6.679
11776WAT     H235571   7.875   2.044   6.701
11777WAT      O35572   8.629   9.236   2.994
11777WAT     H135573   8.648   9.334   2.990
11777WAT     H235574   8.555   9.220   3.060
11778WAT      O35575   9.013   1.083   8.621
11778WAT     H135576   8.986   1.076   8.525
11778WAT     H235577   9.083   1.153   8.630
11779WAT      O35578   1.609   8.314   7.500
11779WAT     H135579   1.529   8.337   7.444
11779WAT     H235580   1.633   8.392   7.557
11780WAT      O35581   3.382   6.320   8.650
11780WAT     H135582   3.325   6.277   8.580
11780WAT     H235583   3.415   6.409   8.617
11781WAT      O35584   0.822   6.335   1.630
11781WAT     H135585   0.841   6.303   1.723
11781WAT     H235586   0.775   6.263   1.579
11782WAT      O35587   3.117   8.511   0.894
11782WAT     H135588   3.020   8.500   0.871
11782WAT     H235589   3.130   8.598   0.941
11783WAT      O35590   1.494   9.068   1.363
11783WAT     H135591   1.527   8.985   1.318
11783WAT     H235592   1.447   9.044   1.448
11784WAT      O35593   8.774   1.522   7.289
11784WAT     H135594   8.696   1.529   7.351
11784WAT     H235595   8.801   1.426   7.280
11785WAT      O35596   5.915   3.425   3.090
11785WAT     H135597   5.996   3.370   3.073
11785WAT     H235598   5.930   3.517   3.053
11786WAT      O35599   1.701   8.260   3.792
11786WAT     H135600   1.758   8.320   3.736
11786WAT     H235601   1.737   8.258   3.885
11787WAT      O35602   1.124   2.213   2.532
11787WAT     H135603   1.135   2.147   2.458
11787WAT     H235604   1.066   2.289   2.501
11788WAT      O35605   8.133   6.734   2.001
11788WAT     H135606   8.128   6.637   2.025
11788WAT     H235607   8.083   6.787   2.070
11789WAT      O35608   2.148   5.778   9.852
11789WAT     H135609   2.216   5.839   9.893
11789WAT     H235610   2.194   5.713   9.792
11790WAT      O35611   7.920   0.355   8.527
11790WAT     H135612   7.972   0.270   8.531
11790WAT     H235613   7.842   0.344   8.466
11791WAT      O35614   3.409   4.606   7.069
11791WAT     H135615   3.377   4.632   6.978
11791WAT     H235616   3.373   4.516   7.093
11792WAT      O35617   2.523   5.978   1.908
11792WAT     H135618   2.456   5.911   1.937
11792WAT     H235619   2.545   5.964   1.811
11793WAT      O35620   9.700   2.302   2.171
11793WAT     H135621   9.617   2.342   2.211
11793WAT     H235622   9.738   2.366   2.104
11794WAT      O35623   9.449   5.705   1.415
11794WAT     H135624   9.429   5.610   1.391
11794WAT     H235625   9.486   5.752   1.335
11795WAT      O35626   8.751   8.953   5.016
11795WAT     H135627   8.723   8.944   5.112
11795WAT     H235628   8.848   8.979   5.013
11796WAT      O35629   1.921   8.572   6.435
11796WAT     H135630   1.928   8.492   6.495
11796WAT     H235631   1.905   8.653   6.491
11797WAT      O35632   2.690   0.155   4.020
11797WAT     H135633   2.775   0.107   4.041
11797WAT     H235634   2.630   0.095   3.968
11798WAT      O35635   8.681   2.330   9.283
11798WAT     H135636   8.614   2.262   9.254
11798WAT     H235637   8.731   2.296   9.363
11799WAT      O35638   4.334   7.143   7.789
11799WAT     H135639   4.359   7.234   7.821
11799WAT     H235640   4.416   7.089   7.773
11800WAT      O35641   6.658   0.620   4.453
11800WAT     H135642   6.696   0.688   4.391
11800WAT     H235643   6.725   0.547   4.469
11801WAT      O35644   7.782   8.242   3.071
11801WAT     H135645   7.812   8.284   3.156
11801WAT     H235646   7.738   8.154   3.091
11802WAT      O35647   0.270   6.137   2.852
11802WAT     H135648   0.228   6.172   2.768
11802WAT     H235649   0.323   6.210   2.897
11803WAT      O35650   8.498   4.635   3.687
11803WAT     H135651   8.418   4.695   3.688
11803WAT     H235652   8.514   4.599   3.779
11804WAT      O35653   5.435   1.717   3.408
11804WAT     H135654   5.338   1.712   3.432
11804WAT     H235655   5.445   1.714   3.309
11805WAT      O35656   2.879   2.237   3.943
11805WAT     H135657   2.802   2.258   4.004
11805WAT     H235658   2.944   2.177   3.991
11806WAT      O35659   5.616   1.431   1.622
11806WAT     H135660   5.587   1.346   1.580
11806WAT     H235661   5.538   1.493   1.631
11807WAT      O35662   8.041   9.608   8.107
11807WAT     H135663   8.134   9.606   8.068
11807WAT     H235664   7.992   9.687   8.069
11808WAT      O35665   9.744   8.551   9.536
11808WAT     H135666   9.771   8.587   9.626
11808WAT     H235667   9.670   8.485   9.549
11809WAT      O35668   0.588   8.423   8.840
11809WAT     H135669   0.671   8.469   8.871
11809WAT     H235670   0.558   8.462   8.753
11810WAT      O35671   9.492   5.326   9.270
11810WAT     H135672   9.427   5.335   9.193
11810WAT     H235673   9.487   5.233   9.306
11811WAT      O35674   9.158   0.970   8.864
11811WAT     H135675   9.212   1.054   8.860
11811WAT     H235676   9.093   0.969   8.788
11812WAT      O35677   5.959   9.035   8.977
11812WAT     H135678   5.959   9.127   8.937
11812WAT     H235679   6.028   8.979   8.931
11813WAT      O35680   4.564   9.619   7.571
11813WAT     H135681   4.554   9.627   7.670
11813WAT     H235682   4.548   9.524   7.543
11814WAT      O35683   6.009   9.462   6.724
11814WAT     H135684   6.022   9.457   6.823
11814WAT     H235685   6.095   9.440   6.678
11815WAT      O35686   9.818   2.700   9.580
11815WAT     H135687   9.777   2.728   9.494
11815WAT     H235688   9.747   2.695   9.651
11816WAT      O35689   2.444   2.512   6.073
11816WAT     H135690   2.517   2.580   6.065
11816WAT     H235691   2.449   2.449   5.995
11817WAT      O35692   5.035   0.852   6.181
11817WAT     H135693   5.028   0.822   6.086
11817WAT     H235694   4.967   0.803   6.236
11818WAT      O35695   6.166   4.105   1.388
11818WAT     H135696   6.158   4.066   1.479
11818WAT     H235697   6.101   4.061   1.326
11819WAT      O35698   6.623   6.847   3.971
11819WAT     H135699   6.553   6.867   4.040
11819WAT     H235700   6.635   6.925   3.911
11820WAT      O35701   4.269   3.281   5.845
11820WAT     H135702   4.276   3.352   5.915
11820WAT     H235703   4.191   3.301   5.785
11821WAT      O35704   1.604   5.600   6.162
11821WAT     H135705   1.574   5.572   6.254
11821WAT     H235706   1.674   5.671   6.170
11822WAT      O35707   6.095   1.899   7.837
11822WAT     H135708   6.003   1.936   7.819
11822WAT     H235709   6.159   1.974   7.850
11823WAT      O35710   3.872   6.093   7.964
11823WAT     H135711   3.917   6.005   7.945
11823WAT     H235712   3.821   6.086   8.050
11824WAT      O35713   3.095   8.747   1.007
11824WAT     H135714   3.099   8.788   1.098
11824WAT     H235715   3.090   8.820   0.938
11825WAT      O35716   1.712   9.632   4.013
11825WAT     H135717   1.786   9.690   4.045
11825WAT     H235718   1.624   9.677   4.029
11826WAT      O35719   6.812   8.560   0.754
11826WAT     H135720   6.750   8.506   0.811
11826WAT     H235721   6.786   8.656   0.759
11827WAT      O35722   5.844   8.915   8.170
11827WAT     H135723   5.900   8.832   8.168
11827WAT     H235724   5.769   8.903   8.235
11828WAT      O35725   7.830   9.650   1.509
11828WAT     H135726   7.777   9.567   1.492
11828WAT     H235727   7.785   9.702   1.582
11829WAT      O35728   1.310   2.120   7.935
11829WAT     H135729   1.337   2.188   8.003
11829WAT     H235730   1.297   2.165   7.846
11830WAT      O35731   0.290   9.332   5.266
11830WAT     H135732   0.221   9.279   5.316
11830WAT     H235733   0.338   9.392   5.329
11831WAT      O35734   7.399   7.347   4.624
11831WAT     H135735   7.382   7.287   4.546
11831WAT     H235736   7.316   7.398   4.645
11832WAT      O35737   9.459   1.271   4.900
11832WAT     H135738   9.497   1.179   4.892
11832WAT     H235739   9.365   1.266   4.932
11833WAT      O35740   6.637   9.339   1.925
11833WAT     H135741   6.719   9.286   1.947
11833WAT     H235742   6.646   9.377   1.833
11834WAT      O35743   4.041   8.019   7.125
11834WAT     H135744   4.036   7.936   7.070
11834WAT     H235745   4.137   8.040   7.145
11835WAT      O35746   1.538   5.273   0.656
11835WAT     H135747   1.620   5.242   0.704
11835WAT     H235748   1.507   5.359   0.696
11836WAT      O35749   7.114   1.429   9.121
11836WAT     H135750   7.151   1.340   9.091
11836WAT     H235751   7.015   1.430   9.106
11837WAT      O35752   9.844   6.803   6.234
11837WAT     H135753   9.880   6.711   6.218
11837WAT     H235754   9.746   6.805   6.213
11838WAT      O35755   3.537   4.303   8.676
11838WAT     H135756   3.516   4.323   8.771
11838WAT     H235757   3.472   4.236   8.641
11839WAT      O35758   4.910   5.701   2.833
11839WAT     H135759   4.993   5.664   2.874
11839WAT     H235760   4.916   5.801   2.828
11840WAT      O35761   1.682   9.723   5.657
11840WAT     H135762   1.780   9.716   5.672
11840WAT     H235763   1.636   9.645   5.699
11841WAT      O35764   4.318   9.574   3.037
11841WAT     H135765   4.411   9.579   3.073
11841WAT     H235766   4.310   9.497   2.974
11842WAT      O35767   8.328   4.171   5.504
11842WAT     H135768   8.232   4.171   5.531
11842WAT     H235769   8.357   4.077   5.484
11843WAT      O35770   1.349   0.465   2.692
11843WAT     H135771   1.304   0.534   2.749
11843WAT     H235772   1.324   0.479   2.596
11844WAT      O35773   4.781   7.889   2.164
11844WAT     H135774   4.724   7.921   2.239
11844WAT     H235775   4.874   7.870   2.199
11845WAT      O35776   8.440   1.749   2.538
11845WAT     H135777   8.395   1.722   2.452
11845WAT     H235778   8.377   1.734   2.614
11846WAT      O35779   0.901   6.763   5.194
11846WAT     H135780   0.839   6.842   5.189
11846WAT     H235781   0.857   6.684   5.153
11847WAT      O35782   1.468   7.234   0.488
11847WAT     H135783   1.436   7.269   0.400
11847WAT     H235784   1.565   7.258   0.500
11848WAT      O35785   4.276   2.824   4.681
11848WAT     H135786   4.261   2.903   4.741
11848WAT     H235787   4.304   2.746   4.737
11849WAT      O35788   8.040   5.931   4.289
11849WAT     H135789   8.001   6.010   4.336
11849WAT     H235790   8.074   5.865   4.356
11850WAT      O35791   5.904   1.951   7.155
11850WAT     H135792   5.980   1.917   7.100
11850WAT     H235793   5.825   1.891   7.146
11851WAT      O35794   4.771   1.784   5.971
11851WAT     H135795   4.852   1.732   6.000
11851WAT     H235796   4.797   1.878   5.950
11852WAT      O35797   1.235   1.452   4.787
11852WAT     H135798   1.190   1.399   4.859
11852WAT     H235799   1.313   1.399   4.752
11853WAT      O35800   2.199   7.515   6.705
11853WAT     H135801   2.119   7.498   6.647
11853WAT     H235802   2.227   7.611   6.696
11854WAT      O35803   5.427   1.859   8.757
11854WAT     H135804   5.439   1.951   8.720
11854WAT     H235805   5.498   1.840   8.824
11855WAT      O35806   4.370   1.891   1.497
11855WAT     H135807   4.272   1.873   1.484
11855WAT     H235808   4.418   1.805   1.515
11856WAT      O35809   1.836   1.544   2.589
11856WAT     H135810   1.750   1.553   2.639
11856WAT     H235811   1.900   1.491   2.643
11857WAT      O35812   7.259   9.812   1.778
11857WAT     H135813   7.176   9.848   1.735
11857WAT     H235814   7.238   9.780   1.870
11858WAT      O35815   7.837   7.009   7.534
11858WAT     H135816   7.738   7.017   7.543
11858WAT     H235817   7.881   7.028   7.622
11859WAT      O35818   8.802   4.798   3.296
11859WAT     H135819   8.743   4.759   3.366
11859WAT     H235820   8.746   4.830   3.219
11860WAT      O35821   4.564   6.477   1.510
11860WAT     H135822   4.514   6.563   1.509
11860WAT     H235823   4.588   6.453   1.604
11861WAT      O35824   6.388   3.730   8.287
11861WAT     H135825   6.389   3.679   8.201
11861WAT     H235826   6.429   3.675   8.359
11862WAT      O35827   8.350   1.405   8.547
11862WAT     H135828   8.339   1.369   8.455
11862WAT     H235829   8.260   1.420   8.588
11863WAT      O35830   6.768   8.097   5.116
11863WAT     H135831   6.758   8.009   5.162
11863WAT     H235832   6.809   8.084   5.026
11864WAT      O35833   7.713   9.129   7.728
11864WAT     H135834   7.681   9.216   7.691
11864WAT     H235835   7.707   9.058   7.659
11865WAT      O35836   2.787   0.448   5.338
11865WAT     H135837   2.743   0.433   5.427
11865WAT     H235838   2.847   0.371   5.317
11866WAT      O35839   5.118   3.699   5.578
11866WAT     H135840   5.051   3.731   5.511
11866WAT     H235841   5.208   3.735   5.554
11867WAT      O35842   6.876   3.348   9.456
11867WAT     H135843   6.964   3.391   9.475
11867WAT     H235844   6.839   3.384   9.370
11868WAT      O35845   1.381   1.718   8.224
11868WAT     H135846   1.443   1.684   8.153
11868WAT     H235847   1.352   1.811   8.201
11869WAT      O35848   1.425   2.413   3.886
11869WAT     H135849   1.415   2.326   3.934
11869WAT     H235850   1.408   2.399   3.788
11870WAT      O35851   0.509   8.330   2.232
11870WAT     H135852   0.457   8.390   2.292
11870WAT     H235853   0.507   8.237   2.269
11871WAT      O35854   7.399   6.588   3.178
11871WAT     H135855   7.357   6.522   3.241
11871WAT     H235856   7.401   6.678   3.222
11872WAT      O35857   6.016   3.125   3.246
11872WAT     H135858   6.046   3.059   3.315
11872WAT     H235859   6.057   3.102   3.158
11873WAT      O35860   8.969   0.105   1.977
11873WAT     H135861   8.894   0.170   1.967
11873WAT     H235862   9.054   0.154   1.992
11874WAT      O35863   9.551   7.717   8.528
11874WAT     H135864   9.500   7.637   8.561
11874WAT     H235865   9.498   7.762   8.456
11875WAT      O35866   2.774   3.957   4.563
11875WAT     H135867   2.865   3.984   4.593
11875WAT     H235868   2.706   3.990   4.628
11876WAT      O35869   3.232   4.705   9.373
11876WAT     H135870   3.288   4.788   9.364
11876WAT     H235871   3.266   4.650   9.449
11877WAT      O35872   0.459   7.203   7.801
11877WAT     H135873   0.453   7.251   7.888
11877WAT     H235874   0.418   7.112   7.810
11878WAT      O35875   2.863   2.487   6.360
11878WAT     H135876   2.864   2.584   6.333
11878WAT     H235877   2.878   2.480   6.458
11879WAT      O35878   5.878   2.051   7.758
11879WAT     H135879   5.840   2.025   7.669
11879WAT     H235880   5.936   2.131   7.748
11880WAT      O35881   8.815   0.506   3.186
11880WAT     H135882   8.905   0.469   3.213
11880WAT     H235883   8.800   0.488   3.089
11881WAT      O35884   6.703   3.236   8.399
11881WAT     H135885   6.701   3.289   8.485
11881WAT     H235886   6.677   3.295   8.323
11882WAT      O35887   1.032   3.920   5.150
11882WAT     H135888   1.017   3.831   5.107
11882WAT     H235889   0.979   3.926   5.235
11883WAT      O35890   2.664   5.220   6.844
11883WAT     H135891   2.659   5.234   6.745
11883WAT     H235892   2.698   5.304   6.888
11884WAT      O35893   2.692   8.499   6.980
11884WAT     H135894   2.664   8.592   6.957
11884WAT     H235895   2.732   8.498   7.072
11885WAT      O35896   4.820   8.650   1.830
11885WAT     H135897   4.749   8.605   1.884
11885WAT     H235898   4.814   8.749   1.843
11886WAT      O35899   2.011   4.439   4.719
11886WAT     H135900   1.981   4.378   4.793
11886WAT     H235901   2.109   4.429   4.706
11887WAT      O35902   3.390   5.968   6.430
11887WAT     H135903   3.464   5.915   6.471
11887WAT     H235904   3.307   5.956   6.483
11888WAT      O35905   0.412   9.265   1.885
11888WAT     H135906   0.460   9.290   1.968
11888WAT     H235907   0.457   9.308   1.806
11889WAT      O35908   0.408   9.719   1.975
11889WAT     H135909   0.491   9.750   1.928
11889WAT     H235910   0.334   9.709   1.909
11890WAT      O35911   8.040   2.413   4.406
11890WAT     H135912   7.954   2.377   4.371
11890WAT     H235913   8.098   2.440   4.330
11891WAT      O35914   1.571   2.451   0.609
11891WAT     H135915   1.657   2.459   0.660
11891WAT     H235916   1.574   2.368   0.552
11892WAT      O35917   0.028   2.804   3.895
11892WAT     H135918   0.005   2.708   3.905
11892WAT     H235919   0.110   2.813   3.837
11893WAT      O35920   0.584   8.322   9.237
11893WAT     H135921   0.675   8.362   9.228
11893WAT     H235922   0.523   8.387   9.281
11894WAT      O35923   0.084   5.972   7.205
11894WAT     H135924  -0.013   5.974   7.231
11894WAT     H235925   0.131   5.901   7.258
11895WAT      O35926   6.895   6.510   2.666
11895WAT     H135927   6.890   6.411   2.651
11895WAT     H235928   6.990   6.537   2.678
11896WAT      O35929   7.313   5.303   6.347
11896WAT     H135930   7.391   5.240   6.336
11896WAT     H235931   7.228   5.256   6.323
11897WAT      O35932   1.881   8.618   6.771
11897WAT     H135933   1.908   8.714   6.762
11897WAT     H235934   1.789   8.613   6.809
11898WAT      O35935   4.294   0.313   8.294
11898WAT     H135936   4.326   0.404   8.319
11898WAT     H235937   4.225   0.282   8.359
11899WAT      O35938   0.013   2.218   7.288
11899WAT     H135939   0.020   2.252   7.194
11899WAT     H235940   0.002   2.119   7.287
11900WAT      O35941   3.344   3.415   6.960
11900WAT     H135942   3.292   3.489   7.004
11900WAT     H235943   3.412   3.453   6.898
11901WAT      O35944   5.743   0.325   6.547
11901WAT     H135945   5.801   0.292   6.621
11901WAT     H235946   5.798   0.341   6.466
11902WAT      O35947   7.085   5.410   5.885
11902WAT     H135948   7.136   5.332   5.922
11902WAT     H235949   7.114   5.494   5.932
11903WAT      O35950   4.589   0.719   8.731
11903WAT     H135951   4.634   0.703   8.819
11903WAT     H235952   4.508   0.776   8.746
11904WAT      O35953   1.180   7.599   6.043
11904WAT     H135954   1.262   7.620   6.096
11904WAT     H235955   1.164   7.501   6.043
11905WAT      O35956   3.677   3.663   5.252
11905WAT     H135957   3.615   3.668   5.174
11905WAT     H235958   3.651   3.733   5.319
11906WAT      O35959   9.552   8.812   6.341
11906WAT     H135960   9.611   8.841   6.417
11906WAT     H235961   9.471   8.767   6.378
11907WAT      O35962   0.723   0.420   8.859
11907WAT     H135963   0.647   0.484   8.849
11907WAT     H235964   0.784   0.427   8.780
11908WAT      O35965   9.796   0.032   1.752
11908WAT     H135966   9.699   0.012   1.736
11908WAT     H235967   9.849   0.002   1.672
11909WAT      O35968   1.126   2.106   3.201
11909WAT     H135969   1.137   2.050   3.283
11909WAT     H235970   1.030   2.131   3.191
11910WAT      O35971   3.912   2.694   5.893
11910WAT     H135972   3.848   2.692   5.816
11910WAT     H235973   3.923   2.788   5.925
11911WAT      O35974   4.256   3.266   6.421
11911WAT     H135975   4.343   3.314   6.413
11911WAT     H235976   4.182   3.324   6.386
11912WAT      O35977   2.519   0.904   9.380
11912WAT     H135978   2.444   0.926   9.443
11912WAT     H235979   2.567   0.988   9.355
11913WAT      O35980   1.683   2.334   1.528
11913WAT     H135981   1.658   2.288   1.443
11913WAT     H235982   1.704   2.266   1.598
11914WAT      O35983   4.952   3.506   2.933
11914WAT     H135984   4.922   3.481   2.841
11914WAT     H235985   4.877   3.490   2.997
11915WAT      O35986   2.048   1.322   9.829
11915WAT     H135987   2.100   1.261   9.768
11915WAT     H235988   1.976   1.270   9.874
11916WAT      O35989   6.160   8.654   8.689
11916WAT     H135990   6.142   8.603   8.605
11916WAT     H235991   6.079   8.651   8.748
11917WAT      O35992   7.314   3.959   1.169
11917WAT     H135993   7.288   4.016   1.247
11917WAT     H235994   7.245   3.888   1.155
11918WAT      O35995   3.485   4.169   7.831
11918WAT     H135996   3.458   4.172   7.927
11918WAT     H235997   3.422   4.109   7.781
11919WAT      O35998   8.499   6.894   8.134
11919WAT     H135999   8.568   6.951   8.089
11919WAT     H236000   8.520   6.797   8.117
11920WAT      O36001   2.534   2.661   3.202
11920WAT     H136002   2.553   2.759   3.212
11920WAT     H236003   2.549   2.615   3.289
11921WAT      O36004   4.643   4.384   8.966
11921WAT     H136005   4.549   4.373   8.935
11921WAT     H236006   4.705   4.343   8.899
11922WAT      O36007   3.247   7.440   3.316
11922WAT     H136008   3.179   7.372   3.290
11922WAT     H236009   3.308   7.458   3.238
11923WAT      O36010   0.774   4.781   5.323
11923WAT     H136011   0.728   4.694   5.340
11923WAT     H236012   0.784   4.830   5.409
11924WAT      O36013   2.162   7.014   8.520
11924WAT     H136014   2.152   7.113   8.533
11924WAT     H236015   2.183   6.996   8.424
11925WAT      O36016   2.637   4.072   0.510
11925WAT     H136017   2.680   3.999   0.458
11925WAT     H236018   2.648   4.159   0.462
11926WAT      O36019   7.428   6.151   1.883
11926WAT     H136020   7.462   6.075   1.939
11926WAT     H236021   7.486   6.163   1.803
11927WAT      O36022   9.323   4.015   3.914
11927WAT     H136023   9.399   3.955   3.886
11927WAT     H236024   9.360   4.104   3.940
11928WAT      O36025   3.875   3.896   0.197
11928WAT     H136026   3.835   3.886   0.107
11928WAT     H236027   3.870   3.808   0.246
11929WAT      O36028   9.101   1.927   9.526
11929WAT     H136029   9.181   1.986   9.539
11929WAT     H236030   9.067   1.897   9.616
11930WAT      O36031   4.441   8.486   6.038
11930WAT     H136032   4.473   8.467   6.131
11930WAT     H236033   4.508   8.546   5.992
11931WAT      O36034   8.593   1.908   6.111
11931WAT     H136035   8.584   2.007   6.100
11931WAT     H236036   8.576   1.884   6.207
11932WAT      O36037   4.793   4.297   7.856
11932WAT     H136038   4.864   4.234   7.825
11932WAT     H236039   4.813   4.326   7.949
11933WAT      O36040   2.030   0.285   0.988
11933WAT     H136041   2.090   0.357   1.022
11933WAT     H236042   2.078   0.230   0.921
11934WAT      O36043   6.242   7.641   9.732
11934WAT     H136044   6.280   7.711   9.793
11934WAT     H236045   6.202   7.686   9.651
11935WAT      O36046   4.681   6.950   1.000
11935WAT     H136047   4.685   6.851   0.990
11935WAT     H236048   4.712   6.994   0.916
11936WAT      O36049   0.949   5.571   7.586
11936WAT     H136050   0.980   5.497   7.645
11936WAT     H236051   0.946   5.539   7.491
11937WAT      O36052   4.446   2.362   4.102
11937WAT     H136053   4.361   2.310   4.097
11937WAT     H236054   4.488   2.350   4.192
11938WAT      O36055   0.363   9.248   3.796
11938WAT     H136056   0.386   9.248   3.699
11938WAT     H236057   0.437   9.207   3.849
11939WAT      O36058   2.230   3.667   2.621
11939WAT     H136059   2.234   3.610   2.539
11939WAT     H236060   2.189   3.755   2.599
11940WAT      O36061   0.496   8.333   6.266
11940WAT     H136062   0.583   8.351   6.311
11940WAT     H236063   0.427   8.396   6.302
11941WAT      O36064   4.532   0.422   4.844
11941WAT     H136065   4.480   0.459   4.767
11941WAT     H236066   4.534   0.489   4.918
11942WAT      O36067   1.590   2.686   3.089
11942WAT     H136068   1.565   2.780   3.069
11942WAT     H236069   1.604   2.675   3.187
11943WAT      O36070   1.760   9.661   8.594
11943WAT     H136071   1.732   9.666   8.690
11943WAT     H236072   1.679   9.653   8.537
11944WAT      O36073   2.281   8.304   4.736
11944WAT     H136074   2.282   8.377   4.804
11944WAT     H236075   2.360   8.314   4.675
11945WAT      O36076   6.962   1.618   4.816
11945WAT     H136077   6.862   1.625   4.819
11945WAT     H236078   7.002   1.706   4.793
11946WAT      O36079   4.168   6.805   8.938
11946WAT     H136080   4.253   6.752   8.943
11946WAT     H236081   4.179   6.890   8.988
11947WAT      O36082   1.373   4.910   7.308
11947WAT     H136083   1.334   4.824   7.341
11947WAT     H236084   1.398   4.900   7.211
11948WAT      O36085   8.831   5.632   2.304
11948WAT     H136086   8.813   5.718   2.257
11948WAT     H236087   8.840   5.559   2.236
11949WAT      O36088   6.676   3.484   0.410
11949WAT     H136089   6.605   3.415   0.421
11949WAT     H236090   6.718   3.503   0.499
11950WAT      O36091   9.505   2.415   8.623
11950WAT     H136092   9.480   2.432   8.718
11950WAT     H236093   9.569   2.339   8.618
11951WAT      O36094   6.933   4.098   2.383
11951WAT     H136095   6.920   4.074   2.287
11951WAT     H236096   6.877   4.038   2.440
11952WAT      O36097   8.206   5.186   1.965
11952WAT     H136098   8.113   5.201   1.999
11952WAT     H236099   8.264   5.154   2.040
11953WAT      O36100   1.292   7.536   1.977
11953WAT     H136101   1.212   7.559   2.032
11953WAT     H236102   1.317   7.615   1.922
11954WAT      O36103   1.494   3.067   6.519
11954WAT     H136104   1.487   2.986   6.576
11954WAT     H236105   1.590   3.096   6.512
11955WAT      O36106   6.249   1.295   3.197
11955WAT     H136107   6.233   1.394   3.201
11955WAT     H236108   6.269   1.268   3.103
11956WAT      O36109   5.675   8.778   8.355
11956WAT     H136110   5.618   8.840   8.407
11956WAT     H236111   5.682   8.691   8.404
11957WAT      O36112   9.697   0.770   1.110
11957WAT     H136113   9.772   0.728   1.059
11957WAT     H236114   9.722   0.863   1.137
11958WAT      O36115   7.630   0.459   4.541
11958WAT     H136116   7.589   0.515   4.612
11958WAT     H236117   7.669   0.376   4.582
11959WAT      O36118   2.306   2.992   8.159
11959WAT     H136119   2.207   3.006   8.159
11959WAT     H236120   2.346   3.046   8.233
11960WAT      O36121   1.710   2.595   9.606
11960WAT     H136122   1.637   2.640   9.656
11960WAT     H236123   1.732   2.507   9.649
11961WAT      O36124   7.170   8.267   3.105
11961WAT     H136125   7.227   8.199   3.059
11961WAT     H236126   7.114   8.315   3.038
11962WAT      O36127   3.487   5.244   4.387
11962WAT     H136128   3.556   5.313   4.409
11962WAT     H236129   3.460   5.196   4.470
11963WAT      O36130   6.921   8.007   6.022
11963WAT     H136131   6.921   8.107   6.012
11963WAT     H236132   6.949   7.965   5.936
11964WAT      O36133   0.472   7.945   7.928
11964WAT     H136134   0.533   8.015   7.892
11964WAT     H236135   0.430   7.895   7.852
11965WAT      O36136   8.697   9.139   6.278
11965WAT     H136137   8.733   9.231   6.269
11965WAT     H236138   8.764   9.073   6.245
11966WAT      O36139   1.786   0.255   2.758
11966WAT     H136140   1.796   0.325   2.687
11966WAT     H236141   1.718   0.285   2.825
11967WAT      O36142   2.338   8.010   4.747
11967WAT     H136143   2.323   8.109   4.735
11967WAT     H236144   2.260   7.960   4.711
11968WAT      O36145   4.235   8.157   6.363
11968WAT     H136146   4.166   8.183   6.431
11968WAT     H236147   4.224   8.060   6.340
11969WAT      O36148   4.488   9.824   9.534
11969WAT     H136149   4.530   9.843   9.623
11969WAT     H236150   4.531   9.882   9.465
11970WAT      O36151   8.071   2.561   3.561
11970WAT     H136152   7.979   2.576   3.525
11970WAT     H236153   8.133   2.538   3.486
11971WAT      O36154   0.104   5.816   6.561
11971WAT     H136155   0.036   5.763   6.510
11971WAT     H236156   0.176   5.846   6.497
11972WAT      O36157   5.662   7.463   4.746
11972WAT     H136158   5.595   7.505   4.808
11972WAT     H236159   5.738   7.426   4.799
11973WAT      O36160   3.324   7.960   3.153
11973WAT     H136161   3.401   7.914   3.198
11973WAT     H236162   3.289   7.902   3.079
11974WAT      O36163   0.758   0.437   3.669
11974WAT     H136164   0.811   0.511   3.627
11974WAT     H236165   0.712   0.384   3.597
11975WAT      O36166   6.326   9.534   3.647
11975WAT     H136167   6.288   9.448   3.680
11975WAT     H236168   6.298   9.608   3.707
11976WAT      O36169   8.127   0.376   5.310
11976WAT     H136170   8.038   0.346   5.276
11976WAT     H236171   8.141   0.472   5.288
11977WAT      O36172   7.245   5.004   3.990
11977WAT     H136173   7.208   5.066   4.059
11977WAT     H236174   7.264   5.056   3.906
11978WAT      O36175   5.062   0.740   0.009
11978WAT     H136176   5.109   0.801   0.073
11978WAT     H236177   5.000   0.792  -0.049
11979WAT      O36178   8.484   1.836   1.842
11979WAT     H136179   8.555   1.898   1.876
11979WAT     H236180   8.459   1.861   1.749
11980WAT      O36181   8.791   7.569   9.266
11980WAT     H136182   8.804   7.518   9.181
11980WAT     H236183   8.699   7.553   9.301
11981WAT      O36184   2.485   0.638   4.723
11981WAT     H136185   2.419   0.706   4.689
11981WAT     H236186   2.481   0.556   4.666
11982WAT      O36187   4.430   4.381   4.954
11982WAT     H136188   4.487   4.460   4.934
11982WAT     H236189   4.482   4.314   5.006
11983WAT      O36190   1.773   1.709   1.500
11983WAT     H136191   1.719   1.793   1.492
11983WAT     H236192   1.781   1.666   1.410
11984WAT      O36193   8.144   6.566   6.181
11984WAT     H136194   8.070   6.571   6.248
11984WAT     H236195   8.206   6.490   6.205
11985WAT      O36196   7.665   6.294   7.280
11985WAT     H136197   7.634   6.372   7.226
11985WAT     H236198   7.644   6.209   7.231
11986WAT      O36199   0.299   0.454   2.345
11986WAT     H136200   0.282   0.427   2.440
11986WAT     H236201   0.264   0.383   2.284
11987WAT      O36202   3.157   0.229   5.089
11987WAT     H136203   3.230   0.208   5.024
11987WAT     H236204   3.129   0.324   5.078
11988WAT      O36205   0.611   6.813   7.383
11988WAT     H136206   0.694   6.763   7.358
11988WAT     H236207   0.570   6.772   7.464
11989WAT      O36208   6.195   5.180   4.284
11989WAT     H136209   6.186   5.224   4.195
11989WAT     H236210   6.273   5.217   4.333
11990WAT      O36211   2.240   7.162   2.125
11990WAT     H136212   2.302   7.084   2.135
11990WAT     H236213   2.188   7.152   2.040
11991WAT      O36214   2.923   8.329   8.171
11991WAT     H136215   2.933   8.277   8.256
11991WAT     H236216   2.884   8.269   8.100
11992WAT      O36217   6.184   0.500   3.278
11992WAT     H136218   6.243   0.504   3.358
11992WAT     H236219   6.135   0.586   3.268
11993WAT      O36220   6.710   1.433   4.343
11993WAT     H136221   6.687   1.348   4.391
11993WAT     H236222   6.782   1.416   4.276
11994WAT      O36223   5.313   8.501   3.081
11994WAT     H136224   5.356   8.416   3.112
11994WAT     H236225   5.272   8.548   3.159
11995WAT      O36226   2.799   2.923   4.972
11995WAT     H136227   2.758   2.832   4.980
11995WAT     H236228   2.727   2.992   4.982
11996WAT      O36229   7.357   7.334   8.838
11996WAT     H136230   7.320   7.299   8.924
11996WAT     H236231   7.328   7.429   8.825
11997WAT      O36232   4.104   4.334   6.533
11997WAT     H136233   4.028   4.288   6.579
11997WAT     H236234   4.157   4.266   6.481
11998WAT      O36235   9.889   6.069   4.501
11998WAT     H136236   9.789   6.069   4.498
11998WAT     H236237   9.921   6.007   4.573
11999WAT      O36238   6.808   3.760   1.008
11999WAT     H136239   6.771   3.710   0.929
11999WAT     H236240   6.907   3.769   0.997
12000WAT      O36241   7.276   6.831   1.717
12000WAT     H136242   7.323   6.910   1.677
12000WAT     H236243   7.309   6.816   1.810
12001WAT      O36244   0.881   6.773   8.127
12001WAT     H136245   0.955   6.835   8.102
12001WAT     H236246   0.905   6.680   8.101
12002WAT      O36247   6.890   1.832   9.138
12002WAT     H136248   6.976   1.783   9.147
12002WAT     H236249   6.879   1.864   9.044
12003WAT      O36250   2.043   5.072   9.351
12003WAT     H136251   1.962   5.103   9.302
12003WAT     H236252   2.067   4.979   9.321
12004WAT      O36253   9.759   0.649   9.152
12004WAT     H136254   9.701   0.688   9.081
12004WAT     H236255   9.782   0.719   9.220
12005WAT      O36256   5.808   4.014   1.496
12005WAT     H136257   5.839   3.930   1.540
12005WAT     H236258   5.708   4.015   1.492
12006WAT      O36259   2.845   8.046   6.457
12006WAT     H136260   2.799   8.006   6.536
12006WAT     H236261   2.815   7.998   6.374
12007WAT      O36262   2.399   9.695   0.602
12007WAT     H136263   2.483   9.660   0.645
12007WAT     H236264   2.355   9.621   0.552
12008WAT      O36265   2.483   8.311   6.031
12008WAT     H136266   2.412   8.296   5.962
12008WAT     H236267   2.554   8.372   5.994
12009WAT      O36268   0.176   5.465   9.318
12009WAT     H136269   0.124   5.523   9.255
12009WAT     H236270   0.179   5.372   9.282
12010WAT      O36271   5.490   4.604   8.298
12010WAT     H136272   5.508   4.509   8.272
12010WAT     H236273   5.577   4.652   8.310
12011WAT      O36274   1.499   8.802   3.299
12011WAT     H136275   1.595   8.827   3.310
12011WAT     H236276   1.449   8.828   3.381
12012WAT      O36277   6.014   3.292   7.823
12012WAT     H136278   6.097   3.347   7.823
12012WAT     H236279   5.969   3.301   7.911
12013WAT      O36280   8.188   2.238   0.285
12013WAT     H136281   8.202   2.204   0.378
12013WAT     H236282   8.269   2.291   0.257
12014WAT      O36283   4.982   1.148   2.918
12014WAT     H136284   5.040   1.067   2.915
12014WAT     H236285   4.922   1.143   2.998
12015WAT      O36286   5.359   8.409   6.618
12015WAT     H136287   5.415   8.475   6.567
12015WAT     H236288   5.406   8.385   6.703
12016WAT      O36289   5.752   7.919   0.849
12016WAT     H136290   5.794   7.830   0.866
12016WAT     H236291   5.688   7.911   0.772
12017WAT      O36292   4.646   2.566   1.182
12017WAT     H136293   4.740   2.576   1.147
12017WAT     H236294   4.635   2.619   1.265
12018WAT      O36295   4.322   2.794   7.033
12018WAT     H136296   4.383   2.722   7.000
12018WAT     H236297   4.302   2.779   7.130
12019WAT      O36298   4.868   1.964   9.765
12019WAT     H136299   4.814   1.882   9.782
12019WAT     H236300   4.934   1.947   9.692
12020WAT      O36301   2.293   3.795   9.880
12020WAT     H136302   2.359   3.859   9.841
12020WAT     H236303   2.284   3.812   9.978
12021WAT      O36304   1.732   8.519   9.564
12021WAT     H136305   1.753   8.422   9.563
12021WAT     H236306   1.664   8.538   9.634
12022WAT      O36307   6.628   1.815   7.611
12022WAT     H136308   6.563   1.760   7.558
12022WAT     H236309   6.696   1.755   7.653
12023WAT      O36310   6.495   0.044   3.341
12023WAT     H136311   6.452   0.106   3.406
12023WAT     H236312   6.445   0.045   3.254
12024WAT      O36313   1.890   3.425   7.294
12024WAT     H136314   1.983   3.411   7.329
12024WAT     H236315   1.875   3.366   7.215
12025WAT      O36316   0.082   5.085   2.727
12025WAT     H136317   0.147   5.013   2.751
12025WAT     H236318   0.060   5.138   2.809
12026WAT      O36319   8.871   8.245   1.044
12026WAT     H136320   8.943   8.180   1.019
12026WAT     H236321   8.893   8.287   1.131
12027WAT      O36322   1.867   8.178   1.901
12027WAT     H136323   1.850   8.212   1.809
12027WAT     H236324   1.911   8.088   1.896
12028WAT      O36325   0.114   6.453   0.669
12028WAT     H136326   0.044   6.522   0.654
12028WAT     H236327   0.082   6.364   0.636
12029WAT      O36328   4.037   0.685   4.069
12029WAT     H136329   3.991   0.680   3.981
12029WAT     H236330   3.982   0.740   4.132
12030WAT      O36331   8.058   4.108   1.370
12030WAT     H136332   8.100   4.070   1.288
12030WAT     H236333   8.123   4.106   1.446
12031WAT      O36334   3.574   4.640   3.897
12031WAT     H136335   3.554   4.543   3.882
12031WAT     H236336   3.600   4.655   3.992
12032WAT      O36337   7.190   7.273   5.902
12032WAT     H136338   7.209   7.366   5.871
12032WAT     H236339   7.224   7.207   5.835
12033WAT      O36340   7.552   0.200   9.054
12033WAT     H136341   7.476   0.156   9.102
12033WAT     H236342   7.523   0.289   9.020
12034WAT      O36343   1.302   4.080   3.139
12034WAT     H136344   1.328   4.100   3.044
12034WAT     H236345   1.227   4.141   3.166
12035WAT      O36346   4.171   0.937   5.169
12035WAT     H136347   4.100   0.904   5.231
12035WAT     H236348   4.261   0.920   5.210
12036WAT      O36349   8.110   1.388   3.178
12036WAT     H136350   8.053   1.463   3.208
12036WAT     H236351   8.062   1.334   3.109
12037WAT      O36352   4.068   7.895   0.444
12037WAT     H136353   4.088   7.798   0.435
12037WAT     H236354   4.133   7.948   0.389
12038WAT      O36355   8.574   1.323   5.880
12038WAT     H136356   8.638   1.314   5.804
12038WAT     H236357   8.592   1.252   5.948
12039WAT      O36358   2.571   9.833   4.899
12039WAT     H136359   2.514   9.901   4.946
12039WAT     H236360   2.568   9.849   4.801
12040WAT      O36361   5.168   5.690   6.374
12040WAT     H136362   5.123   5.761   6.428
12040WAT     H236363   5.226   5.733   6.305
12041WAT      O36364   2.301   4.186   9.663
12041WAT     H136365   2.246   4.269   9.664
12041WAT     H236366   2.389   4.203   9.708
12042WAT      O36367   1.516   0.384   8.068
12042WAT     H136368   1.509   0.353   7.974
12042WAT     H236369   1.427   0.418   8.099
12043WAT      O36370   1.867   7.237   5.965
12043WAT     H136371   1.909   7.303   6.027
12043WAT     H236372   1.769   7.232   5.985
12044WAT      O36373   5.567   7.055   3.501
12044WAT     H136374   5.575   6.987   3.573
12044WAT     H236375   5.509   7.018   3.428
12045WAT      O36376   9.523   5.887   1.193
12045WAT     H136377   9.448   5.935   1.147
12045WAT     H236378   9.560   5.945   1.266
12046WAT      O36379   4.838   9.661   5.700
12046WAT     H136380   4.821   9.595   5.774
12046WAT     H236381   4.937   9.666   5.683
12047WAT      O36382   9.122   2.375   3.122
12047WAT     H136383   9.039   2.319   3.127
12047WAT     H236384   9.196   2.320   3.083
12048WAT      O36385   3.317   5.515   9.547
12048WAT     H136386   3.278   5.496   9.637
12048WAT     H236387   3.314   5.432   9.491
12049WAT      O36388   3.842   0.134   0.123
12049WAT     H136389   3.859   0.077   0.042
12049WAT     H236390   3.744   0.145   0.135
12050WAT      O36391   7.908   5.183   1.669
12050WAT     H136392   7.809   5.168   1.675
12050WAT     H236393   7.955   5.095   1.670
12051WAT      O36394   4.674   6.108   2.033
12051WAT     H136395   4.705   6.137   1.942
12051WAT     H236396   4.576   6.086   2.029
12052WAT      O36397   1.310   3.651   0.864
12052WAT     H136398   1.355   3.648   0.774
12052WAT     H236399   1.378   3.676   0.933
12053WAT      O36400   5.447   0.973   2.875
12053WAT     H136401   5.485   0.900   2.819
12053WAT     H236402   5.497   0.978   2.961
12054WAT      O36403   8.835   2.526   7.251
12054WAT     H136404   8.789   2.455   7.199
12054WAT     H236405   8.830   2.505   7.348
12055WAT      O36406   6.225   9.165   7.025
12055WAT     H136407   6.209   9.084   7.081
12055WAT     H236408   6.174   9.157   6.939
12056WAT      O36409   5.404   1.276   9.488
12056WAT     H136410   5.449   1.352   9.442
12056WAT     H236411   5.305   1.282   9.474
12057WAT      O36412   4.015   6.514   3.601
12057WAT     H136413   4.069   6.440   3.560
12057WAT     H236414   3.986   6.577   3.529
12058WAT      O36415   6.232   1.930   4.710
12058WAT     H136416   6.210   1.841   4.672
12058WAT     H236417   6.161   1.957   4.775
12059WAT      O36418   8.902   9.167   3.341
12059WAT     H136419   8.889   9.072   3.313
12059WAT     H236420   8.951   9.171   3.428
12060WAT      O36421   6.420   9.310   5.089
12060WAT     H136422   6.465   9.235   5.041
12060WAT     H236423   6.397   9.382   5.023
12061WAT      O36424   0.358   8.571   4.143
12061WAT     H136425   0.289   8.535   4.080
12061WAT     H236426   0.449   8.553   4.106
12062WAT      O36427   6.222   2.540   0.913
12062WAT     H136428   6.261   2.632   0.903
12062WAT     H236429   6.295   2.472   0.907
12063WAT      O36430   8.869   0.870   3.806
12063WAT     H136431   8.957   0.860   3.852
12063WAT     H236432   8.885   0.881   3.708
12064WAT      O36433   3.634   1.514   1.645
12064WAT     H136434   3.655   1.496   1.741
12064WAT     H236435   3.667   1.437   1.589
12065WAT      O36436   3.564   5.401   0.300
12065WAT     H136437   3.582   5.382   0.203
12065WAT     H236438   3.571   5.315   0.352
12066WAT      O36439   2.714   9.384   7.877
12066WAT     H136440   2.775   9.306   7.893
12066WAT     H236441   2.639   9.381   7.944
12067WAT      O36442   8.293   4.187   6.578
12067WAT     H136443   8.253   4.131   6.650
12067WAT     H236444   8.258   4.281   6.584
12068WAT      O36445   9.100   8.219   2.350
12068WAT     H136446   9.120   8.140   2.293
12068WAT     H236447   9.183   8.272   2.364
12069WAT      O36448   1.223   0.516   3.255
12069WAT     H136449   1.124   0.509   3.255
12069WAT     H236450   1.253   0.569   3.334
12070WAT      O36451   4.400   8.187   8.764
12070WAT     H136452   4.404   8.098   8.811
12070WAT     H236453   4.474   8.192   8.697
12071WAT      O36454   3.697   7.882   1.546
12071WAT     H136455   3.674   7.843   1.635
12071WAT     H236456   3.736   7.812   1.487
12072WAT      O36457   2.137   5.327   1.618
12072WAT     H136458   2.095   5.239   1.598
12072WAT     H236459   2.076   5.379   1.679
12073WAT      O36460   0.505   5.084   4.127
12073WAT     H136461   0.451   5.137   4.061
12073WAT     H236462   0.516   4.991   4.095
12074WAT      O36463   1.444   1.619   4.863
12074WAT     H136464   1.368   1.557   4.844
12074WAT     H236465   1.477   1.604   4.957
12075WAT      O36466   3.624   5.611   3.673
12075WAT     H136467   3.589   5.582   3.584
12075WAT     H236468   3.723   5.628   3.666
12076WAT      O36469   8.072   2.931   1.721
12076WAT     H136470   8.141   2.983   1.672
12076WAT     H236471   8.033   2.861   1.661
12077WAT      O36472   4.821   1.387   6.398
12077WAT     H136473   4.829   1.479   6.435
12077WAT     H236474   4.741   1.342   6.437
12078WAT      O36475   6.444   1.931   9.065
12078WAT     H136476   6.470   2.010   9.120
12078WAT     H236477   6.489   1.849   9.101
12079WAT      O36478   2.524   1.529   1.806
12079WAT     H136479   2.531   1.548   1.708
12079WAT     H236480   2.429   1.537   1.835
12080WAT      O36481   7.134   5.650   2.496
12080WAT     H136482   7.117   5.607   2.407
12080WAT     H236483   7.056   5.634   2.556
12081WAT      O36484   5.463   7.282   2.180
12081WAT     H136485   5.460   7.347   2.256
12081WAT     H236486   5.537   7.307   2.118
12082WAT      O36487   0.866   0.228   3.030
12082WAT     H136488   0.841   0.171   2.952
12082WAT     H236489   0.907   0.170   3.102
12083WAT      O36490   1.129   7.519   6.596
12083WAT     H136491   1.224   7.510   6.566
12083WAT     H236492   1.086   7.597   6.548
12084WAT      O36493   0.678   1.980   9.594
12084WAT     H136494   0.660   1.975   9.495
12084WAT     H236495   0.727   1.898   9.623
12085WAT      O36496   5.939   5.328   3.679
12085WAT     H136497   5.873   5.402   3.695
12085WAT     H236498   5.903   5.242   3.715
12086WAT      O36499   0.757   1.234   9.479
12086WAT     H136500   0.667   1.275   9.494
12086WAT     H236501   0.747   1.136   9.460
12087WAT      O36502   3.872   6.220   5.087
12087WAT     H136503   3.840   6.145   5.028
12087WAT     H236504   3.969   6.209   5.106
12088WAT      O36505   8.118   9.577   6.211
12088WAT     H136506   8.097   9.606   6.305
12088WAT     H236507   8.111   9.656   6.150
12089WAT      O36508   8.480   9.609   5.991
12089WAT     H136509   8.545   9.567   5.928
12089WAT     H236510   8.422   9.538   6.031
12090WAT      O36511   4.027   5.884   4.773
12090WAT     H136512   3.996   5.871   4.679
12090WAT     H236513   4.117   5.843   4.785
12091WAT      O36514   3.195   1.999   7.809
12091WAT     H136515   3.144   2.003   7.723
12091WAT     H236516   3.252   1.917   7.811
12092WAT      O36517   2.602   2.479   7.345
12092WAT     H136518   2.545   2.410   7.388
12092WAT     H236519   2.553   2.566   7.340
12093WAT      O36520   8.900   4.976   7.946
12093WAT     H136521   8.969   4.971   8.017
12093WAT     H236522   8.861   4.885   7.930
12094WAT      O36523   3.721   2.982   1.102
12094WAT     H136524   3.733   3.078   1.126
12094WAT     H236525   3.810   2.936   1.106
12095WAT      O36526   0.950   9.324   5.611
12095WAT     H136527   0.958   9.390   5.685
12095WAT     H236528   1.004   9.355   5.533
12096WAT      O36529   5.900   8.434   3.831
12096WAT     H136530   5.895   8.337   3.806
12096WAT     H236531   5.864   8.490   3.757
12097WAT      O36532   1.013   7.891   1.071
12097WAT     H136533   1.056   7.968   1.023
12097WAT     H236534   1.080   7.848   1.132
12098WAT      O36535   2.568   4.780   5.002
12098WAT     H136536   2.666   4.794   5.019
12098WAT     H236537   2.547   4.802   4.907
12099WAT      O36538   4.918   8.559   9.400
12099WAT     H136539   4.898   8.647   9.355
12099WAT     H236540   4.924   8.573   9.499
12100WAT      O36541   2.486   3.460   7.208
12100WAT     H136542   2.397   3.429   7.174
12100WAT     H236543   2.474   3.501   7.298
12101WAT      O36544   5.022   0.474   6.043
12101WAT     H136545   4.995   0.378   6.043
12101WAT     H236546   4.945   0.531   6.014
12102WAT      O36547   8.114   0.494   9.023
12102WAT     H136548   8.203   0.529   8.994
12102WAT     H236549   8.125   0.402   9.060
12103WAT      O36550   6.377   0.842   6.439
12103WAT     H136551   6.323   0.916   6.398
12103WAT     H236552   6.471   0.847   6.404
12104WAT      O36553   8.206   6.216   2.554
12104WAT     H136554   8.144   6.283   2.513
12104WAT     H236555   8.290   6.210   2.499
12105WAT      O36556   5.576   0.389   8.509
12105WAT     H136557   5.625   0.426   8.430
12105WAT     H236558   5.513   0.317   8.479
12106WAT      O36559   8.249   9.773   3.550
12106WAT     H136560   8.247   9.717   3.633
12106WAT     H236561   8.340   9.810   3.536
12107WAT      O36562   1.999   8.366   8.607
12107WAT     H136563   1.956   8.430   8.543
12107WAT     H236564   2.009   8.277   8.564
12108WAT      O36565   5.898   6.564   1.907
12108WAT     H136566   5.814   6.602   1.945
12108WAT     H236567   5.971   6.633   1.911
12109WAT      O36568   1.491   8.490   9.360
12109WAT     H136569   1.535   8.484   9.270
12109WAT     H236570   1.486   8.399   9.401
12110WAT      O36571   6.267   1.813   8.872
12110WAT     H136572   6.234   1.731   8.919
12110WAT     H236573   6.336   1.859   8.929
12111WAT      O36574   7.036   3.857   0.570
12111WAT     H136575   6.981   3.930   0.529
12111WAT     H236576   7.033   3.776   0.511
12112WAT      O36577   7.639   0.307   5.424
12112WAT     H136578   7.622   0.238   5.495
12112WAT     H236579   7.552   0.350   5.399
12113WAT      O36580   1.192   6.026   5.827
12113WAT     H136581   1.121   6.079   5.780
12113WAT     H236582   1.156   5.936   5.850
12114WAT      O36583   8.385   2.065   7.472
12114WAT     H136584   8.479   2.089   7.446
12114WAT     H236585   8.321   2.107   7.408
12115WAT      O36586   2.513   6.303   3.436
12115WAT     H136587   2.609   6.276   3.438
12115WAT     H236588   2.459   6.231   3.393
12116WAT      O36589   4.404   7.465   7.208
12116WAT     H136590   4.417   7.432   7.301
12116WAT     H236591   4.460   7.548   7.194
12117WAT      O36592   1.278   3.900   4.236
12117WAT     H136593   1.355   3.846   4.268
12117WAT     H236594   1.227   3.935   4.315
12118WAT      O36595   1.184   6.077   6.846
12118WAT     H136596   1.218   6.171   6.847
12118WAT     H236597   1.153   6.052   6.938
12119WAT      O36598   3.119   8.432   3.536
12119WAT     H136599   3.029   8.449   3.497
12119WAT     H236600   3.140   8.334   3.529
12120WAT      O36601   4.055   7.057   1.834
12120WAT     H136602   3.980   7.077   1.772
12120WAT     H236603   4.129   7.012   1.784
12121WAT      O36604   6.275   7.243   5.276
12121WAT     H136605   6.347   7.304   5.243
12121WAT     H236606   6.196   7.248   5.215
12122WAT      O36607   7.964   2.030   3.386
12122WAT     H136608   7.932   2.121   3.414
12122WAT     H236609   8.062   2.023   3.402
12123WAT      O36610   3.379   4.931   0.480
12123WAT     H136611   3.300   4.944   0.541
12123WAT     H236612   3.347   4.898   0.391
12124WAT      O36613   2.050   6.510   4.799
12124WAT     H136614   2.067   6.457   4.882
12124WAT     H236615   2.104   6.472   4.724
12125WAT      O36616   8.667   6.119   3.317
12125WAT     H136617   8.705   6.144   3.406
12125WAT     H236618   8.741   6.103   3.252
12126WAT      O36619   1.193   5.163   6.099
12126WAT     H136620   1.277   5.175   6.046
12126WAT     H236621   1.187   5.069   6.131
12127WAT      O36622   6.076   1.002   1.821
12127WAT     H136623   5.983   1.036   1.817
12127WAT     H236624   6.140   1.075   1.798
12128WAT      O36625   8.265   2.409   0.535
12128WAT     H136626   8.174   2.394   0.574
12128WAT     H236627   8.258   2.472   0.458
12129WAT      O36628   2.601   3.274   1.804
12129WAT     H136629   2.524   3.240   1.857
12129WAT     H236630   2.575   3.358   1.757
12130WAT      O36631   6.014   2.416   2.421
12130WAT     H136632   6.033   2.399   2.324
12130WAT     H236633   6.092   2.386   2.476
12131WAT      O36634   4.736   4.605   9.111
12131WAT     H136635   4.688   4.525   9.074
12131WAT     H236636   4.783   4.653   9.037
12132WAT      O36637   7.526   8.839   0.506
12132WAT     H136638   7.507   8.936   0.492
12132WAT     H236639   7.498   8.788   0.424
12133WAT      O36640   4.707   7.456   6.404
12133WAT     H136641   4.742   7.494   6.319
12133WAT     H236642   4.736   7.361   6.413
12134WAT      O36643   6.954   4.631   8.213
12134WAT     H136644   6.971   4.716   8.263
12134WAT     H236645   6.941   4.652   8.116
12135WAT      O36646   2.933   2.347   9.783
12135WAT     H136647   2.880   2.300   9.712
12135WAT     H236648   3.025   2.366   9.750
12136WAT      O36649   1.018   8.272   7.668
12136WAT     H136650   1.069   8.186   7.671
12136WAT     H236651   0.950   8.273   7.741
12137WAT      O36652   6.901   5.606   6.592
12137WAT     H136653   6.935   5.631   6.502
12137WAT     H236654   6.973   5.619   6.660
12138WAT      O36655   0.414   5.972   3.684
12138WAT     H136656   0.333   5.925   3.718
12138WAT     H236657   0.391   6.021   3.599
12139WAT      O36658   2.977   3.910   6.152
12139WAT     H136659   2.947   3.950   6.239
12139WAT     H236660   2.908   3.845   6.120
12140WAT      O36661   8.260   1.096   8.100
12140WAT     H136662   8.222   1.020   8.152
12140WAT     H236663   8.205   1.111   8.017
12141WAT      O36664   5.366   7.521   0.229
12141WAT     H136665   5.439   7.454   0.215
12141WAT     H236666   5.355   7.538   0.327
12142WAT      O36667   6.201   3.012   5.551
12142WAT     H136668   6.250   3.052   5.629
12142WAT     H236669   6.130   2.950   5.585
12143WAT      O36670   9.543   0.132   7.560
12143WAT     H136671   9.566   0.213   7.615
12143WAT     H236672   9.488   0.159   7.481
12144WAT      O36673   5.339   4.697   4.353
12144WAT     H136674   5.300   4.673   4.264
12144WAT     H236675   5.268   4.741   4.409
12145WAT      O36676   1.797   1.662   3.159
12145WAT     H136677   1.746   1.606   3.094
12145WAT     H236678   1.773   1.758   3.146
12146WAT      O36679   8.258   2.498   3.373
12146WAT     H136680   8.333   2.564   3.373
12146WAT     H236681   8.243   2.465   3.280
12147WAT      O36682   2.179   7.225   3.801
12147WAT     H136683   2.272   7.257   3.821
12147WAT     H236684   2.175   7.190   3.707
12148WAT      O36685   1.033   3.331   4.789
12148WAT     H136686   0.968   3.404   4.811
12148WAT     H236687   0.982   3.246   4.772
12149WAT      O36688   5.293   4.004   6.809
12149WAT     H136689   5.383   4.045   6.826
12149WAT     H236690   5.298   3.949   6.726
12150WAT      O36691   7.113   8.201   6.655
12150WAT     H136692   7.093   8.152   6.571
12150WAT     H236693   7.212   8.202   6.670
12151WAT      O36694   9.127   8.227   9.199
12151WAT     H136695   9.101   8.152   9.259
12151WAT     H236696   9.217   8.209   9.160
12152WAT      O36697   3.781   7.036   1.696
12152WAT     H136698   3.700   6.993   1.735
12152WAT     H236699   3.792   7.007   1.601
12153WAT      O36700   9.872   3.147   3.432
12153WAT     H136701   9.786   3.136   3.482
12153WAT     H236702   9.921   3.060   3.431
12154WAT      O36703   4.458   1.549   0.554
12154WAT     H136704   4.402   1.612   0.500
12154WAT     H236705   4.401   1.474   0.588
12155WAT      O36706   7.864   4.842   1.553
12155WAT     H136707   7.765   4.855   1.559
12155WAT     H236708   7.891   4.835   1.457
12156WAT      O36709   2.734   4.579   1.649
12156WAT     H136710   2.738   4.559   1.746
12156WAT     H236711   2.783   4.663   1.629
12157WAT      O36712   1.966   2.238   0.963
12157WAT     H136713   1.986   2.154   1.015
12157WAT     H236714   2.046   2.263   0.908
12158WAT      O36715   8.653   5.800   8.108
12158WAT     H136716   8.607   5.719   8.145
12158WAT     H236717   8.729   5.825   8.168
12159WAT      O36718   0.919   2.141   4.088
12159WAT     H136719   0.835   2.108   4.130
12159WAT     H236720   0.975   2.187   4.156
12160WAT      O36721   8.032   4.211   5.544
12160WAT     H136722   7.936   4.204   5.518
12160WAT     H236723   8.041   4.265   5.628
12161WAT      O36724   0.543   2.810   4.991
12161WAT     H136725   0.578   2.748   4.921
12161WAT     H236726   0.520   2.758   5.073
12162WAT      O36727   7.125   4.850   5.245
12162WAT     H136728   7.055   4.917   5.270
12162WAT     H236729   7.142   4.854   5.146
12163WAT      O36730   3.694   0.562   1.842
12163WAT     H136731   3.746   0.501   1.783
12163WAT     H236732   3.610   0.590   1.795
12164WAT      O36733   8.015   5.273   8.417
12164WAT     H136734   7.941   5.339   8.429
12164WAT     H236735   8.084   5.287   8.488
12165WAT      O36736   3.420   4.338   8.932
12165WAT     H136737   3.404   4.240   8.950
12165WAT     H236738   3.383   4.392   9.007
12166WAT      O36739   3.321   5.270   7.106
12166WAT     H136740   3.271   5.201   7.158
12166WAT     H236741   3.415   5.241   7.094
12167WAT      O36742   4.638   0.615   6.702
12167WAT     H136743   4.732   0.629   6.671
12167WAT     H236744   4.584   0.697   6.682
12168WAT      O36745   2.226   2.715   8.131
12168WAT     H136746   2.189   2.753   8.216
12168WAT     H236747   2.317   2.754   8.115
12169WAT      O36748   7.436   6.098   6.111
12169WAT     H136749   7.432   6.003   6.083
12169WAT     H236750   7.367   6.150   6.061
12170WAT      O36751   5.606   8.086   3.466
12170WAT     H136752   5.556   8.045   3.543
12170WAT     H236753   5.696   8.044   3.459
12171WAT      O36754   7.206   8.112   7.489
12171WAT     H136755   7.287   8.150   7.533
12171WAT     H236756   7.134   8.182   7.487
12172WAT      O36757   8.473   2.021   5.236
12172WAT     H136758   8.494   1.952   5.305
12172WAT     H236759   8.382   2.002   5.198
12173WAT      O36760   3.674   1.007   3.326
12173WAT     H136761   3.703   0.925   3.278
12173WAT     H236762   3.651   0.985   3.421
12174WAT      O36763   1.556   3.025   8.528
12174WAT     H136764   1.612   3.008   8.448
12174WAT     H236765   1.551   3.124   8.545
12175WAT      O36766   4.324   4.524   7.848
12175WAT     H136767   4.349   4.504   7.942
12175WAT     H236768   4.315   4.439   7.797
12176WAT      O36769   7.448   0.694   0.341
12176WAT     H136770   7.423   0.688   0.438
12176WAT     H236771   7.412   0.615   0.292
12177WAT      O36772   3.690   7.058   3.097
12177WAT     H136773   3.680   7.109   3.183
12177WAT     H236774   3.775   7.086   3.051
12178WAT      O36775   4.489   4.550   3.548
12178WAT     H136776   4.426   4.594   3.611
12178WAT     H236777   4.564   4.508   3.600
12179WAT      O36778   6.141   3.954   1.627
12179WAT     H136779   6.070   3.983   1.690
12179WAT     H236780   6.231   3.978   1.664
12180WAT      O36781   8.234   2.099   2.194
12180WAT     H136782   8.185   2.025   2.147
12180WAT     H236783   8.215   2.094   2.292
12181WAT      O36784   0.398   3.786   8.818
12181WAT     H136785   0.314   3.737   8.842
12181WAT     H236786   0.462   3.779   8.894
12182WAT      O36787   8.950   4.752   5.226
12182WAT     H136788   8.996   4.778   5.142
12182WAT     H236789   8.911   4.833   5.270
12183WAT      O36790   2.885   8.583   8.051
12183WAT     H136791   2.913   8.502   8.104
12183WAT     H236792   2.844   8.650   8.112
12184WAT      O36793   6.826   9.268   8.208
12184WAT     H136794   6.901   9.334   8.195
12184WAT     H236795   6.848   9.184   8.159
12185WAT      O36796   0.407   5.024   5.879
12185WAT     H136797   0.336   4.958   5.904
12185WAT     H236798   0.490   5.005   5.932
12186WAT      O36799   5.420   4.838   3.700
12186WAT     H136800   5.395   4.752   3.744
12186WAT     H236801   5.454   4.820   3.608
12187WAT      O36802   3.088   7.134   6.859
12187WAT     H136803   3.173   7.181   6.838
12187WAT     H236804   3.093   7.039   6.829
12188WAT      O36805   1.859   8.044   4.959
12188WAT     H136806   1.843   8.036   5.058
12188WAT     H236807   1.859   7.952   4.919
12189WAT      O36808   8.624   7.604   7.796
12189WAT     H136809   8.526   7.587   7.804
12189WAT     H236810   8.657   7.651   7.877
12190WAT      O36811   5.803   1.318   9.472
12190WAT     H136812   5.877   1.384   9.476
12190WAT     H236813   5.726   1.357   9.420
12191WAT      O36814   3.072   5.043   2.303
12191WAT     H136815   3.165   5.022   2.333
12191WAT     H236816   3.066   5.036   2.204
12192WAT      O36817   8.931   3.926   6.980
12192WAT     H136818   9.023   3.917   6.942
12192WAT     H236819   8.874   3.980   6.917
12193WAT      O36820   3.296   9.227   8.854
12193WAT     H136821   3.215   9.211   8.798
12193WAT     H236822   3.292   9.171   8.937
12194WAT      O36823   5.585   0.352   1.991
12194WAT     H136824   5.526   0.374   2.070
12194WAT     H236825   5.530   0.307   1.921
12195WAT      O36826   7.168   9.667   6.737
12195WAT     H136827   7.257   9.668   6.691
12195WAT     H236828   7.135   9.573   6.744
12196WAT      O36829   2.420   9.585   2.438
12196WAT     H136830   2.491   9.567   2.370
12196WAT     H236831   2.336   9.615   2.393
12197WAT      O36832   0.332   6.484   6.823
12197WAT     H136833   0.297   6.572   6.789
12197WAT     H236834   0.262   6.414   6.813
12198WAT      O36835   4.684   5.943   3.169
12198WAT     H136836   4.665   6.020   3.230
12198WAT     H236837   4.598   5.908   3.131
12199WAT      O36838   2.282   8.264   8.308
12199WAT     H136839   2.255   8.302   8.397
12199WAT     H236840   2.271   8.334   8.237
12200WAT      O36841   0.447   1.095   7.956
12200WAT     H136842   0.504   1.103   8.037
12200WAT     H236843   0.501   1.059   7.880
12201WAT      O36844   8.119   2.717   2.765
12201WAT     H136845   8.032   2.763   2.748
12201WAT     H236846   8.103   2.621   2.787
12202WAT      O36847   8.267   6.766   6.385
12202WAT     H136848   8.289   6.844   6.326
12202WAT     H236849   8.202   6.707   6.338
12203WAT      O36850   4.173   6.654   1.385
12203WAT     H136851   4.146   6.573   1.332
12203WAT     H236852   4.133   6.648   1.476
12204WAT      O36853   3.464   0.152   9.004
12204WAT     H136854   3.513   0.092   9.067
12204WAT     H236855   3.375   0.112   8.983
12205WAT      O36856   6.368   1.278   4.007
12205WAT     H136857   6.328   1.285   3.916
12205WAT     H236858   6.457   1.324   4.007
12206WAT      O36859   5.802   7.879   8.917
12206WAT     H136860   5.803   7.979   8.926
12206WAT     H236861   5.806   7.854   8.820
12207WAT      O36862   6.895   7.301   0.234
12207WAT     H136863   6.810   7.248   0.225
12207WAT     H236864   6.943   7.302   0.146
12208WAT      O36865   1.727   4.787   4.553
12208WAT     H136866   1.780   4.852   4.498
12208WAT     H236867   1.788   4.741   4.618
12209WAT      O36868   5.357   5.167   7.201
12209WAT     H136869   5.311   5.131   7.283
12209WAT     H236870   5.363   5.266   7.208
12210WAT      O36871   1.900   7.737   8.457
12210WAT     H136872   1.953   7.743   8.372
12210WAT     H236873   1.803   7.730   8.434
12211WAT      O36874   4.447   8.601   5.227
12211WAT     H136875   4.388   8.586   5.148
12211WAT     H236876   4.484   8.513   5.258
12212WAT      O36877   1.857   2.845   9.526
12212WAT     H136878   1.805   2.759   9.529
12212WAT     H236879   1.946   2.829   9.484
12213WAT      O36880   4.832   1.056   0.083
12213WAT     H136881   4.813   1.135   0.025
12213WAT     H236882   4.918   1.069   0.132
12214WAT      O36883   1.397   9.215   4.239
12214WAT     H136884   1.427   9.309   4.255
12214WAT     H236885   1.476   9.158   4.213
12215WAT      O36886   7.961   4.061   4.944
12215WAT     H136887   7.997   4.025   5.030
12215WAT     H236888   7.875   4.016   4.922
12216WAT      O36889   3.218   3.058   3.566
12216WAT     H136890   3.157   3.011   3.502
12216WAT     H236891   3.221   3.155   3.545
12217WAT      O36892   6.663   6.097   9.296
12217WAT     H136893   6.640   6.062   9.205
12217WAT     H236894   6.752   6.141   9.294
12218WAT      O36895   7.036   2.396   9.302
12218WAT     H136896   7.080   2.307   9.311
12218WAT     H236897   6.972   2.394   9.225
12219WAT      O36898   9.297   6.718   8.979
12219WAT     H136899   9.234   6.648   9.012
12219WAT     H236900   9.387   6.677   8.965
12220WAT      O36901   1.196   8.140   9.513
12220WAT     H136902   1.199   8.050   9.556
12220WAT     H236903   1.287   8.163   9.478
12221WAT      O36904   7.596   5.105   0.557
12221WAT     H136905   7.509   5.060   0.577
12221WAT     H236906   7.641   5.131   0.642
12222WAT      O36907   2.473   8.748   0.026
12222WAT     H136908   2.429   8.674  -0.025
12222WAT     H236909   2.461   8.834  -0.022
12223WAT      O36910   8.433   3.540   3.974
12223WAT     H136911   8.359   3.487   4.016
12223WAT     H236912   8.458   3.498   3.886
12224WAT      O36913   6.983   7.323   2.815
12224WAT     H136914   6.906   7.262   2.792
12224WAT     H236915   7.051   7.319   2.742
12225WAT      O36916   2.688   4.762   2.263
12225WAT     H136917   2.716   4.740   2.356
12225WAT     H236918   2.770   4.776   2.206
12226WAT      O36919   2.122   5.751   6.835
12226WAT     H136920   2.123   5.711   6.927
12226WAT     H236921   2.035   5.728   6.790
12227WAT      O36922   9.850   4.030   5.755
12227WAT     H136923   9.928   4.075   5.799
12227WAT     H236924   9.778   4.097   5.738
12228WAT      O36925   3.211   1.973   1.303
12228WAT     H136926   3.291   1.985   1.361
12228WAT     H236927   3.140   2.037   1.330
12229WAT      O36928   9.593   6.315   7.162
12229WAT     H136929   9.536   6.235   7.144
12229WAT     H236930   9.664   6.322   7.091
12230WAT      O36931   2.557   2.756   0.756
12230WAT     H136932   2.501   2.832   0.790
12230WAT     H236933   2.583   2.773   0.661
12231WAT      O36934   9.272   6.931   2.340
12231WAT     H136935   9.306   6.859   2.279
12231WAT     H236936   9.285   6.903   2.435
12232WAT      O36937   1.969   8.696   4.478
12232WAT     H136938   2.067   8.712   4.466
12232WAT     H236939   1.933   8.648   4.398
12233WAT      O36940   5.321   3.679   1.089
12233WAT     H136941   5.250   3.611   1.072
12233WAT     H236942   5.316   3.750   1.018
12234WAT      O36943   7.325   5.155   4.340
12234WAT     H136944   7.335   5.230   4.405
12234WAT     H236945   7.281   5.189   4.257
12235WAT      O36946   0.401   8.711   5.572
12235WAT     H136947   0.328   8.650   5.602
12235WAT     H236948   0.481   8.699   5.630
12236WAT      O36949   5.762   8.992   2.524
12236WAT     H136950   5.722   8.987   2.616
12236WAT     H236951   5.768   9.087   2.495
12237WAT      O36952   0.746   9.645   1.477
12237WAT     H136953   0.747   9.582   1.555
12237WAT     H236954   0.806   9.610   1.405
12238WAT      O36955   4.728   9.635   8.231
12238WAT     H136956   4.635   9.646   8.268
12238WAT     H236957   4.738   9.544   8.192
12239WAT      O36958   5.274   2.270   9.403
12239WAT     H136959   5.294   2.273   9.501
12239WAT     H236960   5.197   2.208   9.388
12240WAT      O36961   2.442   1.535   4.717
12240WAT     H136962   2.358   1.573   4.678
12240WAT     H236963   2.427   1.439   4.740
12241WAT      O36964   3.478   0.705   7.663
12241WAT     H136965   3.412   0.778   7.649
12241WAT     H236966   3.433   0.627   7.708
12242WAT      O36967   6.388   5.211   5.729
12242WAT     H136968   6.361   5.139   5.664
12242WAT     H236969   6.348   5.191   5.818
12243WAT      O36970   2.322   0.962   7.171
12243WAT     H136971   2.305   0.976   7.269
12243WAT     H236972   2.420   0.968   7.153
12244WAT      O36973   4.732   8.351   4.162
12244WAT     H136974   4.745   8.274   4.224
12244WAT     H236975   4.634   8.367   4.149
12245WAT      O36976   3.306   4.963   2.750
12245WAT     H136977   3.214   4.991   2.723
12245WAT     H236978   3.321   4.986   2.846
12246WAT      O36979   5.828   2.565   5.188
12246WAT     H136980   5.895   2.633   5.158
12246WAT     H236981   5.744   2.611   5.216
12247WAT      O36982   3.023   1.611   2.990
12247WAT     H136983   3.074   1.525   2.977
12247WAT     H236984   2.969   1.605   3.074
12248WAT      O36985   5.035   1.980   7.870
12248WAT     H136986   5.085   2.052   7.919
12248WAT     H236987   4.945   1.968   7.912
12249WAT      O36988   7.394   9.036   9.866
12249WAT     H136989   7.449   8.983   9.801
12249WAT     H236990   7.302   8.998   9.872
12250WAT      O36991   2.348   2.672   6.861
12250WAT     H136992   2.279   2.622   6.808
12250WAT     H236993   2.389   2.610   6.928
12251WAT      O36994   5.431   8.090   2.402
12251WAT     H136995   5.365   8.079   2.476
12251WAT     H236996   5.449   8.001   2.360
12252WAT      O36997   8.675   5.564   1.675
12252WAT     H136998   8.727   5.498   1.622
12252WAT     H236999   8.584   5.574   1.635
12253WAT      O37000   2.962   6.062   7.065
12253WAT     H137001   3.024   6.100   6.996
12253WAT     H237002   2.883   6.122   7.075
12254WAT      O37003   2.024   5.977   6.186
12254WAT     H137004   2.101   6.036   6.164
12254WAT     H237005   2.053   5.905   6.249
12255WAT      O37006   5.777   8.640   3.290
12255WAT     H137007   5.708   8.711   3.286
12255WAT     H237008   5.812   8.621   3.198
12256WAT      O37009   7.619   5.652   8.246
12256WAT     H137010   7.671   5.646   8.161
12256WAT     H237011   7.670   5.709   8.311
12257WAT      O37012   9.746   0.728   4.840
12257WAT     H137013   9.798   0.804   4.800
12257WAT     H237014   9.649   0.750   4.837
12258WAT      O37015   6.053   8.031   6.830
12258WAT     H137016   5.999   8.063   6.752
12258WAT     H237017   6.088   7.939   6.810
12259WAT      O37018   8.864   6.159   9.742
12259WAT     H137019   8.880   6.085   9.676
12259WAT     H237020   8.849   6.245   9.694
12260WAT      O37021   0.196   3.726   3.093
12260WAT     H137022   0.223   3.649   3.152
12260WAT     H237023   0.229   3.811   3.133
12261WAT      O37024   4.720   7.663   9.261
12261WAT     H137025   4.771   7.639   9.344
12261WAT     H237026   4.660   7.741   9.281
12262WAT      O37027   6.711   1.793   0.415
12262WAT     H137028   6.701   1.790   0.315
12262WAT     H237029   6.652   1.864   0.452
12263WAT      O37030   9.254   4.294   2.083
12263WAT     H137031   9.255   4.305   1.984
12263WAT     H237032   9.185   4.226   2.108
12264WAT      O37033   9.676   1.709   4.696
12264WAT     H137034   9.611   1.634   4.702
12264WAT     H237035   9.648   1.773   4.624
12265WAT      O37036   8.127   0.790   9.604
12265WAT     H137037   8.140   0.739   9.518
12265WAT     H237038   8.105   0.885   9.583
12266WAT      O37039   9.164   9.389   9.649
12266WAT     H137040   9.149   9.488   9.644
12266WAT     H237041   9.246   9.370   9.702
12267WAT      O37042   0.451   4.867   8.150
12267WAT     H137043   0.413   4.899   8.237
12267WAT     H237044   0.460   4.943   8.087
12268WAT      O37045   7.175   1.248   6.157
12268WAT     H137046   7.156   1.337   6.116
12268WAT     H237047   7.250   1.256   6.222
12269WAT      O37048   3.113   5.007   3.047
12269WAT     H137049   3.109   5.066   2.966
12269WAT     H237050   3.119   5.064   3.129
12270WAT      O37051   4.800   6.954   3.036
12270WAT     H137052   4.782   7.026   2.969
12270WAT     H237053   4.892   6.917   3.020
12271WAT      O37054   7.810   2.593   0.262
12271WAT     H137055   7.800   2.635   0.352
12271WAT     H237056   7.895   2.542   0.258
12272WAT      O37057   5.178   3.520   9.643
12272WAT     H137058   5.213   3.427   9.657
12272WAT     H237059   5.253   3.585   9.653
12273WAT      O37060   1.566   4.399   8.650
12273WAT     H137061   1.476   4.366   8.680
12273WAT     H237062   1.581   4.492   8.685
12274WAT      O37063   5.160   7.652   5.291
12274WAT     H137064   5.209   7.576   5.247
12274WAT     H237065   5.198   7.739   5.259
12275WAT      O37066   0.363   9.251   8.726
12275WAT     H137067   0.458   9.260   8.758
12275WAT     H237068   0.349   9.314   8.649
12276WAT      O37069   0.799   8.719   4.398
12276WAT     H137070   0.842   8.638   4.437
12276WAT     H237071   0.785   8.788   4.469
12277WAT      O37072   3.301   1.377   3.284
12277WAT     H137073   3.372   1.372   3.355
12277WAT     H237074   3.337   1.339   3.198
12278WAT      O37075   9.657   7.766   5.547
12278WAT     H137076   9.613   7.677   5.550
12278WAT     H237077   9.603   7.832   5.598
12279WAT      O37078   3.822   5.419   0.566
12279WAT     H137079   3.733   5.407   0.609
12279WAT     H237080   3.834   5.514   0.538
12280WAT      O37081   3.602   1.194   2.146
12280WAT     H137082   3.692   1.177   2.106
12280WAT     H237083   3.548   1.110   2.143
12281WAT      O37084   4.924   5.258   7.081
12281WAT     H137085   4.983   5.306   7.146
12281WAT     H237086   4.828   5.269   7.109
12282WAT      O37087   9.360   8.947   9.456
12282WAT     H137088   9.308   8.863   9.469
12282WAT     H237089   9.339   9.011   9.531
12283WAT      O37090   3.397   3.196   8.466
12283WAT     H137091   3.455   3.183   8.386
12283WAT     H237092   3.452   3.231   8.542
12284WAT      O37093   3.949   7.449   3.511
12284WAT     H137094   3.994   7.515   3.571
12284WAT     H237095   3.928   7.366   3.563
12285WAT      O37096   7.233   9.160   9.226
12285WAT     H137097   7.170   9.105   9.171
12285WAT     H237098   7.236   9.124   9.320
12286WAT      O37099   1.955   9.163   2.833
12286WAT     H137100   1.985   9.202   2.746
12286WAT     H237101   1.861   9.131   2.824
12287WAT      O37102   4.792   3.891   9.782
12287WAT     H137103   4.809   3.986   9.755
12287WAT     H237104   4.832   3.830   9.713
12288WAT      O37105   9.007   6.855   0.934
12288WAT     H137106   8.925   6.816   0.891
12288WAT     H237107   9.003   6.955   0.929
12289WAT      O37108   2.675   3.989   6.779
12289WAT     H137109   2.713   3.897   6.766
12289WAT     H237110   2.749   4.055   6.781
12290WAT      O37111   0.507   6.820   0.613
12290WAT     H137112   0.560   6.789   0.692
12290WAT     H237113   0.500   6.746   0.546
12291WAT      O37114   0.662   5.899   3.371
12291WAT     H137115   0.760   5.885   3.382
12291WAT     H237116   0.612   5.838   3.433
12292WAT      O37117   5.986   8.720   3.487
12292WAT     H137118   5.911   8.686   3.430
12292WAT     H237119   6.029   8.643   3.534
12293WAT      O37120   8.512   9.822   0.858
12293WAT     H137121   8.488   9.754   0.927
12293WAT     H237122   8.428   9.866   0.825
12294WAT      O37123   3.233   6.343   4.210
12294WAT     H137124   3.321   6.371   4.172
12294WAT     H237125   3.196   6.417   4.267
12295WAT      O37126   3.813   0.331   5.927
12295WAT     H137127   3.889   0.367   5.981
12295WAT     H237128   3.803   0.384   5.843
12296WAT      O37129   6.987   4.751   0.723
12296WAT     H137130   7.070   4.742   0.778
12296WAT     H237131   6.924   4.814   0.769
12297WAT      O37132   8.909   5.686   5.400
12297WAT     H137133   8.839   5.648   5.339
12297WAT     H237134   8.872   5.692   5.493
12298WAT      O37135   7.762   4.119   9.401
12298WAT     H137136   7.834   4.188   9.399
12298WAT     H237137   7.797   4.035   9.443
12299WAT      O37138   9.000   3.885   5.847
12299WAT     H137139   8.937   3.962   5.853
12299WAT     H237140   8.986   3.824   5.925
12300WAT      O37141   4.941   9.814   9.307
12300WAT     H137142   4.877   9.751   9.352
12300WAT     H237143   5.035   9.786   9.326
12301WAT      O37144   3.112   4.821   6.509
12301WAT     H137145   3.211   4.820   6.519
12301WAT     H237146   3.074   4.733   6.540
12302WAT      O37147   9.630   0.785   0.380
12302WAT     H137148   9.550   0.788   0.320
12302WAT     H237149   9.601   0.795   0.475
12303WAT      O37150   4.344   1.449   2.221
12303WAT     H137151   4.377   1.418   2.310
12303WAT     H237152   4.292   1.534   2.233
12304WAT      O37153   5.884   6.006   8.601
12304WAT     H137154   5.881   5.980   8.698
12304WAT     H237155   5.975   5.984   8.564
12305WAT      O37156   8.085   2.027   1.804
12305WAT     H137157   8.179   2.055   1.826
12305WAT     H237158   8.030   2.109   1.785
12306WAT      O37159   0.467   3.042   6.330
12306WAT     H137160   0.373   3.075   6.315
12306WAT     H237161   0.526   3.074   6.256
12307WAT      O37162   7.072   6.754   5.370
12307WAT     H137163   7.006   6.690   5.332
12307WAT     H237164   7.095   6.823   5.301
12308WAT      O37165   0.228   3.645   3.828
12308WAT     H137166   0.309   3.591   3.807
12308WAT     H237167   0.238   3.737   3.789
12309WAT      O37168   2.568   4.790   9.158
12309WAT     H137169   2.513   4.709   9.178
12309WAT     H237170   2.622   4.774   9.076
12310WAT      O37171   6.391   7.228   7.215
12310WAT     H137172   6.408   7.326   7.213
12310WAT     H237173   6.477   7.179   7.225
12311WAT      O37174   2.997   5.205   8.707
12311WAT     H137175   3.075   5.183   8.765
12311WAT     H237176   2.925   5.246   8.762
12312WAT      O37177   4.105   9.102   3.398
12312WAT     H137178   4.136   9.008   3.413
12312WAT     H237179   4.053   9.134   3.477
12313WAT      O37180   1.725   5.516   5.403
12313WAT     H137181   1.752   5.539   5.310
12313WAT     H237182   1.748   5.421   5.423
12314WAT      O37183   7.629   4.112   5.022
12314WAT     H137184   7.539   4.149   4.998
12314WAT     H237185   7.681   4.179   5.074
12315WAT      O37186   1.092   3.373   8.264
12315WAT     H137187   1.140   3.460   8.253
12315WAT     H237188   1.006   3.389   8.313
12316WAT      O37189   4.587   3.227   0.841
12316WAT     H137190   4.551   3.141   0.879
12316WAT     H237191   4.612   3.288   0.916
12317WAT      O37192   4.222   9.654   4.485
12317WAT     H137193   4.162   9.585   4.444
12317WAT     H237194   4.255   9.620   4.574
12318WAT      O37195   6.784   3.727   6.509
12318WAT     H137196   6.742   3.659   6.449
12318WAT     H237197   6.847   3.784   6.457
12319WAT      O37198   5.042   4.485   4.438
12319WAT     H137199   5.089   4.404   4.401
12319WAT     H237200   4.971   4.456   4.502
12320WAT      O37201   2.328   2.037   5.401
12320WAT     H137202   2.378   1.957   5.367
12320WAT     H237203   2.390   2.115   5.406
12321WAT      O37204   6.966   7.901   3.710
12321WAT     H137205   6.955   7.858   3.800
12321WAT     H237206   6.876   7.923   3.672
12322WAT      O37207   0.013   9.749   3.393
12322WAT     H137208   0.031   9.827   3.453
12322WAT     H237209   0.096   9.695   3.381
12323WAT      O37210   5.808   2.457   3.517
12323WAT     H137211   5.903   2.472   3.489
12323WAT     H237212   5.763   2.397   3.451
12324WAT      O37213   9.476   1.915   8.689
12324WAT     H137214   9.507   1.838   8.633
12324WAT     H237215   9.383   1.940   8.661
12325WAT      O37216   0.188   5.121   7.443
12325WAT     H137217   0.185   5.035   7.394
12325WAT     H237218   0.283   5.152   7.451
12326WAT      O37219   3.508   8.144   8.958
12326WAT     H137220   3.446   8.198   9.014
12326WAT     H237221   3.461   8.062   8.925
12327WAT      O37222   0.982   8.246   9.820
12327WAT     H137223   1.000   8.316   9.751
12327WAT     H237224   0.945   8.164   9.776
12328WAT      O37225   0.887   7.500   8.187
12328WAT     H137226   0.958   7.474   8.121
12328WAT     H237227   0.928   7.547   8.265
12329WAT      O37228   6.250   9.723   0.625
12329WAT     H137229   6.187   9.775   0.683
12329WAT     H237230   6.342   9.728   0.664
12330WAT      O37231   4.908   9.821   6.314
12330WAT     H137232   4.816   9.809   6.352
12330WAT     H237233   4.904   9.880   6.234
12331WAT      O37234   3.499   7.631   4.797
12331WAT     H137235   3.528   7.615   4.703
12331WAT     H237236   3.467   7.546   4.837
12332WAT      O37237   8.437   0.790   7.453
12332WAT     H137238   8.359   0.846   7.425
12332WAT     H237239   8.483   0.833   7.530
12333WAT      O37240   7.056   8.301   9.095
12333WAT     H137241   7.085   8.305   9.190
12333WAT     H237242   7.071   8.209   9.059
12334WAT      O37243   1.618   1.726   6.721
12334WAT     H137244   1.664   1.765   6.641
12334WAT     H237245   1.632   1.627   6.722
12335WAT      O37246   9.413   2.611   8.250
12335WAT     H137247   9.488   2.604   8.315
12335WAT     H237248   9.326   2.617   8.299
12336WAT      O37249   0.450   4.347   3.542
12336WAT     H137250   0.475   4.412   3.614
12336WAT     H237251   0.454   4.393   3.453
12337WAT      O37252   2.277   4.691   1.604
12337WAT     H137253   2.351   4.687   1.536
12337WAT     H237254   2.195   4.648   1.566
12338WAT      O37255   0.040   6.141   2.127
12338WAT     H137256   0.025   6.228   2.080
12338WAT     H237257   0.007   6.066   2.069
12339WAT      O37258   3.908   6.002   6.733
12339WAT     H137259   3.932   6.083   6.785
12339WAT     H237260   3.857   5.939   6.791
12340WAT      O37261   0.322   5.232   6.212
12340WAT     H137262   0.299   5.135   6.207
12340WAT     H237263   0.318   5.262   6.307
12341WAT      O37264   2.656   5.872   0.125
12341WAT     H137265   2.593   5.848   0.052
12341WAT     H237266   2.716   5.946   0.095
12342WAT      O37267   6.899   4.744   9.628
12342WAT     H137268   6.882   4.822   9.689
12342WAT     H237269   6.957   4.678   9.676
12343WAT      O37270   8.683   9.815   4.821
12343WAT     H137271   8.666   9.719   4.800
12343WAT     H237272   8.693   9.827   4.919
12344WAT      O37273   0.156   3.020   8.455
12344WAT     H137274   0.071   3.065   8.428
12344WAT     H237275   0.189   2.963   8.380
12345WAT      O37276   3.233   0.079   7.314
12345WAT     H137277   3.270   0.169   7.294
12345WAT     H237278   3.294   0.009   7.277
12346WAT      O37279   3.918   7.024   2.456
12346WAT     H137280   3.997   7.083   2.438
12346WAT     H237281   3.834   7.078   2.454
12347WAT      O37282   1.592   9.264   7.047
12347WAT     H137283   1.582   9.306   6.957
12347WAT     H237284   1.620   9.168   7.037
12348WAT      O37285   2.820   8.153   7.989
12348WAT     H137286   2.727   8.179   8.018
12348WAT     H237287   2.835   8.056   8.009
12349WAT      O37288   2.786   9.666   0.653
12349WAT     H137289   2.740   9.685   0.567
12349WAT     H237290   2.751   9.580   0.691
12350WAT      O37291   2.905   5.627   6.083
12350WAT     H137292   2.899   5.619   5.984
12350WAT     H237293   2.994   5.666   6.108
12351WAT      O37294   4.168   6.310   3.205
12351WAT     H137295   4.148   6.229   3.150
12351WAT     H237296   4.216   6.378   3.149
12352WAT      O37297   5.313   7.599   2.427
12352WAT     H137298   5.336   7.504   2.450
12352WAT     H237299   5.269   7.602   2.337
12353WAT      O37300   8.145   0.867   9.122
12353WAT     H137301   8.228   0.893   9.073
12353WAT     H237302   8.169   0.824   9.209
12354WAT      O37303   5.768   8.649   6.480
12354WAT     H137304   5.842   8.676   6.541
12354WAT     H237305   5.772   8.704   6.396
12355WAT      O37306   4.706   2.408   8.835
12355WAT     H137307   4.682   2.479   8.901
12355WAT     H237308   4.623   2.360   8.807
12356WAT      O37309   8.942   0.709   2.423
12356WAT     H137310   8.856   0.751   2.450
12356WAT     H237311   8.937   0.610   2.437
12357WAT      O37312   8.928   9.249   9.317
12357WAT     H137313   8.880   9.311   9.255
12357WAT     H237314   9.025   9.273   9.319
12358WAT      O37315   7.384   6.187   9.797
12358WAT     H137316   7.482   6.203   9.804
12358WAT     H237317   7.366   6.088   9.800
12359WAT      O37318   4.853   9.169   1.490
12359WAT     H137319   4.888   9.261   1.473
12359WAT     H237320   4.770   9.175   1.546
12360WAT      O37321   2.783   4.676   1.041
12360WAT     H137322   2.818   4.592   1.001
12360WAT     H237323   2.844   4.752   1.019
12361WAT      O37324   0.535   0.454   2.606
12361WAT     H137325   0.467   0.488   2.670
12361WAT     H237326   0.555   0.525   2.538
12362WAT      O37327   5.693   1.540   5.506
12362WAT     H137328   5.768   1.483   5.541
12362WAT     H237329   5.731   1.610   5.445
12363WAT      O37330   7.091   0.916   9.661
12363WAT     H137331   7.145   0.833   9.674
12363WAT     H237332   7.017   0.919   9.728
12364WAT      O37333   5.483   1.622   3.144
12364WAT     H137334   5.421   1.554   3.184
12364WAT     H237335   5.545   1.577   3.080
12365WAT      O37336   9.225   4.161   9.779
12365WAT     H137337   9.281   4.244   9.767
12365WAT     H237338   9.267   4.104   9.850
12366WAT      O37339   3.709   5.265   3.586
12366WAT     H137340   3.652   5.235   3.662
12366WAT     H237341   3.786   5.318   3.621
12367WAT      O37342   4.718   9.389   1.869
12367WAT     H137343   4.635   9.415   1.919
12367WAT     H237344   4.750   9.468   1.816
12368WAT      O37345   7.225   2.013   1.480
12368WAT     H137346   7.321   1.984   1.488
12368WAT     H237347   7.215   2.077   1.404
12369WAT      O37348   0.228   7.330   4.031
12369WAT     H137349   0.135   7.365   4.037
12369WAT     H237350   0.276   7.346   4.117
12370WAT      O37351   3.614   4.797   8.546
12370WAT     H137352   3.695   4.834   8.500
12370WAT     H237353   3.630   4.798   8.645
12371WAT      O37354   5.188   6.853   2.369
12371WAT     H137355   5.176   6.816   2.461
12371WAT     H237356   5.258   6.925   2.371
12372WAT      O37357   4.485   4.228   2.389
12372WAT     H137358   4.508   4.309   2.443
12372WAT     H237359   4.535   4.232   2.302
12373WAT      O37360   2.892   8.112   7.042
12373WAT     H137361   2.803   8.090   7.084
12373WAT     H237362   2.959   8.129   7.114
12374WAT      O37363   6.095   4.050   2.834
12374WAT     H137364   6.077   4.141   2.797
12374WAT     H237365   6.186   4.048   2.875
12375WAT      O37366   6.675   9.439   8.786
12375WAT     H137367   6.719   9.349   8.777
12375WAT     H237368   6.696   9.494   8.705
12376WAT      O37369   3.088   2.690   8.015
12376WAT     H137370   3.019   2.761   8.027
12376WAT     H237371   3.070   2.615   8.078
12377WAT      O37372   6.020   7.360   0.032
12377WAT     H137373   6.109   7.325   0.002
12377WAT     H237374   6.010   7.456   0.003
12378WAT      O37375   3.997   7.743   3.912
12378WAT     H137376   4.005   7.689   3.995
12378WAT     H237377   3.959   7.833   3.934
12379WAT      O37378   9.358   0.999   3.923
12379WAT     H137379   9.365   0.903   3.896
12379WAT     H237380   9.265   1.018   3.955
12380WAT      O37381   9.364   1.698   9.608
12380WAT     H137382   9.267   1.692   9.628
12380WAT     H237383   9.383   1.781   9.556
12381WAT      O37384   9.766   4.098   9.581
12381WAT     H137385   9.696   4.145   9.527
12381WAT     H237386   9.844   4.159   9.593
12382WAT      O37387   3.628   4.814   9.617
12382WAT     H137388   3.684   4.897   9.613
12382WAT     H237389   3.564   4.822   9.693
12383WAT      O37390   4.009   3.370   5.330
12383WAT     H137391   3.991   3.457   5.283
12383WAT     H237392   4.048   3.305   5.265
12384WAT      O37393   8.015   1.171   8.327
12384WAT     H137394   7.958   1.164   8.409
12384WAT     H237395   8.064   1.258   8.328
12385WAT      O37396   3.065   8.963   0.831
12385WAT     H137397   2.988   9.010   0.874
12385WAT     H237398   3.031   8.897   0.765
12386WAT      O37399   5.839   2.181   1.987
12386WAT     H137400   5.923   2.154   2.034
12386WAT     H237401   5.802   2.263   2.029
12387WAT      O37402   7.471   3.266   0.097
12387WAT     H137403   7.378   3.288   0.068
12387WAT     H237404   7.534   3.335   0.062
12388WAT      O37405   6.808   3.987   5.850
12388WAT     H137406   6.801   4.056   5.778
12388WAT     H237407   6.816   3.896   5.808
12389WAT      O37408   2.442   8.058   3.163
12389WAT     H137409   2.476   8.029   3.252
12389WAT     H237410   2.520   8.081   3.104
12390WAT      O37411   1.638   9.662   6.902
12390WAT     H137412   1.600   9.754   6.892
12390WAT     H237413   1.564   9.594   6.899
12391WAT      O37414   2.083   7.831   7.262
12391WAT     H137415   2.084   7.735   7.289
12391WAT     H237416   2.165   7.877   7.297
12392WAT      O37417   5.687   6.754   7.739
12392WAT     H137418   5.785   6.769   7.725
12392WAT     H237419   5.670   6.724   7.832
12393WAT      O37420   8.140   7.766   5.806
12393WAT     H137421   8.228   7.777   5.761
12393WAT     H237422   8.155   7.728   5.898
12394WAT      O37423   1.584   1.731   4.637
12394WAT     H137424   1.545   1.722   4.728
12394WAT     H237425   1.518   1.701   4.569
12395WAT      O37426   8.391   0.222   2.857
12395WAT     H137427   8.422   0.129   2.876
12395WAT     H237428   8.291   0.225   2.859
12396WAT      O37429   2.203   3.338   0.607
12396WAT     H137430   2.138   3.349   0.682
12396WAT     H237431   2.155   3.347   0.520
12397WAT      O37432   5.369   9.221   0.396
12397WAT     H137433   5.464   9.252   0.396
12397WAT     H237434   5.309   9.300   0.406
12398WAT      O37435   1.113   7.612   5.279
12398WAT     H137436   1.186   7.579   5.219
12398WAT     H237437   1.044   7.539   5.290
12399WAT      O37438   1.640   8.562   4.000
12399WAT     H137439   1.671   8.635   4.060
12399WAT     H237440   1.542   8.573   3.983
12400WAT      O37441   1.431   6.390   1.413
12400WAT     H137442   1.341   6.434   1.404
12400WAT     H237443   1.427   6.299   1.371
12401WAT      O37444   4.467   8.639   4.569
12401WAT     H137445   4.456   8.584   4.485
12401WAT     H237446   4.376   8.663   4.605
12402WAT      O37447   8.647   0.794   6.636
12402WAT     H137448   8.608   0.755   6.719
12402WAT     H237449   8.643   0.894   6.640
12403WAT      O37450   3.529   1.999   9.665
12403WAT     H137451   3.585   2.002   9.748
12403WAT     H237452   3.581   2.038   9.589
12404WAT      O37453   5.124   1.230   8.962
12404WAT     H137454   5.121   1.158   8.893
12404WAT     H237455   5.214   1.229   9.007
12405WAT      O37456   6.852   1.930   8.904
12405WAT     H137457   6.910   1.896   8.830
12405WAT     H237458   6.766   1.965   8.866
12406WAT      O37459   6.281   1.404   8.308
12406WAT     H137460   6.287   1.304   8.309
12406WAT     H237461   6.196   1.432   8.263
12407WAT      O37462   3.891   1.518   8.977
12407WAT     H137463   3.843   1.596   9.017
12407WAT     H237464   3.830   1.439   8.975
12408WAT      O37465   7.739   0.762   0.386
12408WAT     H137466   7.771   0.850   0.350
12408WAT     H237467   7.647   0.744   0.352
12409WAT      O37468   5.673   6.296   5.197
12409WAT     H137469   5.738   6.248   5.138
12409WAT     H237470   5.711   6.306   5.288
12410WAT      O37471   1.002   7.904   9.322
12410WAT     H137472   1.080   7.881   9.380
12410WAT     H237473   0.960   7.989   9.354
12411WAT      O37474   8.807   3.827   0.624
12411WAT     H137475   8.815   3.752   0.557
12411WAT     H237476   8.765   3.793   0.708
12412WAT      O37477   2.406   4.664   3.622
12412WAT     H137478   2.404   4.675   3.523
12412WAT     H237479   2.322   4.703   3.661
12413WAT      O37480   6.288   2.736   5.504
12413WAT     H137481   6.384   2.730   5.533
12413WAT     H237482   6.258   2.831   5.506
12414WAT      O37483   2.938   1.971   0.774
12414WAT     H137484   2.919   1.983   0.676
12414WAT     H237485   3.029   1.933   0.786
12415WAT      O37486   1.799   0.566   7.282
12415WAT     H137487   1.746   0.485   7.255
12415WAT     H237488   1.745   0.648   7.265
12416WAT      O37489   1.322   8.011   8.398
12416WAT     H137490   1.373   8.068   8.463
12416WAT     H237491   1.238   7.978   8.442
12417WAT      O37492   8.094   1.425   9.016
12417WAT     H137493   8.121   1.395   9.107
12417WAT     H237494   8.160   1.493   8.982
12418WAT      O37495   8.641   6.824   5.502
12418WAT     H137496   8.728   6.815   5.551
12418WAT     H237497   8.587   6.741   5.515
12419WAT      O37498   9.028   8.066   4.465
12419WAT     H137499   9.076   8.139   4.514
12419WAT     H237500   9.082   7.982   4.471
12420WAT      O37501   9.061   3.710   4.976
12420WAT     H137502   9.139   3.665   4.933
12420WAT     H237503   8.998   3.742   4.905
12421WAT      O37504   9.777   6.395   1.889
12421WAT     H137505   9.875   6.401   1.906
12421WAT     H237506   9.748   6.475   1.835
12422WAT      O37507   7.711   1.750   0.257
12422WAT     H137508   7.652   1.683   0.302
12422WAT     H237509   7.795   1.761   0.309
12423WAT      O37510   3.469   0.068   7.982
12423WAT     H137511   3.476  -0.022   8.026
12423WAT     H237512   3.384   0.072   7.930
12424WAT      O37513   0.781   5.075   7.914
12424WAT     H137514   0.789   5.002   7.982
12424WAT     H237515   0.733   5.153   7.955
12425WAT      O37516   9.823   1.021   8.843
12425WAT     H137517   9.733   1.059   8.862
12425WAT     H237518   9.874   1.011   8.928
12426WAT      O37519   4.060   4.334   3.060
12426WAT     H137520   4.031   4.374   2.973
12426WAT     H237521   4.070   4.407   3.128
12427WAT      O37522   3.655   1.244   6.867
12427WAT     H137523   3.627   1.249   6.771
12427WAT     H237524   3.654   1.149   6.897
12428WAT      O37525   4.667   4.879   8.421
12428WAT     H137526   4.669   4.792   8.470
12428WAT     H237527   4.721   4.947   8.471
12429WAT      O37528   7.733   1.240   7.579
12429WAT     H137529   7.733   1.332   7.619
12429WAT     H237530   7.828   1.208   7.568
12430WAT      O37531   9.175   2.892   2.067
12430WAT     H137532   9.199   2.818   2.130
12430WAT     H237533   9.207   2.869   1.975
12431WAT      O37534   9.173   1.724   8.224
12431WAT     H137535   9.269   1.696   8.228
12431WAT     H237536   9.130   1.708   8.314
12432WAT      O37537   9.483   1.473   7.112
12432WAT     H137538   9.478   1.522   7.199
12432WAT     H237539   9.399   1.420   7.099
12433WAT      O37540   4.246   6.573   1.119
12433WAT     H137541   4.294   6.514   1.184
12433WAT     H237542   4.309   6.642   1.084
12434WAT      O37543   4.153   2.887   2.318
12434WAT     H137544   4.195   2.976   2.296
12434WAT     H237545   4.147   2.832   2.235
12435WAT      O37546   9.466   4.405   8.875
12435WAT     H137547   9.389   4.350   8.905
12435WAT     H237548   9.477   4.397   8.776
12436WAT      O37549   6.719   4.296   6.480
12436WAT     H137550   6.705   4.199   6.461
12436WAT     H237551   6.635   4.336   6.516
12437WAT      O37552   3.797   6.520   1.305
12437WAT     H137553   3.870   6.511   1.237
12437WAT     H237554   3.796   6.613   1.342
12438WAT      O37555   5.805   7.815   2.631
12438WAT     H137556   5.809   7.833   2.533
12438WAT     H237557   5.834   7.721   2.649
12439WAT      O37558   6.764   2.559   8.614
12439WAT     H137559   6.746   2.579   8.518
12439WAT     H237560   6.683   2.517   8.655
12440WAT      O37561   9.014   7.115   3.759
12440WAT     H137562   9.088   7.071   3.708
12440WAT     H237563   9.018   7.088   3.855
12441WAT      O37564   6.271   7.799   4.668
12441WAT     H137565   6.230   7.754   4.748
12441WAT     H237566   6.325   7.732   4.617
12442WAT      O37567   3.394   2.891   9.275
12442WAT     H137568   3.379   2.815   9.338
12442WAT     H237569   3.351   2.871   9.187
12443WAT      O37570   2.208   7.577   6.995
12443WAT     H137571   2.191   7.653   6.932
12443WAT     H237572   2.146   7.502   6.975
12444WAT      O37573   4.003   5.026   5.132
12444WAT     H137574   4.015   5.125   5.137
12444WAT     H237575   4.046   4.991   5.048
12445WAT      O37576   8.411   8.177   5.276
12445WAT     H137577   8.469   8.167   5.195
12445WAT     H237578   8.426   8.268   5.316
12446WAT      O37579   3.839   9.802   8.559
12446WAT     H137580   3.921   9.762   8.601
12446WAT     H237581   3.781   9.842   8.630
12447WAT      O37582   0.962   8.831   2.391
12447WAT     H137583   0.889   8.764   2.376
12447WAT     H237584   0.969   8.850   2.489
12448WAT      O37585   0.036   0.108   6.672
12448WAT     H137586  -0.013   0.190   6.646
12448WAT     H237587  -0.023   0.028   6.659
12449WAT      O37588   4.279   3.694   5.514
12449WAT     H137589   4.291   3.684   5.613
12449WAT     H237590   4.195   3.745   5.495
12450WAT      O37591   7.976   0.144   4.711
12450WAT     H137592   7.975   0.112   4.806
12450WAT     H237593   8.053   0.103   4.663
12451WAT      O37594   1.029   9.256   4.394
12451WAT     H137595   1.011   9.159   4.381
12451WAT     H237596   0.950   9.309   4.364
12452WAT      O37597   0.759   7.877   3.872
12452WAT     H137598   0.829   7.876   3.800
12452WAT     H237599   0.700   7.797   3.862
12453WAT      O37600   6.448   9.163   1.300
12453WAT     H137601   6.369   9.178   1.359
12453WAT     H237602   6.508   9.094   1.340
12454WAT      O37603   0.310   5.485   4.845
12454WAT     H137604   0.276   5.393   4.865
12454WAT     H237605   0.410   5.486   4.851
12455WAT      O37606   5.604   9.155   7.805
12455WAT     H137607   5.638   9.249   7.803
12455WAT     H237608   5.513   9.151   7.764
12456WAT      O37609   7.197   5.323   9.619
12456WAT     H137610   7.291   5.331   9.585
12456WAT     H237611   7.184   5.384   9.697
12457WAT      O37612   8.632   5.812   0.730
12457WAT     H137613   8.701   5.743   0.707
12457WAT     H237614   8.546   5.788   0.686
12458WAT      O37615   2.581   5.317   8.607
12458WAT     H137616   2.650   5.356   8.546
12458WAT     H237617   2.554   5.227   8.572
12459WAT      O37618   0.941   1.452   4.660
12459WAT     H137619   1.040   1.464   4.665
12459WAT     H237620   0.903   1.513   4.590
12460WAT      O37621   5.126   7.494   7.512
12460WAT     H137622   5.080   7.579   7.486
12460WAT     H237623   5.140   7.437   7.431
12461WAT      O37624   0.620   5.252   1.160
12461WAT     H137625   0.647   5.320   1.228
12461WAT     H237626   0.687   5.178   1.157
12462WAT      O37627   4.042   6.750   7.918
12462WAT     H137628   4.054   6.764   8.016
12462WAT     H237629   3.945   6.761   7.894
12463WAT      O37630   7.561   4.118   9.565
12463WAT     H137631   7.538   4.213   9.587
12463WAT     H237632   7.630   4.117   9.493
12464WAT      O37633   3.348   5.344   5.242
12464WAT     H137634   3.272   5.308   5.187
12464WAT     H237635   3.380   5.273   5.305
12465WAT      O37636   2.629   1.247   3.036
12465WAT     H137637   2.714   1.217   2.992
12465WAT     H237638   2.554   1.187   3.007
12466WAT      O37639   1.341   0.731   3.454
12466WAT     H137640   1.279   0.769   3.385
12466WAT     H237641   1.391   0.806   3.498
12467WAT      O37642   3.831   8.393   7.384
12467WAT     H137643   3.764   8.320   7.373
12467WAT     H237644   3.888   8.373   7.464
12468WAT      O37645   6.214   8.083   6.450
12468WAT     H137646   6.264   8.170   6.453
12468WAT     H237647   6.128   8.091   6.500
12469WAT      O37648   5.224   4.409   3.513
12469WAT     H137649   5.142   4.355   3.492
12469WAT     H237650   5.262   4.378   3.600
12470WAT      O37651   9.115   3.322   0.717
12470WAT     H137652   9.154   3.232   0.735
12470WAT     H237653   9.133   3.383   0.795
12471WAT      O37654   3.819   4.674   7.794
12471WAT     H137655   3.757   4.727   7.737
12471WAT     H237656   3.911   4.676   7.754
12472WAT      O37657   5.142   8.073   8.955
12472WAT     H137658   5.154   8.055   9.052
12472WAT     H237659   5.146   7.987   8.904
12473WAT      O37660   8.477   4.066   3.713
12473WAT     H137661   8.531   4.125   3.654
12473WAT     H237662   8.382   4.068   3.684
12474WAT      O37663   1.963   0.371   0.526
12474WAT     H137664   1.945   0.381   0.624
12474WAT     H237665   1.892   0.314   0.485
12475WAT      O37666   2.481   4.067   7.738
12475WAT     H137667   2.424   4.148   7.721
12475WAT     H237668   2.427   3.997   7.786
12476WAT      O37669   1.280   6.557   7.476
12476WAT     H137670   1.202   6.504   7.443
12476WAT     H237671   1.279   6.648   7.435
12477WAT      O37672   8.079   3.347   3.152
12477WAT     H137673   8.069   3.323   3.056
12477WAT     H237674   8.029   3.432   3.171
12478WAT      O37675   4.252   5.660   3.887
12478WAT     H137676   4.291   5.678   3.797
12478WAT     H237677   4.186   5.585   3.880
12479WAT      O37678   8.830   6.935   2.505
12479WAT     H137679   8.859   6.939   2.601
12479WAT     H237680   8.805   7.027   2.474
12480WAT      O37681   0.645   5.457   1.857
12480WAT     H137682   0.650   5.420   1.950
12480WAT     H237683   0.571   5.411   1.807
12481WAT      O37684   0.796   3.099   7.482
12481WAT     H137685   0.894   3.085   7.468
12481WAT     H237686   0.748   3.083   7.396
12482WAT      O37687   0.935   1.232   7.159
12482WAT     H137688   0.930   1.327   7.129
12482WAT     H237689   0.842   1.196   7.169
12483WAT      O37690   5.250   5.183   8.496
12483WAT     H137691   5.217   5.182   8.402
12483WAT     H237692   5.226   5.097   8.541
12484WAT      O37693   0.238   0.730   5.456
12484WAT     H137694   0.272   0.651   5.507
12484WAT     H237695   0.309   0.761   5.392
12485WAT      O37696   9.223   0.521   3.678
12485WAT     H137697   9.137   0.473   3.695
12485WAT     H237698   9.300   0.462   3.704
12486WAT      O37699   7.941   0.832   6.715
12486WAT     H137700   7.892   0.745   6.704
12486WAT     H237701   7.918   0.873   6.803
12487WAT      O37702   5.674   7.476   8.751
12487WAT     H137703   5.631   7.554   8.796
12487WAT     H237704   5.737   7.509   8.680
12488WAT      O37705   6.381   1.520   0.949
12488WAT     H137706   6.446   1.583   0.992
12488WAT     H237707   6.428   1.469   0.876
12489WAT      O37708   9.330   7.854   4.134
12489WAT     H137709   9.238   7.878   4.104
12489WAT     H237710   9.388   7.836   4.054
12490WAT      O37711   8.737   1.095   3.043
12490WAT     H137712   8.687   1.038   2.978
12490WAT     H237713   8.673   1.151   3.095
12491WAT      O37714   9.199   5.546   5.883
12491WAT     H137715   9.126   5.493   5.840
12491WAT     H237716   9.227   5.620   5.823
12492WAT      O37717   5.860   9.739   0.319
12492WAT     H137718   5.901   9.795   0.246
12492WAT     H237719   5.890   9.644   0.309
12493WAT      O37720   1.513   9.293   7.833
12493WAT     H137721   1.574   9.361   7.873
12493WAT     H237722   1.519   9.298   7.733
12494WAT      O37723   6.796   0.421   7.593
12494WAT     H137724   6.771   0.406   7.498
12494WAT     H237725   6.759   0.347   7.649
12495WAT      O37726   6.616   3.746   3.299
12495WAT     H137727   6.668   3.661   3.304
12495WAT     H237728   6.591   3.765   3.204
12496WAT      O37729   7.003   3.435   2.014
12496WAT     H137730   6.974   3.530   2.023
12496WAT     H237731   6.955   3.378   2.080
12497WAT      O37732   4.995   1.143   2.477
12497WAT     H137733   4.954   1.094   2.555
12497WAT     H237734   5.082   1.183   2.506
12498WAT      O37735   0.464   2.692   1.081
12498WAT     H137736   0.477   2.624   1.008
12498WAT     H237737   0.554   2.722   1.114
12499WAT      O37738   3.351   0.916   9.211
12499WAT     H137739   3.414   0.945   9.139
12499WAT     H237740   3.285   0.851   9.174
12500WAT      O37741   2.855   3.620   3.460
12500WAT     H137742   2.883   3.524   3.466
12500WAT     H237743   2.813   3.648   3.547
12501WAT      O37744   9.416   2.383   9.803
12501WAT     H137745   9.496   2.324   9.794
12501WAT     H237746   9.338   2.329   9.835
12502WAT      O37747   0.639   8.118   0.616
12502WAT     H137748   0.595   8.207   0.620
12502WAT     H237749   0.610   8.070   0.533
12503WAT      O37750   3.961   2.235   7.372
12503WAT     H137751   4.005   2.145   7.377
12503WAT     H237752   4.004   2.290   7.301
12504WAT      O37753   0.885   0.204   9.713
12504WAT     H137754   0.803   0.227   9.661
12504WAT     H237755   0.877   0.241   9.806
12505WAT      O37756   8.657   9.408   9.248
12505WAT     H137757   8.611   9.490   9.282
12505WAT     H237758   8.597   9.360   9.183
12506WAT      O37759   4.968   7.898   6.417
12506WAT     H137760   4.937   7.823   6.475
12506WAT     H237761   5.060   7.878   6.382
12507WAT      O37762   3.394   0.883   6.135
12507WAT     H137763   3.352   0.950   6.196
12507WAT     H237764   3.322   0.830   6.090
12508WAT      O37765   7.445   1.719   8.921
12508WAT     H137766   7.505   1.639   8.928
12508WAT     H237767   7.490   1.789   8.866
12509WAT      O37768   7.252   5.173   7.066
12509WAT     H137769   7.293   5.263   7.083
12509WAT     H237770   7.185   5.153   7.137
12510WAT      O37771   3.573   3.314   3.957
12510WAT     H137772   3.538   3.241   3.897
12510WAT     H237773   3.668   3.294   3.981
12511WAT      O37774   2.493   7.136   5.508
12511WAT     H137775   2.402   7.167   5.482
12511WAT     H237776   2.558   7.157   5.435
12512WAT      O37777   4.012   9.519   4.707
12512WAT     H137778   4.080   9.447   4.721
12512WAT     H237779   4.010   9.546   4.611
12513WAT      O37780   5.442   5.721   1.280
12513WAT     H137781   5.510   5.769   1.225
12513WAT     H237782   5.478   5.706   1.372
12514WAT      O37783   0.657   5.850   7.331
12514WAT     H137784   0.583   5.910   7.303
12514WAT     H237785   0.668   5.776   7.264
12515WAT      O37786   3.272   0.714   8.557
12515WAT     H137787   3.367   0.699   8.530
12515WAT     H237788   3.265   0.711   8.657
12516WAT      O37789   0.586   8.645   3.715
12516WAT     H137790   0.497   8.600   3.720
12516WAT     H237791   0.578   8.740   3.746
12517WAT      O37792   4.601   2.419   5.838
12517WAT     H137793   4.668   2.450   5.770
12517WAT     H237794   4.543   2.349   5.797
12518WAT      O37795   3.435   3.780   0.856
12518WAT     H137796   3.385   3.848   0.802
12518WAT     H237797   3.533   3.803   0.855
12519WAT      O37798   3.019   6.312   7.631
12519WAT     H137799   3.016   6.220   7.592
12519WAT     H237800   2.946   6.323   7.697
12520WAT      O37801   8.801   4.129   6.825
12520WAT     H137802   8.810   4.093   6.732
12520WAT     H237803   8.705   4.155   6.841
12521WAT      O37804   3.803   2.925   9.513
12521WAT     H137805   3.885   2.929   9.456
12521WAT     H237806   3.739   2.860   9.474
12522WAT      O37807   6.493   6.448   0.901
12522WAT     H137808   6.558   6.373   0.888
12522WAT     H237809   6.503   6.484   0.994
12523WAT      O37810   4.188   9.280   3.892
12523WAT     H137811   4.268   9.253   3.947
12523WAT     H237812   4.208   9.263   3.795
12524WAT      O37813   7.206   6.509   3.964
12524WAT     H137814   7.169   6.511   3.871
12524WAT     H237815   7.277   6.578   3.973
12525WAT      O37816   2.011   8.443   8.862
12525WAT     H137817   1.986   8.406   8.772
12525WAT     H237818   1.958   8.396   8.933
12526WAT      O37819   8.157   7.557   6.749
12526WAT     H137820   8.174   7.458   6.744
12526WAT     H237821   8.075   7.573   6.803
12527WAT      O37822   0.147   8.244   6.068
12527WAT     H137823   0.095   8.308   6.012
12527WAT     H237824   0.097   8.157   6.074
12528WAT      O37825   9.666   0.252   6.139
12528WAT     H137826   9.659   0.232   6.041
12528WAT     H237827   9.751   0.301   6.157
12529WAT      O37828   4.814   6.182   1.232
12529WAT     H137829   4.860   6.262   1.271
12529WAT     H237830   4.860   6.098   1.264
12530WAT      O37831   9.071   9.788   5.318
12530WAT     H137832   8.973   9.782   5.337
12530WAT     H237833   9.087   9.861   5.251
12531WAT      O37834   7.351   5.438   3.829
12531WAT     H137835   7.438   5.410   3.871
12531WAT     H237836   7.276   5.416   3.891
12532WAT      O37837   4.348   4.504   2.485
12532WAT     H137838   4.341   4.510   2.386
12532WAT     H237839   4.420   4.565   2.517
12533WAT      O37840   0.577   6.523   2.393
12533WAT     H137841   0.478   6.526   2.384
12533WAT     H237842   0.612   6.439   2.351
12534WAT      O37843   9.131   2.047   6.934
12534WAT     H137844   9.147   1.949   6.919
12534WAT     H237845   9.100   2.089   6.848
12535WAT      O37846   8.530   4.228   6.865
12535WAT     H137847   8.510   4.281   6.948
12535WAT     H237848   8.539   4.290   6.787
12536WAT      O37849   9.500   8.232   0.813
12536WAT     H137850   9.534   8.320   0.782
12536WAT     H237851   9.576   8.176   0.845
12537WAT      O37852   8.887   6.602   8.277
12537WAT     H137853   8.933   6.514   8.290
12537WAT     H237854   8.905   6.660   8.356
12538WAT      O37855   6.020   9.243   5.815
12538WAT     H137856   6.077   9.317   5.849
12538WAT     H237857   5.926   9.255   5.846
12539WAT      O37858   8.901   2.147   2.073
12539WAT     H137859   8.838   2.080   2.110
12539WAT     H237860   8.853   2.232   2.053
12540WAT      O37861   2.471   0.872   0.544
12540WAT     H137862   2.553   0.928   0.533
12540WAT     H237863   2.497   0.775   0.543
12541WAT      O37864   0.375   3.995   2.087
12541WAT     H137865   0.287   4.033   2.058
12541WAT     H237866   0.438   4.069   2.110
12542WAT      O37867   9.464   9.820   7.022
12542WAT     H137868   9.377   9.780   6.992
12542WAT     H237869   9.539   9.762   6.990
12543WAT      O37870   4.873   2.830   1.373
12543WAT     H137871   4.862   2.804   1.277
12543WAT     H237872   4.784   2.855   1.411
12544WAT      O37873   8.368   2.315   2.713
12544WAT     H137874   8.332   2.397   2.669
12544WAT     H237875   8.382   2.244   2.644
12545WAT      O37876   0.369   6.290   1.500
12545WAT     H137877   0.366   6.220   1.428
12545WAT     H237878   0.276   6.318   1.522
12546WAT      O37879   6.488   2.691   2.629
12546WAT     H137880   6.531   2.775   2.596
12546WAT     H237881   6.558   2.629   2.665
12547WAT      O37882   1.960   6.469   9.384
12547WAT     H137883   2.022   6.391   9.392
12547WAT     H237884   1.898   6.470   9.463
12548WAT      O37885   3.764   5.134   9.093
12548WAT     H137886   3.810   5.221   9.111
12548WAT     H237887   3.678   5.131   9.143
12549WAT      O37888   5.810   2.823   4.243
12549WAT     H137889   5.800   2.815   4.342
12549WAT     H237890   5.751   2.757   4.197
12550WAT      O37891   1.881   1.703   2.114
12550WAT     H137892   1.816   1.647   2.062
12550WAT     H237893   1.837   1.788   2.142
12551WAT      O37894   2.551   8.345   5.663
12551WAT     H137895   2.610   8.387   5.732
12551WAT     H237896   2.567   8.247   5.661
12552WAT      O37897   8.341   4.960   9.298
12552WAT     H137898   8.401   5.033   9.266
12552WAT     H237899   8.347   4.882   9.237
12553WAT      O37900   4.177   8.644   0.841
12553WAT     H137901   4.262   8.692   0.818
12553WAT     H237902   4.142   8.678   0.929
12554WAT      O37903   8.415   9.006   8.712
12554WAT     H137904   8.336   8.963   8.757
12554WAT     H237905   8.428   8.965   8.622
12555WAT      O37906   5.826   3.844   5.163
12555WAT     H137907   5.845   3.942   5.172
12555WAT     H237908   5.813   3.804   5.253
12556WAT      O37909   8.069   5.994   8.792
12556WAT     H137910   8.146   5.931   8.804
12556WAT     H237911   8.004   5.981   8.867
12557WAT      O37912   2.987   4.259   1.142
12557WAT     H137913   2.951   4.332   1.084
12557WAT     H237914   2.965   4.170   1.101
12558WAT      O37915   3.392   7.449   9.297
12558WAT     H137916   3.377   7.366   9.350
12558WAT     H237917   3.315   7.462   9.234
12559WAT      O37918   6.833   3.060   6.346
12559WAT     H137919   6.907   3.049   6.412
12559WAT     H237920   6.789   3.149   6.360
12560WAT      O37921   7.948   3.589   0.681
12560WAT     H137922   8.025   3.558   0.736
12560WAT     H237923   7.975   3.669   0.627
12561WAT      O37924   4.303   6.066   6.351
12561WAT     H137925   4.212   6.026   6.349
12561WAT     H237926   4.300   6.154   6.398
12562WAT      O37927   9.595   0.252   5.141
12562WAT     H137928   9.504   0.281   5.171
12562WAT     H237929   9.593   0.231   5.043
12563WAT      O37930   2.090   8.912   6.385
12563WAT     H137931   2.037   8.917   6.301
12563WAT     H237932   2.029   8.899   6.463
12564WAT      O37933   6.106   2.099   2.118
12564WAT     H137934   6.128   2.054   2.205
12564WAT     H237935   6.121   2.035   2.043
12565WAT      O37936   4.467   4.312   3.922
12565WAT     H137937   4.487   4.357   4.009
12565WAT     H237938   4.477   4.378   3.847
12566WAT      O37939   0.966   7.446   3.328
12566WAT     H137940   0.939   7.363   3.279
12566WAT     H237941   1.024   7.422   3.406
12567WAT      O37942   3.345   7.376   2.272
12567WAT     H137943   3.283   7.318   2.325
12567WAT     H237944   3.439   7.361   2.303
12568WAT      O37945   3.947   1.076   4.489
12568WAT     H137946   4.015   1.042   4.422
12568WAT     H237947   3.887   1.142   4.445
12569WAT      O37948   4.737   4.024   4.282
12569WAT     H137949   4.648   4.003   4.323
12569WAT     H237950   4.728   4.023   4.182
12570WAT      O37951   0.386   8.426   4.376
12570WAT     H137952   0.425   8.334   4.367
12570WAT     H237953   0.362   8.460   4.285
12571WAT      O37954   7.952   0.718   8.983
12571WAT     H137955   8.003   0.632   8.986
12571WAT     H237956   8.005   0.789   9.029
12572WAT      O37957   6.943   0.909   5.851
12572WAT     H137958   6.878   0.842   5.813
12572WAT     H237959   7.032   0.897   5.807
12573WAT      O37960   7.626   2.831   8.899
12573WAT     H137961   7.726   2.832   8.893
12573WAT     H237962   7.598   2.761   8.965
12574WAT      O37963   5.355   4.048   3.276
12574WAT     H137964   5.380   4.112   3.203
12574WAT     H237965   5.390   4.082   3.363
12575WAT      O37966   0.526   8.790   8.068
12575WAT     H137967   0.426   8.793   8.065
12575WAT     H237968   0.555   8.734   8.146
12576WAT      O37969   8.169   9.786   0.047
12576WAT     H137970   8.095   9.785  -0.020
12576WAT     H237971   8.251   9.827   0.006
12577WAT      O37972   9.579   7.136   5.465
12577WAT     H137973   9.543   7.090   5.547
12577WAT     H237974   9.622   7.222   5.491
12578WAT      O37975   6.477   1.361   7.137
12578WAT     H137976   6.565   1.379   7.093
12578WAT     H237977   6.419   1.443   7.131
12579WAT      O37978   3.495   8.197   7.738
12579WAT     H137979   3.411   8.238   7.702
12579WAT     H237980   3.571   8.260   7.722
12580WAT      O37981   4.424   9.765   9.875
12580WAT     H137982   4.369   9.682   9.862
12580WAT     H237983   4.494   9.748   9.943
12581WAT      O37984   8.671   2.490   1.379
12581WAT     H137985   8.754   2.471   1.432
12581WAT     H237986   8.631   2.576   1.409
12582WAT      O37987   3.588   6.475   2.776
12582WAT     H137988   3.567   6.429   2.690
12582WAT     H237989   3.667   6.431   2.820
12583WAT      O37990   6.584   9.763   7.815
12583WAT     H137991   6.492   9.783   7.848
12583WAT     H237992   6.631   9.849   7.792
12584WAT      O37993   8.678   7.048   1.659
12584WAT     H137994   8.623   6.969   1.631
12584WAT     H237995   8.739   7.021   1.734
12585WAT      O37996   1.054   2.152   0.418
12585WAT     H137997   1.080   2.097   0.339
12585WAT     H237998   1.132   2.165   0.478
12586WAT      O37999   5.843   3.755   7.846
12586WAT     H138000   5.817   3.660   7.864
12586WAT     H238001   5.776   3.817   7.887
12587WAT      O38002   5.942   8.563   8.885
12587WAT     H138003   5.860   8.508   8.866
12587WAT     H238004   6.008   8.508   8.935
12588WAT      O38005   4.087   2.342   8.238
12588WAT     H138006   4.001   2.347   8.290
12588WAT     H238007   4.068   2.317   8.144
12589WAT      O38008   4.851   8.233   7.823
12589WAT     H138009   4.829   8.311   7.881
12589WAT     H238010   4.789   8.157   7.843
12590WAT      O38011   2.347   9.569   8.760
12590WAT     H138012   2.283   9.627   8.709
12590WAT     H238013   2.346   9.597   8.856
12591WAT      O38014   1.294   5.487   5.018
12591WAT     H138015   1.372   5.437   4.981
12591WAT     H238016   1.322   5.537   5.100
12592WAT      O38017   6.981   8.101   2.795
12592WAT     H138018   6.951   8.061   2.708
12592WAT     H238019   6.949   8.043   2.870
12593WAT      O38020   9.487   1.304   7.397
12593WAT     H138021   9.429   1.271   7.323
12593WAT     H238022   9.559   1.238   7.415
12594WAT      O38023   7.081   5.969   2.162
12594WAT     H138024   7.015   5.899   2.187
12594WAT     H238025   7.034   6.049   2.126
12595WAT      O38026   3.960   5.666   0.834
12595WAT     H138027   4.004   5.660   0.745
12595WAT     H238028   3.921   5.758   0.846
12596WAT      O38029   9.379   1.407   5.343
12596WAT     H138030   9.395   1.316   5.305
12596WAT     H238031   9.465   1.459   5.341
12597WAT      O38032   2.873   5.075   3.316
12597WAT     H138033   2.969   5.091   3.292
12597WAT     H238034   2.819   5.155   3.293
12598WAT      O38035   4.805   4.428   8.385
12598WAT     H138036   4.777   4.332   8.387
12598WAT     H238037   4.730   4.485   8.353
12599WAT      O38038   3.001   9.289   4.473
12599WAT     H138039   3.097   9.315   4.462
12599WAT     H238040   2.994   9.207   4.529
12600WAT      O38041   3.779   1.202   4.317
12600WAT     H138042   3.817   1.294   4.313
12600WAT     H238043   3.722   1.186   4.237
12601WAT      O38044   4.613   8.663   6.857
12601WAT     H138045   4.610   8.599   6.780
12601WAT     H238046   4.589   8.754   6.825
12602WAT      O38047   4.871   6.248   3.998
12602WAT     H138048   4.952   6.189   3.997
12602WAT     H238049   4.898   6.342   3.975
12603WAT      O38050   5.545   4.548   0.321
12603WAT     H138051   5.555   4.641   0.287
12603WAT     H238052   5.633   4.516   0.356
12604WAT      O38053   7.400   2.265   1.650
12604WAT     H138054   7.444   2.257   1.560
12604WAT     H238055   7.319   2.207   1.653
12605WAT      O38056   0.158   4.165   0.680
12605WAT     H138057   0.064   4.132   0.678
12605WAT     H238058   0.160   4.262   0.653
12606WAT      O38059   8.046   5.001   2.541
12606WAT     H138060   7.975   4.933   2.562
12606WAT     H238061   8.042   5.024   2.444
12607WAT      O38062   5.489   1.513   2.010
12607WAT     H138063   5.409   1.574   2.009
12607WAT     H238064   5.458   1.418   2.014
12608WAT      O38065   5.046   3.786   6.182
12608WAT     H138066   5.057   3.882   6.159
12608WAT     H238067   4.961   3.751   6.142
12609WAT      O38068   6.022   4.653   6.516
12609WAT     H138069   5.998   4.727   6.579
12609WAT     H238070   6.118   4.663   6.489
12610WAT      O38071   9.087   6.404   3.057
12610WAT     H138072   9.015   6.401   2.987
12610WAT     H238073   9.160   6.465   3.027
12611WAT      O38074   8.585   4.164   1.478
12611WAT     H138075   8.648   4.093   1.448
12611WAT     H238076   8.526   4.129   1.551
12612WAT      O38077   8.385   4.448   9.631
12612WAT     H138078   8.448   4.523   9.649
12612WAT     H238079   8.423   4.389   9.559
12613WAT      O38080   0.660   7.906   8.136
12613WAT     H138081   0.732   7.971   8.109
12613WAT     H238082   0.583   7.915   8.073
12614WAT      O38083   7.522   2.418   4.899
12614WAT     H138084   7.526   2.423   4.800
12614WAT     H238085   7.605   2.375   4.934
12615WAT      O38086   7.213   5.155   4.742
12615WAT     H138087   7.188   5.196   4.829
12615WAT     H238088   7.307   5.119   4.748
12616WAT      O38089   9.139   5.898   9.158
12616WAT     H138090   9.108   5.992   9.163
12616WAT     H238091   9.109   5.848   9.239
12617WAT      O38092   4.576   9.258   2.914
12617WAT     H138093   4.632   9.184   2.875
12617WAT     H238094   4.619   9.291   2.999
12618WAT      O38095   2.640   1.072   3.651
12618WAT     H138096   2.633   0.975   3.671
12618WAT     H238097   2.732   1.092   3.617
12619WAT      O38098   6.165   5.216   9.113
12619WAT     H138099   6.245   5.187   9.061
12619WAT     H238100   6.088   5.229   9.050
12620WAT      O38101   8.147   0.819   3.814
12620WAT     H138102   8.078   0.811   3.886
12620WAT     H238103   8.185   0.728   3.795
12621WAT      O38104   7.380   0.333   4.456
12621WAT     H138105   7.330   0.322   4.542
12621WAT     H238106   7.458   0.394   4.471
12622WAT      O38107   6.026   4.237   0.386
12622WAT     H138108   5.935   4.254   0.347
12622WAT     H238109   6.039   4.138   0.399
12623WAT      O38110   3.375   3.820   7.187
12623WAT     H138111   3.341   3.845   7.278
12623WAT     H238112   3.475   3.827   7.185
12624WAT      O38113   6.675   3.072   7.323
12624WAT     H138114   6.661   2.985   7.371
12624WAT     H238115   6.594   3.129   7.335
12625WAT      O38116   5.586   0.470   5.887
12625WAT     H138117   5.586   0.486   5.788
12625WAT     H238118   5.509   0.410   5.911
12626WAT      O38119   2.990   2.243   7.189
12626WAT     H138120   3.061   2.313   7.184
12626WAT     H238121   3.011   2.169   7.125
12627WAT      O38122   5.896   9.395   4.329
12627WAT     H138123   5.892   9.329   4.254
12627WAT     H238124   5.917   9.347   4.414
12628WAT      O38125   9.183   1.305   6.899
12628WAT     H138126   9.172   1.334   6.804
12628WAT     H238127   9.102   1.331   6.951
12629WAT      O38128   5.569   2.848   9.289
12629WAT     H138129   5.619   2.802   9.216
12629WAT     H238130   5.563   2.946   9.270
12630WAT      O38131   1.742   8.564   0.509
12630WAT     H138132   1.675   8.566   0.583
12630WAT     H238133   1.818   8.626   0.530
12631WAT      O38134   3.400   6.694   4.044
12631WAT     H138135   3.319   6.680   4.101
12631WAT     H238136   3.454   6.610   4.042
12632WAT      O38137   8.417   8.102   5.858
12632WAT     H138138   8.373   8.029   5.806
12632WAT     H238139   8.394   8.092   5.955
12633WAT      O38140   7.764   4.441   7.997
12633WAT     H138141   7.838   4.396   7.947
12633WAT     H238142   7.718   4.506   7.938
12634WAT      O38143   0.269   6.879   3.486
12634WAT     H138144   0.285   6.819   3.407
12634WAT     H238145   0.270   6.824   3.570
12635WAT      O38146   4.833   8.707   9.071
12635WAT     H138147   4.746   8.757   9.068
12635WAT     H238148   4.887   8.739   9.148
12636WAT      O38149   5.446   6.546   6.067
12636WAT     H138150   5.527   6.491   6.046
12636WAT     H238151   5.381   6.490   6.119
12637WAT      O38152   3.493   0.737   0.488
12637WAT     H138153   3.423   0.676   0.452
12637WAT     H238154   3.471   0.761   0.583
12638WAT      O38155   9.576   7.510   1.331
12638WAT     H138156   9.577   7.517   1.431
12638WAT     H238157   9.603   7.418   1.303
12639WAT      O38158   7.405   6.057   2.677
12639WAT     H138159   7.429   6.033   2.583
12639WAT     H238160   7.307   6.044   2.691
12640WAT      O38161   7.178   5.543   3.061
12640WAT     H138162   7.229   5.580   3.139
12640WAT     H238163   7.210   5.587   2.977
12641WAT      O38164   4.932   1.147   5.753
12641WAT     H138165   4.876   1.071   5.721
12641WAT     H238166   5.023   1.141   5.714
12642WAT      O38167   9.623   2.871   3.054
12642WAT     H138168   9.721   2.885   3.043
12642WAT     H238169   9.600   2.775   3.032
12643WAT      O38170   4.258   8.449   0.590
12643WAT     H138171   4.195   8.423   0.663
12643WAT     H238172   4.206   8.486   0.513
12644WAT      O38173   5.098   9.490   4.735
12644WAT     H138174   5.188   9.516   4.769
12644WAT     H238175   5.098   9.392   4.713
12645WAT      O38176   6.720   8.421   8.187
12645WAT     H138177   6.698   8.443   8.092
12645WAT     H238178   6.642   8.443   8.245
12646WAT      O38179   4.227   5.039   3.845
12646WAT     H138180   4.146   5.057   3.790
12646WAT     H238181   4.205   4.976   3.918
12647WAT      O38182   0.630   0.010   7.355
12647WAT     H138183   0.559   0.081   7.358
12647WAT     H238184   0.622  -0.048   7.436
12648WAT      O38185   9.330   4.818   1.319
12648WAT     H138186   9.241   4.776   1.306
12648WAT     H238187   9.395   4.782   1.252
12649WAT      O38188   0.157   9.045   1.051
12649WAT     H138189   0.175   8.948   1.065
12649WAT     H238190   0.117   9.084   1.133
12650WAT      O38191   6.155   2.562   4.547
12650WAT     H138192   6.216   2.550   4.625
12650WAT     H238193   6.207   2.551   4.462
12651WAT      O38194   3.319   4.870   1.363
12651WAT     H138195   3.256   4.792   1.365
12651WAT     H238196   3.267   4.954   1.350
12652WAT      O38197   4.521   6.868   9.827
12652WAT     H138198   4.610   6.838   9.792
12652WAT     H238199   4.518   6.857   9.926
12653WAT      O38200   6.358   9.438   4.450
12653WAT     H138201   6.451   9.416   4.423
12653WAT     H238202   6.302   9.452   4.368
12654WAT      O38203   4.604   2.911   5.840
12654WAT     H138204   4.530   2.846   5.859
12654WAT     H238205   4.680   2.894   5.903
12655WAT      O38206   0.587   0.244   5.599
12655WAT     H138207   0.650   0.222   5.524
12655WAT     H238208   0.493   0.234   5.566
12656WAT      O38209   4.872   8.644   0.636
12656WAT     H138210   4.790   8.586   0.636
12656WAT     H238211   4.904   8.656   0.542
12657WAT      O38212   4.634   2.015   9.514
12657WAT     H138213   4.649   1.947   9.441
12657WAT     H238214   4.670   1.979   9.600
12658WAT      O38215   7.734   0.391   8.110
12658WAT     H138216   7.695   0.483   8.103
12658WAT     H238217   7.833   0.397   8.107
12659WAT      O38218   5.386   3.393   5.811
12659WAT     H138219   5.415   3.432   5.723
12659WAT     H238220   5.367   3.467   5.875
12660WAT      O38221   5.376   6.137   8.632
12660WAT     H138222   5.393   6.046   8.594
12660WAT     H238223   5.463   6.181   8.655
12661WAT      O38224   1.008   1.002   4.024
12661WAT     H138225   1.046   1.005   4.117
12661WAT     H238226   0.997   1.096   3.990
12662WAT      O38227   0.340   3.422   2.039
12662WAT     H138228   0.391   3.358   2.097
12662WAT     H238229   0.403   3.489   1.999
12663WAT      O38230   2.395   8.655   3.828
12663WAT     H138231   2.308   8.620   3.794
12663WAT     H238232   2.443   8.704   3.755
12664WAT      O38233   7.077   0.606   9.250
12664WAT     H138234   7.125   0.660   9.182
12664WAT     H238235   7.049   0.665   9.326
12665WAT      O38236   9.575   7.212   5.200
12665WAT     H138237   9.566   7.204   5.299
12665WAT     H238238   9.641   7.144   5.167
12666WAT      O38239   3.097   7.470   4.822
12666WAT     H138240   3.089   7.452   4.920
12666WAT     H238241   3.167   7.411   4.782
12667WAT      O38242   7.342   9.817   5.405
12667WAT     H138243   7.418   9.809   5.470
12667WAT     H238244   7.274   9.880   5.441
12668WAT      O38245   9.133   6.212   6.289
12668WAT     H138246   9.098   6.170   6.205
12668WAT     H238247   9.115   6.151   6.366
12669WAT      O38248   6.972   4.741   5.693
12669WAT     H138249   6.999   4.838   5.685
12669WAT     H238250   6.879   4.730   5.658
12670WAT      O38251   9.460   3.005   4.055
12670WAT     H138252   9.479   3.096   4.018
12670WAT     H238253   9.372   3.006   4.102
12671WAT      O38254   5.011   2.828   6.139
12671WAT     H138255   5.046   2.739   6.109
12671WAT     H238256   5.078   2.899   6.116
12672WAT      O38257   0.473   9.442   8.042
12672WAT     H138258   0.390   9.430   8.097
12672WAT     H238259   0.534   9.364   8.057
12673WAT      O38260   6.403   0.574   4.436
12673WAT     H138261   6.360   0.664   4.432
12673WAT     H238262   6.502   0.585   4.445
12674WAT      O38263   4.995   9.767   0.471
12674WAT     H138264   5.049   9.821   0.535
12674WAT     H238265   4.983   9.674   0.508
12675WAT      O38266   5.036   1.599   7.560
12675WAT     H138267   5.085   1.516   7.588
12675WAT     H238268   4.970   1.576   7.489
12676WAT      O38269   9.680   2.983   1.715
12676WAT     H138270   9.768   3.011   1.754
12676WAT     H238271   9.615   2.966   1.788
12677WAT      O38272   2.719   6.661   9.880
12677WAT     H138273   2.724   6.685   9.783
12677WAT     H238274   2.758   6.570   9.893
12678WAT      O38275   3.735   2.756   2.612
12678WAT     H138276   3.820   2.756   2.665
12678WAT     H238277   3.740   2.827   2.541
12679WAT      O38278   1.356   5.831   1.728
12679WAT     H138279   1.433   5.768   1.725
12679WAT     H238280   1.276   5.783   1.766
12680WAT      O38281   0.068   4.810   2.994
12680WAT     H138282   0.071   4.852   2.904
12680WAT     H238283   0.131   4.858   3.055
12681WAT      O38284   0.471   9.202   5.094
12681WAT     H138285   0.423   9.250   5.167
12681WAT     H238286   0.463   9.253   5.008
12682WAT      O38287   0.208   4.064   8.615
12682WAT     H138288   0.200   4.161   8.592
12682WAT     H238289   0.212   4.011   8.530
12683WAT      O38290   1.403   3.952   9.083
12683WAT     H138291   1.399   3.882   9.153
12683WAT     H238292   1.476   4.017   9.104
12684WAT      O38293   2.657   0.323   6.581
12684WAT     H138294   2.666   0.348   6.484
12684WAT     H238295   2.687   0.401   6.637
12685WAT      O38296   0.615   8.500   4.043
12685WAT     H138297   0.630   8.434   4.117
12685WAT     H238298   0.648   8.461   3.957
12686WAT      O38299   4.787   9.454   5.877
12686WAT     H138300   4.825   9.446   5.969
12686WAT     H238301   4.739   9.370   5.854
12687WAT      O38302   7.607   7.593   1.118
12687WAT     H138303   7.670   7.571   1.192
12687WAT     H238304   7.590   7.692   1.118
12688WAT      O38305   9.799   2.435   0.729
12688WAT     H138306   9.795   2.404   0.634
12688WAT     H238307   9.874   2.499   0.741
12689WAT      O38308   3.121   0.494   5.078
12689WAT     H138309   3.085   0.539   5.159
12689WAT     H238310   3.130   0.561   5.004
12690WAT      O38311   1.658   0.617   9.685
12690WAT     H138312   1.674   0.711   9.653
12690WAT     H238313   1.692   0.607   9.778
12691WAT      O38314   8.773   6.794   3.208
12691WAT     H138315   8.794   6.701   3.239
12691WAT     H238316   8.813   6.860   3.271
12692WAT      O38317   8.444   9.284   9.698
12692WAT     H138318   8.502   9.324   9.627
12692WAT     H238319   8.484   9.303   9.788
12693WAT      O38320   6.713   5.761   7.388
12693WAT     H138321   6.715   5.730   7.483
12693WAT     H238322   6.796   5.728   7.341
12694WAT      O38323   3.081   0.163   8.046
12694WAT     H138324   3.147   0.162   7.971
12694WAT     H238325   3.120   0.213   8.123
12695WAT      O38326   1.892   7.313   8.155
12695WAT     H138327   1.967   7.333   8.218
12695WAT     H238328   1.829   7.247   8.197
12696WAT      O38329   7.996   4.666   7.664
12696WAT     H138330   8.058   4.683   7.588
12696WAT     H238331   7.989   4.748   7.721
12697WAT      O38332   4.934   8.213   5.244
12697WAT     H138333   4.871   8.135   5.245
12697WAT     H238334   4.918   8.270   5.325
12698WAT      O38335   5.783   6.435   3.898
12698WAT     H138336   5.694   6.480   3.905
12698WAT     H238337   5.787   6.381   3.814
12699WAT      O38338   3.707   6.733   2.702
12699WAT     H138339   3.647   6.654   2.713
12699WAT     H238340   3.703   6.790   2.784
12700WAT      O38341   6.449   7.877   7.527
12700WAT     H138342   6.539   7.860   7.566
12700WAT     H238343   6.426   7.974   7.537
12701WAT      O38344   6.518   7.102   3.120
12701WAT     H138345   6.591   7.159   3.157
12701WAT     H238346   6.431   7.150   3.127
12702WAT      O38347   4.001   1.157   1.828
12702WAT     H138348   4.026   1.060   1.830
12702WAT     H238349   4.081   1.212   1.854
12703WAT      O38350   5.478   2.736   1.588
12703WAT     H138351   5.532   2.818   1.608
12703WAT     H238352   5.532   2.655   1.610
12704WAT      O38353   5.761   4.014   5.518
12704WAT     H138354   5.670   3.976   5.502
12704WAT     H238355   5.776   4.092   5.457
12705WAT      O38356   6.849   7.667   7.315
12705WAT     H138357   6.829   7.636   7.408
12705WAT     H238358   6.820   7.598   7.249
12706WAT      O38359   2.610   0.680   9.484
12706WAT     H138360   2.579   0.770   9.454
12706WAT     H238361   2.641   0.685   9.579
12707WAT      O38362   6.574   9.171   2.204
12707WAT     H138363   6.559   9.264   2.237
12707WAT     H238364   6.672   9.151   2.203
12708WAT      O38365   9.277   1.022   5.147
12708WAT     H138366   9.230   1.003   5.233
12708WAT     H238367   9.235   1.101   5.103
12709WAT      O38368   1.647   6.875   8.608
12709WAT     H138369   1.581   6.948   8.591
12709WAT     H238370   1.732   6.894   8.559
12710WAT      O38371   5.199   2.065   0.939
12710WAT     H138372   5.106   2.102   0.937
12710WAT     H238373   5.257   2.125   0.994
12711WAT      O38374   3.951   8.192   7.855
12711WAT     H138375   3.940   8.097   7.825
12711WAT     H238376   3.996   8.195   7.944
12712WAT      O38377   7.183   2.705   4.416
12712WAT     H138378   7.191   2.683   4.319
12712WAT     H238379   7.116   2.645   4.459
12713WAT      O38380   4.688   9.674   1.777
12713WAT     H138381   4.727   9.762   1.805
12713WAT     H238382   4.675   9.673   1.678
12714WAT      O38383   3.194   4.994   0.692
12714WAT     H138384   3.190   4.932   0.770
12714WAT     H238385   3.146   4.953   0.614
12715WAT      O38386   1.081   9.126   8.008
12715WAT     H138387   1.073   9.104   8.105
12715WAT     H238388   1.120   9.048   7.959
12716WAT      O38389   2.044   1.492   3.146
12716WAT     H138390   2.055   1.525   3.052
12716WAT     H238391   1.980   1.551   3.195
12717WAT      O38392   3.756   5.079   6.406
12717WAT     H138393   3.708   5.018   6.343
12717WAT     H238394   3.693   5.148   6.441
12718WAT      O38395   8.362   4.651   7.194
12718WAT     H138396   8.383   4.716   7.121
12718WAT     H238397   8.275   4.675   7.236
12719WAT      O38398   2.567   0.273   2.920
12719WAT     H138399   2.555   0.265   2.821
12719WAT     H238400   2.495   0.221   2.966
12720WAT      O38401   6.455   7.781   1.216
12720WAT     H138402   6.495   7.694   1.188
12720WAT     H238403   6.491   7.808   1.305
12721WAT      O38404   1.570   1.405   6.219
12721WAT     H138405   1.577   1.502   6.198
12721WAT     H238406   1.498   1.363   6.164
12722WAT      O38407   2.523   4.991   1.857
12722WAT     H138408   2.519   4.906   1.909
12722WAT     H238409   2.456   4.989   1.783
12723WAT      O38410   2.204   6.198   4.075
12723WAT     H138411   2.266   6.276   4.065
12723WAT     H238412   2.239   6.136   4.145
12724WAT      O38413   0.126   6.005   0.467
12724WAT     H138414   0.034   6.042   0.449
12724WAT     H238415   0.127   5.907   0.447
12725WAT      O38416   0.233   5.849   0.044
12725WAT     H138417   0.238   5.936   0.094
12725WAT     H238418   0.265   5.863  -0.049
12726WAT      O38419   3.680   6.582   2.351
12726WAT     H138420   3.751   6.647   2.376
12726WAT     H238421   3.593   6.630   2.342
12727WAT      O38422   1.276   6.966   2.209
12727WAT     H138423   1.362   6.993   2.165
12727WAT     H238424   1.296   6.913   2.291
12728WAT      O38425   0.150   8.583   0.664
12728WAT     H138426   0.079   8.514   0.649
12728WAT     H238427   0.221   8.574   0.594
12729WAT      O38428   2.027   6.790   1.068
12729WAT     H138429   1.949   6.727   1.059
12729WAT     H238430   1.995   6.877   1.105
12730WAT      O38431   2.301   2.403   1.046
12730WAT     H138432   2.325   2.318   0.999
12730WAT     H238433   2.360   2.477   1.013
12731WAT      O38434   9.307   8.693   0.970
12731WAT     H138435   9.233   8.653   0.917
12731WAT     H238436   9.285   8.788   0.992
12732WAT      O38437   5.002   8.511   6.143
12732WAT     H138438   4.903   8.520   6.157
12732WAT     H238439   5.026   8.414   6.137
12733WAT      O38440   5.344   2.609   4.460
12733WAT     H138441   5.375   2.555   4.539
12733WAT     H238442   5.362   2.558   4.376
12734WAT      O38443   5.216   6.346   1.247
12734WAT     H138444   5.270   6.348   1.163
12734WAT     H238445   5.227   6.257   1.292
12735WAT      O38446   6.946   8.630   1.542
12735WAT     H138447   6.875   8.639   1.473
12735WAT     H238448   7.033   8.609   1.497
12736WAT      O38449   1.132   2.459   5.758
12736WAT     H138450   1.087   2.371   5.773
12736WAT     H238451   1.064   2.529   5.738
12737WAT      O38452   1.310   2.597   5.964
12737WAT     H138453   1.238   2.554   5.908
12737WAT     H238454   1.288   2.586   6.061
12738WAT      O38455   1.152   2.745   9.583
12738WAT     H138456   1.143   2.825   9.524
12738WAT     H238457   1.165   2.775   9.678
12739WAT      O38458   0.708   5.982   8.578
12739WAT     H138459   0.798   6.020   8.557
12739WAT     H238460   0.680   6.010   8.670
12740WAT      O38461   2.829   3.983   0.343
12740WAT     H138462   2.836   4.049   0.269
12740WAT     H238463   2.901   3.914   0.333
12741WAT      O38464   7.840   1.834   3.538
12741WAT     H138465   7.771   1.782   3.488
12741WAT     H238466   7.892   1.891   3.475
12742WAT      O38467   5.011   8.369   4.815
12742WAT     H138468   5.071   8.436   4.859
12742WAT     H238469   4.933   8.350   4.874
12743WAT      O38470   4.920   2.197   9.179
12743WAT     H138471   4.947   2.261   9.108
12743WAT     H238472   4.844   2.236   9.232
12744WAT      O38473   3.757   2.092   4.727
12744WAT     H138474   3.765   2.170   4.790
12744WAT     H238475   3.845   2.046   4.719
12745WAT      O38476   2.395   4.374   0.204
12745WAT     H138477   2.370   4.410   0.294
12745WAT     H238478   2.330   4.302   0.179
12746WAT      O38479   1.105   5.792   5.154
12746WAT     H138480   1.182   5.731   5.134
12746WAT     H238481   1.112   5.874   5.097
12747WAT      O38482   1.762   4.883   1.228
12747WAT     H138483   1.673   4.902   1.268
12747WAT     H238484   1.759   4.898   1.130
12748WAT      O38485   0.502   2.447   0.956
12748WAT     H138486   0.578   2.385   0.939
12748WAT     H238487   0.419   2.410   0.914
12749WAT      O38488   1.216   1.293   6.551
12749WAT     H138489   1.136   1.236   6.532
12749WAT     H238490   1.290   1.235   6.585
12750WAT      O38491   5.891   5.326   2.520
12750WAT     H138492   5.894   5.301   2.617
12750WAT     H238493   5.867   5.423   2.512
12751WAT      O38494   8.686   5.230   8.635
12751WAT     H138495   8.647   5.167   8.702
12751WAT     H238496   8.626   5.235   8.555
12752WAT      O38497   7.468   2.746   7.562
12752WAT     H138498   7.462   2.846   7.560
12752WAT     H238499   7.433   2.709   7.476
12753WAT      O38500   1.077   1.986   6.653
12753WAT     H138501   1.142   1.925   6.699
12753WAT     H238502   1.004   1.931   6.613
12754WAT      O38503   8.871   3.751   7.753
12754WAT     H138504   8.777   3.780   7.771
12754WAT     H238505   8.927   3.766   7.835
12755WAT      O38506   5.588   8.621   7.588
12755WAT     H138507   5.508   8.677   7.564
12755WAT     H238508   5.584   8.534   7.539
12756WAT      O38509   1.423   6.260   3.411
12756WAT     H138510   1.486   6.335   3.432
12756WAT     H238511   1.340   6.269   3.466
12757WAT      O38512   9.060   5.260   6.235
12757WAT     H138513   8.977   5.303   6.270
12757WAT     H238514   9.066   5.167   6.271
12758WAT      O38515   2.714   5.884   4.264
12758WAT     H138516   2.736   5.798   4.217
12758WAT     H238517   2.761   5.960   4.219
12759WAT      O38518   5.805   0.819   6.972
12759WAT     H138519   5.708   0.835   6.955
12759WAT     H238520   5.826   0.722   6.961
12760WAT      O38521   9.779   0.717   7.594
12760WAT     H138522   9.711   0.664   7.543
12760WAT     H238523   9.735   0.762   7.672
12761WAT      O38524   3.107   0.548   2.705
12761WAT     H138525   3.127   0.639   2.671
12761WAT     H238526   3.128   0.544   2.803
12762WAT      O38527   9.708   6.444   5.094
12762WAT     H138528   9.707   6.395   5.007
12762WAT     H238529   9.656   6.529   5.086
12763WAT      O38530   5.188   1.601   6.030
12763WAT     H138531   5.164   1.598   5.933
12763WAT     H238532   5.287   1.597   6.041
12764WAT      O38533   2.298   4.520   5.436
12764WAT     H138534   2.316   4.424   5.417
12764WAT     H238535   2.288   4.534   5.534
12765WAT      O38536   1.509   6.240   1.805
12765WAT     H138537   1.432   6.302   1.792
12765WAT     H238538   1.476   6.153   1.842
12766WAT      O38539   7.831   2.166   4.042
12766WAT     H138540   7.827   2.136   4.138
12766WAT     H238541   7.751   2.132   3.993
12767WAT      O38542   3.771   9.554   8.061
12767WAT     H138543   3.725   9.596   8.140
12767WAT     H238544   3.827   9.478   8.093
12768WAT      O38545   0.249   3.746   9.561
12768WAT     H138546   0.199   3.822   9.520
12768WAT     H238547   0.209   3.722   9.649
12769WAT      O38548   5.433   0.025   5.696
12769WAT     H138549   5.422  -0.063   5.742
12769WAT     H238550   5.355   0.040   5.634
12770WAT      O38551   1.912   2.822   2.227
12770WAT     H138552   1.989   2.812   2.163
12770WAT     H238553   1.942   2.796   2.319
12771WAT      O38554   8.092   5.296   6.603
12771WAT     H138555   8.060   5.389   6.620
12771WAT     H238556   8.042   5.232   6.662
12772WAT      O38557   8.849   4.634   7.310
12772WAT     H138558   8.882   4.584   7.390
12772WAT     H238559   8.863   4.578   7.228
12773WAT      O38560   5.172   0.877   0.511
12773WAT     H138561   5.238   0.827   0.566
12773WAT     H238562   5.090   0.896   0.566
12774WAT      O38563   2.063   9.729   6.130
12774WAT     H138564   2.087   9.649   6.184
12774WAT     H238565   2.058   9.809   6.189
12775WAT      O38566   5.732   5.782   3.799
12775WAT     H138567   5.752   5.855   3.865
12775WAT     H238568   5.740   5.818   3.706
12776WAT      O38569   0.149   7.709   8.245
12776WAT     H138570   0.061   7.736   8.284
12776WAT     H238571   0.204   7.791   8.227
12777WAT      O38572   4.020   4.995   8.707
12777WAT     H138573   3.929   5.038   8.710
12777WAT     H238574   4.057   4.990   8.800
12778WAT      O38575   2.175   4.448   9.592
12778WAT     H138576   2.158   4.542   9.562
12778WAT     H238577   2.110   4.422   9.663
12779WAT      O38578   8.930   9.623   0.498
12779WAT     H138579   8.952   9.534   0.538
12779WAT     H238580   8.878   9.677   0.565
12780WAT      O38581   1.311   3.379   7.456
12780WAT     H138582   1.300   3.475   7.429
12780WAT     H238583   1.305   3.321   7.374
12781WAT      O38584   8.010   4.120   2.807
12781WAT     H138585   7.914   4.149   2.805
12781WAT     H238586   8.027   4.056   2.732
12782WAT      O38587   1.331   2.321   7.710
12782WAT     H138588   1.344   2.404   7.764
12782WAT     H238589   1.420   2.281   7.690
12783WAT      O38590   6.199   7.132   1.283
12783WAT     H138591   6.192   7.232   1.282
12783WAT     H238592   6.166   7.095   1.196
12784WAT      O38593   3.418   9.029   7.695
12784WAT     H138594   3.426   9.044   7.794
12784WAT     H238595   3.495   9.073   7.648
12785WAT      O38596   6.894   0.945   9.223
12785WAT     H138597   6.919   0.870   9.285
12785WAT     H238598   6.946   1.026   9.247
12786WAT      O38599   7.553   1.356   0.914
12786WAT     H138600   7.504   1.340   1.000
12786WAT     H238601   7.516   1.437   0.869
12787WAT      O38602   7.553   1.207   6.726
12787WAT     H138603   7.458   1.177   6.717
12787WAT     H238604   7.584   1.194   6.820
12788WAT      O38605   0.230   6.476   4.397
12788WAT     H138606   0.146   6.444   4.441
12788WAT     H238607   0.307   6.462   4.459
12789WAT      O38608   5.097   1.852   3.683
12789WAT     H138609   5.165   1.875   3.753
12789WAT     H238610   5.033   1.928   3.672
12790WAT      O38611   1.752   3.855   7.168
12790WAT     H138612   1.679   3.787   7.163
12790WAT     H238613   1.835   3.813   7.205
12791WAT      O38614   4.592   2.800   6.316
12791WAT     H138615   4.609   2.770   6.409
12791WAT     H238616   4.626   2.732   6.251
12792WAT      O38617   3.829   3.172   0.101
12792WAT     H138618   3.821   3.113   0.021
12792WAT     H238619   3.925   3.198   0.114
12793WAT      O38620   1.542   6.048   6.582
12793WAT     H138621   1.464   6.099   6.545
12793WAT     H238622   1.627   6.089   6.549
12794WAT      O38623   1.347   2.818   1.816
12794WAT     H138624   1.291   2.735   1.818
12794WAT     H238625   1.443   2.794   1.834
12795WAT      O38626   8.669   2.447   7.030
12795WAT     H138627   8.625   2.536   7.015
12795WAT     H238628   8.602   2.384   7.069
12796WAT      O38629   3.527   2.063   8.388
12796WAT     H138630   3.613   2.058   8.337
12796WAT     H238631   3.456   2.011   8.340
12797WAT      O38632   0.220   7.603   9.861
12797WAT     H138633   0.317   7.617   9.879
12797WAT     H238634   0.209   7.549   9.777
12798WAT      O38635   7.708   7.532   2.010
12798WAT     H138636   7.775   7.602   1.986
12798WAT     H238637   7.639   7.571   2.071
12799WAT      O38638   3.797   4.451   2.065
12799WAT     H138639   3.872   4.429   2.127
12799WAT     H238640   3.789   4.551   2.059
12800WAT      O38641   5.563   5.873   0.751
12800WAT     H138642   5.590   5.965   0.724
12800WAT     H238643   5.467   5.857   0.727
12801WAT      O38644   8.587   1.663   9.722
12801WAT     H138645   8.580   1.563   9.726
12801WAT     H238646   8.621   1.690   9.631
12802WAT      O38647   6.047   4.299   2.735
12802WAT     H138648   6.113   4.316   2.662
12802WAT     H238649   5.958   4.335   2.707
12803WAT      O38650   1.557   7.196   3.660
12803WAT     H138651   1.525   7.105   3.687
12803WAT     H238652   1.480   7.248   3.623
12804WAT      O38653   7.886   0.483   2.227
12804WAT     H138654   7.798   0.529   2.223
12804WAT     H238655   7.902   0.450   2.320
12805WAT      O38656   5.532   9.501   6.490
12805WAT     H138657   5.441   9.521   6.454
12805WAT     H238658   5.570   9.584   6.532
12806WAT      O38659   6.944   6.325   4.146
12806WAT     H138660   6.891   6.251   4.105
12806WAT     H238661   7.037   6.324   4.109
12807WAT      O38662   2.537   7.512   7.942
12807WAT     H138663   2.549   7.611   7.934
12807WAT     H238664   2.439   7.490   7.949
12808WAT      O38665   4.887   0.008   8.155
12808WAT     H138666   4.827  -0.071   8.168
12808WAT     H238667   4.979  -0.023   8.131
12809WAT      O38668   9.452   8.306   9.317
12809WAT     H138669   9.448   8.226   9.258
12809WAT     H238670   9.438   8.389   9.262
12810WAT      O38671   7.839   0.955   5.735
12810WAT     H138672   7.864   1.042   5.777
12810WAT     H238673   7.818   0.888   5.807
12811WAT      O38674   0.332   4.205   4.377
12811WAT     H138675   0.331   4.302   4.401
12811WAT     H238676   0.268   4.189   4.301
12812WAT      O38677   5.662   7.068   8.038
12812WAT     H138678   5.570   7.086   8.073
12812WAT     H238679   5.659   7.062   7.938
12813WAT      O38680   7.283   2.501   4.190
12813WAT     H138681   7.322   2.593   4.183
12813WAT     H238682   7.346   2.441   4.240
12814WAT      O38683   5.295   1.857   7.594
12814WAT     H138684   5.307   1.955   7.577
12814WAT     H238685   5.216   1.825   7.542
12815WAT      O38686   4.643   6.515   9.085
12815WAT     H138687   4.729   6.565   9.076
12815WAT     H238688   4.587   6.556   9.156
12816WAT      O38689   9.786   4.884   5.432
12816WAT     H138690   9.694   4.855   5.405
12816WAT     H238691   9.780   4.972   5.480
12817WAT      O38692   1.041   6.646   5.388
12817WAT     H138693   1.093   6.711   5.443
12817WAT     H238694   1.001   6.693   5.309
12818WAT      O38695   3.371   7.968   2.097
12818WAT     H138696   3.279   7.969   2.058
12818WAT     H238697   3.395   8.060   2.129
12819WAT      O38698   6.542   6.571   9.262
12819WAT     H138699   6.471   6.591   9.329
12819WAT     H238700   6.565   6.655   9.212
12820WAT      O38701   1.845   2.848   0.349
12820WAT     H138702   1.920   2.819   0.408
12820WAT     H238703   1.808   2.769   0.301
12821WAT      O38704   9.547   5.149   8.423
12821WAT     H138705   9.584   5.221   8.482
12821WAT     H238706   9.598   5.147   8.337
12822WAT      O38707   1.882   6.107   8.972
12822WAT     H138708   1.888   6.164   8.890
12822WAT     H238709   1.972   6.103   9.017
12823WAT      O38710   7.400   5.156   2.341
12823WAT     H138711   7.484   5.132   2.293
12823WAT     H238712   7.322   5.146   2.278
12824WAT      O38713   1.580   5.205   1.427
12824WAT     H138714   1.543   5.204   1.520
12824WAT     H238715   1.565   5.117   1.384
12825WAT      O38716   4.866   8.643   9.663
12825WAT     H138717   4.774   8.626   9.627
12825WAT     H238718   4.859   8.691   9.751
12826WAT      O38719   9.045   7.500   6.079
12826WAT     H138720   9.008   7.583   6.038
12826WAT     H238721   8.986   7.423   6.056
12827WAT      O38722   7.440   9.557   8.986
12827WAT     H138723   7.424   9.560   8.888
12827WAT     H238724   7.536   9.578   9.005
12828WAT      O38725   2.609   2.454   2.995
12828WAT     H138726   2.576   2.510   3.071
12828WAT     H238727   2.651   2.513   2.926
12829WAT      O38728   4.946   0.215   4.063
12829WAT     H138729   4.883   0.145   4.097
12829WAT     H238730   5.038   0.177   4.058
12830WAT      O38731   4.964   6.444   1.251
12830WAT     H138732   5.060   6.418   1.268
12830WAT     H238733   4.953   6.465   1.154
12831WAT      O38734   1.020   8.681   8.913
12831WAT     H138735   0.929   8.653   8.944
12831WAT     H238736   1.061   8.742   8.981
12832WAT      O38737   5.930   6.001   0.686
12832WAT     H138738   5.901   6.075   0.624
12832WAT     H238739   6.000   5.946   0.641
12833WAT      O38740   6.907   9.590   6.180
12833WAT     H138741   6.824   9.641   6.201
12833WAT     H238742   6.947   9.623   6.094
12834WAT      O38743   2.715   3.459   9.274
12834WAT     H138744   2.616   3.470   9.268
12834WAT     H238745   2.739   3.364   9.253
12835WAT      O38746   8.900   8.369   6.633
12835WAT     H138747   8.931   8.464   6.630
12835WAT     H238748   8.972   8.311   6.673
12836WAT      O38749   8.237   5.022   8.069
12836WAT     H138750   8.224   4.966   7.987
12836WAT     H238751   8.334   5.024   8.093
12837WAT      O38752   1.416   8.798   8.823
12837WAT     H138753   1.392   8.720   8.882
12837WAT     H238754   1.333   8.841   8.789
12838WAT      O38755   2.253   8.259   5.122
12838WAT     H138756   2.187   8.326   5.087
12838WAT     H238757   2.241   8.172   5.074
12839WAT      O38758   0.234   7.640   5.065
12839WAT     H138759   0.213   7.567   5.000
12839WAT     H238760   0.175   7.633   5.145
12840WAT      O38761   3.711   5.224   4.713
12840WAT     H138762   3.697   5.320   4.739
12840WAT     H238763   3.803   5.195   4.742
12841WAT      O38764   8.554   3.947   6.322
12841WAT     H138765   8.461   3.919   6.344
12841WAT     H238766   8.554   4.042   6.290
12842WAT      O38767   5.299   8.785   5.643
12842WAT     H138768   5.275   8.818   5.735
12842WAT     H238769   5.243   8.832   5.575
12843WAT      O38770   3.344   4.525   9.536
12843WAT     H138771   3.292   4.447   9.502
12843WAT     H238772   3.432   4.530   9.487
12844WAT      O38773   8.745   8.036   3.567
12844WAT     H138774   8.738   8.132   3.595
12844WAT     H238775   8.842   8.011   3.557
12845WAT      O38776   3.914   1.048   6.286
12845WAT     H138777   3.833   1.048   6.227
12845WAT     H238778   3.960   0.960   6.280
12846WAT      O38779   3.093   7.651   7.637
12846WAT     H138780   3.007   7.701   7.641
12846WAT     H238781   3.160   7.705   7.585
12847WAT      O38782   2.534   6.979   3.753
12847WAT     H138783   2.461   7.013   3.813
12847WAT     H238784   2.559   6.887   3.781
12848WAT      O38785   2.283   4.922   3.325
12848WAT     H138786   2.302   5.015   3.357
12848WAT     H238787   2.327   4.909   3.235
12849WAT      O38788   6.518   3.647   0.060
12849WAT     H138789   6.596   3.671   0.117
12849WAT     H238790   6.446   3.608   0.117
12850WAT      O38791   2.123   6.052   2.317
12850WAT     H138792   2.110   6.069   2.219
12850WAT     H238793   2.199   5.989   2.330
12851WAT      O38794   1.288   1.142   1.288
12851WAT     H138795   1.352   1.218   1.296
12851WAT     H238796   1.223   1.160   1.214
12852WAT      O38797   4.130   8.111   7.485
12852WAT     H138798   4.098   8.200   7.517
12852WAT     H238799   4.174   8.120   7.396
12853WAT      O38800   7.651   2.211   9.475
12853WAT     H138801   7.684   2.149   9.546
12853WAT     H238802   7.554   2.231   9.490
12854WAT      O38803   3.223   5.334   2.364
12854WAT     H138804   3.139   5.340   2.311
12854WAT     H238805   3.266   5.245   2.350
12855WAT      O38806   2.087   5.713   1.797
12855WAT     H138807   2.104   5.807   1.766
12855WAT     H238808   2.174   5.664   1.804
12856WAT      O38809   5.860   5.944   5.550
12856WAT     H138810   5.884   6.019   5.488
12856WAT     H238811   5.825   5.867   5.497
12857WAT      O38812   5.678   3.654   7.432
12857WAT     H138813   5.619   3.589   7.383
12857WAT     H238814   5.674   3.743   7.388
12858WAT      O38815   5.658   0.505   9.709
12858WAT     H138816   5.702   0.518   9.798
12858WAT     H238817   5.692   0.574   9.644
12859WAT      O38818   1.161   1.533   6.661
12859WAT     H138819   1.181   1.445   6.619
12859WAT     H238820   1.067   1.533   6.697
12860WAT      O38821   9.524   0.582   5.180
12860WAT     H138822   9.611   0.621   5.210
12860WAT     H238823   9.535   0.543   5.089
12861WAT      O38824   3.036   6.049   7.573
12861WAT     H138825   3.077   6.031   7.484
12861WAT     H238826   3.092   6.008   7.645
12862WAT      O38827   9.251   7.699   1.028
12862WAT     H138828   9.255   7.603   1.001
12862WAT     H238829   9.157   7.732   1.021
12863WAT      O38830   5.210   3.263   1.817
12863WAT     H138831   5.145   3.333   1.789
12863WAT     H238832   5.215   3.192   1.747
12864WAT      O38833   1.916   4.161   0.767
12864WAT     H138834   1.834   4.104   0.772
12864WAT     H238835   1.994   4.110   0.804
12865WAT      O38836   0.710   9.135   6.017
12865WAT     H138837   0.756   9.209   5.968
12865WAT     H238838   0.615   9.161   6.036
12866WAT      O38839   3.371   2.556   3.982
12866WAT     H138840   3.425   2.574   3.900
12866WAT     H238841   3.307   2.632   3.997
12867WAT      O38842   5.582   0.658   4.318
12867WAT     H138843   5.620   0.646   4.410
12867WAT     H238844   5.551   0.569   4.284
12868WAT      O38845   1.067   1.460   2.786
12868WAT     H138846   0.968   1.470   2.784
12868WAT     H238847   1.108   1.516   2.715
12869WAT      O38848   4.818   2.320   1.368
12869WAT     H138849   4.843   2.241   1.313
12869WAT     H238850   4.721   2.341   1.355
12870WAT      O38851   2.020   8.434   0.143
12870WAT     H138852   1.967   8.401   0.222
12870WAT     H238853   2.095   8.371   0.126
12871WAT      O38854   4.370   6.009   3.026
12871WAT     H138855   4.362   6.008   3.125
12871WAT     H238856   4.454   6.055   2.999
12872WAT      O38857   7.469   5.457   4.522
12872WAT     H138858   7.535   5.433   4.451
12872WAT     H238859   7.437   5.551   4.508
12873WAT      O38860   7.287   9.216   4.052
12873WAT     H138861   7.285   9.308   4.012
12873WAT     H238862   7.336   9.155   3.990
12874WAT      O38863   7.861   7.644   9.393
12874WAT     H138864   7.837   7.601   9.307
12874WAT     H238865   7.796   7.618   9.464
12875WAT      O38866   5.168   4.965   2.447
12875WAT     H138867   5.069   4.964   2.440
12875WAT     H238868   5.196   4.919   2.531
12876WAT      O38869   2.310   6.883   5.626
12876WAT     H138870   2.387   6.841   5.578
12876WAT     H238871   2.293   6.974   5.589
12877WAT      O38872   1.907   3.219   9.498
12877WAT     H138873   1.937   3.152   9.565
12877WAT     H238874   1.966   3.300   9.503
12878WAT      O38875   3.576   7.839   8.126
12878WAT     H138876   3.587   7.918   8.066
12878WAT     H238877   3.665   7.794   8.139
12879WAT      O38878   4.080   1.389   4.913
12879WAT     H138879   4.010   1.374   4.843
12879WAT     H238880   4.166   1.417   4.869
12880WAT      O38881   8.013   9.389   7.110
12880WAT     H138882   8.031   9.291   7.100
12880WAT     H238883   8.003   9.411   7.207
12881WAT      O38884   7.284   5.876   1.982
12881WAT     H138885   7.219   5.923   2.041
12881WAT     H238886   7.378   5.895   2.012
12882WAT      O38887   2.618   4.502   6.219
12882WAT     H138888   2.694   4.491   6.284
12882WAT     H238889   2.552   4.566   6.256
12883WAT      O38890   4.493   2.346   0.675
12883WAT     H138891   4.504   2.440   0.708
12883WAT     H238892   4.425   2.345   0.601
12884WAT      O38893   1.901   1.827   3.692
12884WAT     H138894   1.963   1.757   3.658
12884WAT     H238895   1.849   1.866   3.615
12885WAT      O38896   7.039   3.418   8.603
12885WAT     H138897   7.117   3.382   8.654
12885WAT     H238898   7.012   3.353   8.533
12886WAT      O38899   5.883   0.562   6.316
12886WAT     H138900   5.910   0.583   6.222
12886WAT     H238901   5.902   0.466   6.335
12887WAT      O38902   8.349   8.104   9.272
12887WAT     H138903   8.358   8.167   9.195
12887WAT     H238904   8.255   8.108   9.307
12888WAT      O38905   8.256   4.528   1.537
12888WAT     H138906   8.246   4.612   1.590
12888WAT     H238907   8.350   4.495   1.545
12889WAT      O38908   4.448   6.053   7.760
12889WAT     H138909   4.432   6.022   7.666
12889WAT     H238910   4.362   6.051   7.811
12890WAT      O38911   5.553   4.936   4.127
12890WAT     H138912   5.548   4.998   4.205
12890WAT     H238913   5.494   4.970   4.054
12891WAT      O38914   3.824   8.982   2.400
12891WAT     H138915   3.864   9.069   2.433
12891WAT     H238916   3.756   9.001   2.330
12892WAT      O38917   7.930   5.789   1.453
12892WAT     H138918   8.010   5.809   1.510
12892WAT     H238919   7.920   5.860   1.384
12893WAT      O38920   9.844   1.080   9.446
12893WAT     H138921   9.818   1.164   9.399
12893WAT     H238922   9.809   1.083   9.540
12894WAT      O38923   8.906   3.825   6.605
12894WAT     H138924   9.000   3.811   6.636
12894WAT     H238925   8.894   3.921   6.578
12895WAT      O38926   6.196   4.942   7.960
12895WAT     H138927   6.261   4.983   8.024
12895WAT     H238928   6.107   4.985   7.970
12896WAT      O38929   8.905   7.446   9.038
12896WAT     H138930   8.943   7.528   8.995
12896WAT     H238931   8.942   7.365   8.994
12897WAT      O38932   5.310   0.523   1.936
12897WAT     H138933   5.376   0.449   1.926
12897WAT     H238934   5.231   0.491   1.989
12898WAT      O38935   8.609   0.141   5.725
12898WAT     H138936   8.529   0.199   5.741
12898WAT     H238937   8.605   0.061   5.785
12899WAT      O38938   1.323   3.259   0.036
12899WAT     H138939   1.234   3.252  -0.009
12899WAT     H238940   1.395   3.239  -0.030
12900WAT      O38941   6.179   1.094   5.830
12900WAT     H138942   6.266   1.045   5.834
12900WAT     H238943   6.114   1.040   5.776
12901WAT      O38944   3.731   0.525   3.291
12901WAT     H138945   3.815   0.484   3.256
12901WAT     H238946   3.679   0.456   3.341
12902WAT      O38947   0.475   2.183   1.180
12902WAT     H138948   0.520   2.233   1.106
12902WAT     H238949   0.389   2.145   1.146
12903WAT      O38950   5.040   0.077   4.450
12903WAT     H138951   4.958   0.130   4.431
12903WAT     H238952   5.037   0.043   4.544
12904WAT      O38953   2.548   2.567   7.866
12904WAT     H138954   2.643   2.580   7.838
12904WAT     H238955   2.518   2.645   7.921
12905WAT      O38956   0.872   4.469   0.628
12905WAT     H138957   0.810   4.484   0.551
12905WAT     H238958   0.947   4.409   0.601
12906WAT      O38959   2.351   8.084   9.469
12906WAT     H138960   2.401   8.140   9.403
12906WAT     H238961   2.257   8.070   9.437
12907WAT      O38962   9.761   8.893   0.233
12907WAT     H138963   9.690   8.832   0.197
12907WAT     H238964   9.837   8.839   0.269
12908WAT      O38965   3.174   0.611   3.924
12908WAT     H138966   3.233   0.530   3.924
12908WAT     H238967   3.140   0.627   3.831
12909WAT      O38968   0.659   4.186   5.885
12909WAT     H138969   0.601   4.172   5.966
12909WAT     H238970   0.725   4.258   5.904
12910WAT      O38971   6.585   2.561   3.166
12910WAT     H138972   6.518   2.604   3.227
12910WAT     H238973   6.629   2.486   3.214
12911WAT      O38974   2.417   1.966   1.585
12911WAT     H138975   2.342   1.900   1.597
12911WAT     H238976   2.388   2.038   1.522
12912WAT      O38977   7.204   8.898   0.973
12912WAT     H138978   7.146   8.906   1.053
12912WAT     H238979   7.299   8.921   0.997
12913WAT      O38980   5.334   4.331   2.377
12913WAT     H138981   5.285   4.415   2.401
12913WAT     H238982   5.268   4.263   2.343
12914WAT      O38983   9.759   4.512   1.304
12914WAT     H138984   9.716   4.423   1.318
12914WAT     H238985   9.760   4.533   1.206
12915WAT      O38986   8.562   4.975   5.411
12915WAT     H138987   8.506   4.915   5.353
12915WAT     H238988   8.580   4.930   5.498
12916WAT      O38989   6.788   6.497   7.493
12916WAT     H138990   6.727   6.461   7.564
12916WAT     H238991   6.813   6.424   7.429
12917WAT      O38992   3.851   2.288   7.604
12917WAT     H138993   3.912   2.344   7.661
12917WAT     H238994   3.891   2.278   7.513
12918WAT      O38995   9.546   2.197   5.785
12918WAT     H138996   9.470   2.218   5.724
12918WAT     H238997   9.622   2.259   5.765
12919WAT      O38998   2.327   5.050   5.032
12919WAT     H138999   2.366   4.964   5.000
12919WAT     H239000   2.227   5.044   5.027
12920WAT      O39001   1.849   2.223   8.307
12920WAT     H139002   1.890   2.186   8.391
12920WAT     H239003   1.837   2.149   8.240
12921WAT      O39004   3.886   3.923   6.123
12921WAT     H139005   3.942   3.965   6.195
12921WAT     H239006   3.901   3.971   6.037
12922WAT      O39007   5.352   0.106   7.055
12922WAT     H139008   5.289   0.121   7.131
12922WAT     H239009   5.359   0.008   7.036
12923WAT      O39010   8.178   3.593   5.334
12923WAT     H139011   8.134   3.544   5.258
12923WAT     H239012   8.164   3.691   5.322
12924WAT      O39013   5.169   5.659   9.359
12924WAT     H139014   5.213   5.738   9.315
12924WAT     H239015   5.099   5.622   9.298
12925WAT      O39016   7.841   8.131   5.677
12925WAT     H139017   7.881   8.080   5.601
12925WAT     H239018   7.746   8.102   5.690
12926WAT      O39019   2.966   2.214   8.554
12926WAT     H139020   2.989   2.287   8.617
12926WAT     H239021   3.027   2.135   8.570
12927WAT      O39022   8.581   4.944   0.032
12927WAT     H139023   8.580   4.869  -0.034
12927WAT     H239024   8.565   5.030  -0.015
12928WAT      O39025   1.113   0.375   4.839
12928WAT     H139026   1.163   0.306   4.786
12928WAT     H239027   1.160   0.390   4.926
12929WAT      O39028   5.621   9.462   0.262
12929WAT     H139029   5.570   9.406   0.196
12929WAT     H239030   5.719   9.448   0.248
12930WAT      O39031   6.981   0.808   1.715
12930WAT     H139032   6.920   0.882   1.686
12930WAT     H239033   7.044   0.784   1.641
12931WAT      O39034   4.635   6.994   5.392
12931WAT     H139035   4.582   6.995   5.307
12931WAT     H239036   4.604   7.068   5.452
12932WAT      O39037   2.556   8.208   3.768
12932WAT     H139038   2.526   8.252   3.853
12932WAT     H239039   2.644   8.163   3.784
12933WAT      O39040   7.688   7.192   1.458
12933WAT     H139041   7.782   7.207   1.426
12933WAT     H239042   7.629   7.264   1.423
12934WAT      O39043   8.466   2.669   3.385
12934WAT     H139044   8.551   2.620   3.402
12934WAT     H239045   8.475   2.763   3.419
12935WAT      O39046   6.480   3.240   7.322
12935WAT     H139047   6.386   3.237   7.286
12935WAT     H239048   6.487   3.312   7.391
12936WAT      O39049   8.290   1.839   0.909
12936WAT     H139050   8.253   1.793   0.990
12936WAT     H239051   8.306   1.771   0.837
12937WAT      O39052   0.371   4.048   8.200
12937WAT     H139053   0.363   3.990   8.281
12937WAT     H239054   0.436   4.122   8.217
12938WAT      O39055   8.209   3.069   3.116
12938WAT     H139056   8.183   3.162   3.143
12938WAT     H239057   8.286   3.073   3.053
12939WAT      O39058   5.169   4.299   5.964
12939WAT     H139059   5.223   4.359   6.024
12939WAT     H239060   5.072   4.311   5.984
12940WAT      O39061   0.439   5.478   9.391
12940WAT     H139062   0.346   5.495   9.358
12940WAT     H239063   0.437   5.407   9.462
12941WAT      O39064   2.808   6.443   1.893
12941WAT     H139065   2.814   6.360   1.838
12941WAT     H239066   2.794   6.522   1.834
12942WAT      O39067   2.313   4.323   7.869
12942WAT     H139068   2.406   4.361   7.870
12942WAT     H239069   2.270   4.343   7.782
12943WAT      O39070   0.015   1.191   9.730
12943WAT     H139071   0.027   1.254   9.653
12943WAT     H239072   0.101   1.181   9.780
12944WAT      O39073   1.220   0.258   1.556
12944WAT     H139074   1.245   0.172   1.512
12944WAT     H239075   1.249   0.256   1.652
12945WAT      O39076   2.098   0.779   6.665
12945WAT     H139077   2.131   0.866   6.629
12945WAT     H239078   2.003   0.765   6.635
12946WAT      O39079   4.393   0.392   2.141
12946WAT     H139080   4.463   0.387   2.212
12946WAT     H239081   4.362   0.299   2.119
12947WAT      O39082   1.358   3.955   4.543
12947WAT     H139083   1.375   3.959   4.642
12947WAT     H239084   1.396   3.869   4.507
12948WAT      O39085   1.070   7.729   7.960
12948WAT     H139086   1.163   7.764   7.947
12948WAT     H239087   1.073   7.632   7.981
12949WAT      O39088   9.029   3.295   3.492
12949WAT     H139089   8.982   3.287   3.580
12949WAT     H239090   9.115   3.345   3.504
12950WAT      O39091   4.704   1.892   2.989
12950WAT     H139092   4.751   1.978   3.010
12950WAT     H239093   4.622   1.910   2.934
12951WAT      O39094   7.069   2.919   6.151
12951WAT     H139095   7.055   2.858   6.229
12951WAT     H239096   7.100   3.008   6.184
12952WAT      O39097   8.372   8.078   1.422
12952WAT     H139098   8.374   8.177   1.433
12952WAT     H239099   8.434   8.051   1.348
12953WAT      O39100   2.649   3.121   6.105
12953WAT     H139101   2.582   3.102   6.034
12953WAT     H239102   2.722   3.179   6.067
12954WAT      O39103   5.128   3.255   6.715
12954WAT     H139104   5.162   3.175   6.765
12954WAT     H239105   5.029   3.262   6.727
12955WAT      O39106   2.079   5.411   5.212
12955WAT     H139107   2.012   5.483   5.226
12955WAT     H239108   2.045   5.346   5.144
12956WAT      O39109   3.768   6.094   4.520
12956WAT     H139110   3.718   6.147   4.450
12956WAT     H239111   3.820   6.157   4.578
12957WAT      O39112   0.692   0.582   4.377
12957WAT     H139113   0.705   0.565   4.475
12957WAT     H239114   0.615   0.527   4.344
12958WAT      O39115   8.987   9.521   1.344
12958WAT     H139116   9.085   9.528   1.324
12958WAT     H239117   8.960   9.425   1.344
12959WAT      O39118   0.817   1.857   2.038
12959WAT     H139119   0.767   1.842   2.124
12959WAT     H239120   0.779   1.799   1.967
12960WAT      O39121   5.486   2.966   2.915
12960WAT     H139122   5.584   2.978   2.926
12960WAT     H239123   5.444   2.952   3.005
12961WAT      O39124   7.050   2.138   8.861
12961WAT     H139125   6.980   2.095   8.918
12961WAT     H239126   7.033   2.237   8.856
12962WAT      O39127   7.916   7.855   2.251
12962WAT     H139128   7.962   7.904   2.325
12962WAT     H239129   7.930   7.757   2.261
12963WAT      O39130   4.906   2.524   5.827
12963WAT     H139131   4.956   2.536   5.741
12963WAT     H239132   4.891   2.613   5.869
12964WAT      O39133   4.682   7.054   9.573
12964WAT     H139134   4.723   7.035   9.662
12964WAT     H239135   4.583   7.067   9.583
12965WAT      O39136   2.477   1.867   3.873
12965WAT     H139137   2.565   1.911   3.891
12965WAT     H239138   2.471   1.842   3.777
12966WAT      O39139   6.934   9.063   6.333
12966WAT     H139140   6.926   9.155   6.294
12966WAT     H239141   6.924   9.068   6.433
12967WAT      O39142   9.291   7.726   0.230
12967WAT     H139143   9.354   7.719   0.308
12967WAT     H239144   9.216   7.788   0.253
12968WAT      O39145   3.250   8.230   3.212
12968WAT     H139146   3.257   8.132   3.193
12968WAT     H239147   3.277   8.281   3.131
12969WAT      O39148   5.598   5.776   1.952
12969WAT     H139149   5.603   5.739   1.860
12969WAT     H239150   5.687   5.816   1.977
12970WAT      O39151   9.694   8.766   1.502
12970WAT     H139152   9.733   8.749   1.411
12970WAT     H239153   9.768   8.780   1.568
12971WAT      O39154   3.351   7.911   9.288
12971WAT     H139155   3.430   7.971   9.279
12971WAT     H239156   3.273   7.964   9.321
12972WAT      O39157   7.629   2.198   0.329
12972WAT     H139158   7.532   2.206   0.351
12972WAT     H239159   7.643   2.210   0.231
12973WAT      O39160   6.258   5.197   3.799
12973WAT     H139161   6.231   5.227   3.708
12973WAT     H239162   6.351   5.160   3.795
12974WAT      O39163   8.276   5.243   0.994
12974WAT     H139164   8.352   5.180   0.985
12974WAT     H239165   8.198   5.208   0.942
12975WAT      O39166   8.650   8.783   3.690
12975WAT     H139167   8.578   8.844   3.723
12975WAT     H239168   8.730   8.838   3.665
12976WAT      O39169   0.966   7.020   1.650
12976WAT     H139170   0.896   6.970   1.598
12976WAT     H239171   0.923   7.097   1.697
12977WAT      O39172   1.876   3.469   3.873
12977WAT     H139173   1.934   3.550   3.884
12977WAT     H239174   1.823   3.455   3.957
12978WAT      O39175   8.975   4.842   1.014
12978WAT     H139176   8.913   4.779   0.968
12978WAT     H239177   9.048   4.870   0.951
12979WAT      O39178   3.292   9.063   7.264
12979WAT     H139179   3.306   9.081   7.167
12979WAT     H239180   3.345   8.983   7.291
12980WAT      O39181   9.442   3.749   5.796
12980WAT     H139182   9.408   3.682   5.730
12980WAT     H239183   9.377   3.825   5.804
12981WAT      O39184   6.710   2.570   7.298
12981WAT     H139185   6.759   2.589   7.213
12981WAT     H239186   6.752   2.622   7.373
12982WAT      O39187   8.392   2.406   5.863
12982WAT     H139188   8.358   2.315   5.885
12982WAT     H239189   8.323   2.455   5.809
12983WAT      O39190   4.544   5.252   2.560
12983WAT     H139191   4.484   5.248   2.640
12983WAT     H239192   4.559   5.347   2.534
12984WAT      O39193   2.451   1.793   0.426
12984WAT     H139194   2.461   1.694   0.435
12984WAT     H239195   2.483   1.838   0.510
12985WAT      O39196   6.961   8.102   0.332
12985WAT     H139197   6.941   8.006   0.311
12985WAT     H239198   6.932   8.159   0.255
12986WAT      O39199   6.253   6.711   5.364
12986WAT     H139200   6.347   6.691   5.393
12986WAT     H239201   6.214   6.630   5.320
12987WAT      O39202   1.848   1.896   0.167
12987WAT     H139203   1.896   1.953   0.100
12987WAT     H239204   1.843   1.802   0.134
12988WAT      O39205   6.279   4.254   8.481
12988WAT     H139206   6.318   4.298   8.400
12988WAT     H239207   6.349   4.195   8.522
12989WAT      O39208   2.128   1.090   9.738
12989WAT     H139209   2.212   1.049   9.702
12989WAT     H239210   2.074   1.020   9.785
12990WAT      O39211   3.938   1.913   9.298
12990WAT     H139212   3.895   1.849   9.361
12990WAT     H239213   3.941   2.004   9.340
12991WAT      O39214   4.595   8.122   6.836
12991WAT     H139215   4.505   8.106   6.876
12991WAT     H239216   4.593   8.101   6.738
12992WAT      O39217   7.316   8.316   9.239
12992WAT     H139218   7.415   8.326   9.234
12992WAT     H239219   7.291   8.279   9.328
12993WAT      O39220   3.233   4.058   2.978
12993WAT     H139221   3.287   4.130   3.022
12993WAT     H239222   3.282   3.971   2.985
12994WAT      O39223   5.773   2.008   0.160
12994WAT     H139224   5.775   2.103   0.191
12994WAT     H239225   5.799   1.948   0.235
12995WAT      O39226   6.710   9.608   8.564
12995WAT     H139227   6.808   9.612   8.545
12995WAT     H239228   6.675   9.700   8.583
12996WAT      O39229   5.881   7.063   0.999
12996WAT     H139230   5.852   7.143   1.051
12996WAT     H239231   5.818   6.987   1.018
12997WAT      O39232   6.199   7.376   4.391
12997WAT     H139233   6.281   7.394   4.337
12997WAT     H239234   6.201   7.282   4.425
12998WAT      O39235   4.706   5.340   1.621
12998WAT     H139236   4.746   5.430   1.640
12998WAT     H239237   4.657   5.308   1.702
12999WAT      O39238   4.503   4.027   7.515
12999WAT     H139239   4.550   4.004   7.600
12999WAT     H239240   4.529   3.962   7.444
13000WAT      O39241   1.315   2.488   0.517
13000WAT     H139242   1.245   2.495   0.589
13000WAT     H239243   1.403   2.515   0.554
13001WAT      O39244   1.717   7.598   3.052
13001WAT     H139245   1.785   7.662   3.085
13001WAT     H239246   1.753   7.549   2.972
13002WAT      O39247   7.653   9.038   8.880
13002WAT     H139248   7.557   9.041   8.852
13002WAT     H239249   7.707   8.993   8.809
13003WAT      O39250   1.694   6.750   1.444
13003WAT     H139251   1.681   6.726   1.348
13003WAT     H239252   1.777   6.803   1.455
13004WAT      O39253   8.046   0.333   1.826
13004WAT     H139254   8.088   0.378   1.747
13004WAT     H239255   8.058   0.234   1.818
13005WAT      O39256   2.227   7.493   3.406
13005WAT     H139257   2.310   7.541   3.432
13005WAT     H239258   2.192   7.531   3.320
13006WAT      O39259   9.430   7.794   7.889
13006WAT     H139260   9.493   7.775   7.965
13006WAT     H239261   9.341   7.753   7.909
13007WAT      O39262   9.737   3.488   1.780
13007WAT     H139263   9.815   3.428   1.763
13007WAT     H239264   9.672   3.443   1.841
13008WAT      O39265   5.379   9.596   1.382
13008WAT     H139266   5.458   9.609   1.442
13008WAT     H239267   5.296   9.629   1.427
13009WAT      O39268   7.082   1.111   9.370
13009WAT     H139269   7.107   1.060   9.452
13009WAT     H239270   7.032   1.193   9.396
13010WAT      O39271   8.978   2.860   1.105
13010WAT     H139272   9.070   2.899   1.098
13010WAT     H239273   8.979   2.787   1.174
13011WAT      O39274   8.115   8.489   3.959
13011WAT     H139275   8.093   8.583   3.933
13011WAT     H239276   8.095   8.476   4.056
13012WAT      O39277   7.585   6.206   5.875
13012WAT     H139278   7.582   6.127   5.814
13012WAT     H239279   7.563   6.177   5.968
13013WAT      O39280   4.538   0.090   2.806
13013WAT     H139281   4.528   0.178   2.759
13013WAT     H239282   4.589   0.027   2.747
13014WAT      O39283   9.122   5.425   3.872
13014WAT     H139284   9.198   5.473   3.828
13014WAT     H239285   9.119   5.330   3.840
13015WAT      O39286   0.798   3.841   4.942
13015WAT     H139287   0.805   3.797   5.032
13015WAT     H239288   0.848   3.927   4.943
13016WAT      O39289   1.442   0.182   6.571
13016WAT     H139290   1.394   0.244   6.634
13016WAT     H239291   1.515   0.135   6.620
13017WAT      O39292   2.697   8.383   3.215
13017WAT     H139293   2.757   8.303   3.211
13017WAT     H239294   2.660   8.402   3.124
13018WAT      O39295   8.702   4.483   0.801
13018WAT     H139296   8.710   4.405   0.863
13018WAT     H239297   8.711   4.451   0.707
13019WAT      O39298   3.910   6.338   0.932
13019WAT     H139299   3.962   6.341   1.017
13019WAT     H239300   3.814   6.320   0.953
13020WAT      O39301   3.938   1.632   6.932
13020WAT     H139302   3.846   1.660   6.905
13020WAT     H239303   3.953   1.655   7.028
13021WAT      O39304   5.941   0.252   4.207
13021WAT     H139305   6.030   0.208   4.197
13021WAT     H239306   5.954   0.351   4.212
13022WAT      O39307   1.810   3.925   3.430
13022WAT     H139308   1.811   3.942   3.332
13022WAT     H239309   1.716   3.916   3.462
13023WAT      O39310   1.202   8.476   7.805
13023WAT     H139311   1.154   8.459   7.718
13023WAT     H239312   1.154   8.429   7.879
13024WAT      O39313   9.767   4.549   2.742
13024WAT     H139314   9.832   4.490   2.790
13024WAT     H239315   9.747   4.510   2.652
13025WAT      O39316   6.126   3.188   4.766
13025WAT     H139317   6.177   3.266   4.802
13025WAT     H239318   6.189   3.114   4.744
13026WAT      O39319   6.515   7.986   4.888
13026WAT     H139320   6.469   8.016   4.804
13026WAT     H239321   6.614   7.993   4.875
13027WAT      O39322   9.780   7.572   6.161
13027WAT     H139323   9.703   7.554   6.222
13027WAT     H239324   9.827   7.486   6.141
13028WAT      O39325   9.432   3.767   0.884
13028WAT     H139326   9.367   3.816   0.826
13028WAT     H239327   9.440   3.814   0.972
13029WAT      O39328   5.167   2.193   2.894
13029WAT     H139329   5.200   2.131   2.965
13029WAT     H239330   5.185   2.155   2.804
13030WAT      O39331   9.776   4.789   9.763
13030WAT     H139332   9.788   4.740   9.849
13030WAT     H239333   9.703   4.857   9.773
13031WAT      O39334   2.702   6.070   2.497
13031WAT     H139335   2.669   6.160   2.525
13031WAT     H239336   2.655   6.042   2.413
13032WAT      O39337   7.966   4.661   6.328
13032WAT     H139338   7.951   4.756   6.303
13032WAT     H239339   7.974   4.605   6.246
13033WAT      O39340   7.001   2.559   6.824
13033WAT     H139341   7.008   2.520   6.732
13033WAT     H239342   7.088   2.548   6.872
13034WAT      O39343   7.019   3.216   5.447
13034WAT     H139344   6.995   3.248   5.538
13034WAT     H239345   7.119   3.217   5.436
13035WAT      O39346   3.580   1.988   0.961
13035WAT     H139347   3.498   1.970   1.014
13035WAT     H239348   3.660   1.951   1.008
13036WAT      O39349   2.257   1.777   1.666
13036WAT     H139350   2.189   1.776   1.740
13036WAT     H239351   2.216   1.739   1.584
13037WAT      O39352   0.214   8.436   5.409
13037WAT     H139353   0.186   8.346   5.442
13037WAT     H239354   0.145   8.472   5.347
13038WAT      O39355   3.273   5.258   9.457
13038WAT     H139356   3.304   5.198   9.531
13038WAT     H239357   3.182   5.228   9.427
13039WAT      O39358   6.396   8.435   3.605
13039WAT     H139359   6.434   8.416   3.515
13039WAT     H239360   6.458   8.495   3.655
13040WAT      O39361   4.529   1.818   7.917
13040WAT     H139362   4.484   1.755   7.980
13040WAT     H239363   4.461   1.875   7.872
13041WAT      O39364   5.217   0.643   6.193
13041WAT     H139365   5.179   0.735   6.192
13041WAT     H239366   5.145   0.577   6.170
13042WAT      O39367   0.731   8.750   0.814
13042WAT     H139368   0.674   8.669   0.795
13042WAT     H239369   0.767   8.786   0.728
13043WAT      O39370   5.369   7.857   9.484
13043WAT     H139371   5.370   7.797   9.404
13043WAT     H239372   5.461   7.860   9.524
13044WAT      O39373   0.715   6.510   1.049
13044WAT     H139374   0.684   6.504   0.954
13044WAT     H239375   0.717   6.418   1.089
13045WAT      O39376   2.395   1.716   8.424
13045WAT     H139377   2.397   1.816   8.422
13045WAT     H239378   2.409   1.681   8.331
13046WAT      O39379   1.135   5.614   0.745
13046WAT     H139380   1.133   5.677   0.667
13046WAT     H239381   1.046   5.612   0.790
13047WAT      O39382   2.533   8.997   0.241
13047WAT     H139383   2.454   8.999   0.302
13047WAT     H239384   2.502   8.998   0.146
13048WAT      O39385   4.785   6.796   9.780
13048WAT     H139386   4.848   6.771   9.706
13048WAT     H239387   4.797   6.734   9.858
13049WAT      O39388   9.669   2.268   2.593
13049WAT     H139389   9.683   2.176   2.629
13049WAT     H239390   9.752   2.322   2.606
13050WAT      O39391   5.797   8.532   9.376
13050WAT     H139392   5.759   8.594   9.307
13050WAT     H239393   5.868   8.578   9.428
13051WAT      O39394   4.728   0.772   0.141
13051WAT     H139395   4.661   0.735   0.077
13051WAT     H239396   4.786   0.839   0.094
13052WAT      O39397   2.962   1.798   7.618
13052WAT     H139398   2.969   1.706   7.578
13052WAT     H239399   3.023   1.860   7.570
13053WAT      O39400   7.047   5.299   8.444
13053WAT     H139401   7.055   5.210   8.400
13053WAT     H239402   7.138   5.334   8.468
13054WAT      O39403   5.613   7.656   3.095
13054WAT     H139404   5.678   7.587   3.064
13054WAT     H239405   5.631   7.742   3.047
13055WAT      O39406   9.010   9.004   7.321
13055WAT     H139407   8.935   8.970   7.378
13055WAT     H239408   9.068   8.927   7.294
13056WAT      O39409   6.453   4.581   8.547
13056WAT     H139410   6.404   4.560   8.631
13056WAT     H239411   6.502   4.667   8.558
13057WAT      O39412   3.866   5.646   2.860
13057WAT     H139413   3.920   5.702   2.797
13057WAT     H239414   3.908   5.556   2.868
13058WAT      O39415   2.314   7.622   2.816
13058WAT     H139416   2.281   7.529   2.802
13058WAT     H239417   2.321   7.669   2.728
13059WAT      O39418   9.623   7.455   1.776
13059WAT     H139419   9.571   7.453   1.861
13059WAT     H239420   9.718   7.429   1.794
13060WAT      O39421   2.081   2.743   9.353
13060WAT     H139422   2.014   2.676   9.384
13060WAT     H239423   2.141   2.702   9.284
13061WAT      O39424   3.227   6.940   0.599
13061WAT     H139425   3.292   7.002   0.555
13061WAT     H239426   3.144   6.934   0.543
13062WAT      O39427   3.295   3.111   9.399
13062WAT     H139428   3.326   3.023   9.362
13062WAT     H239429   3.210   3.138   9.354
13063WAT      O39430   3.111   2.973   5.692
13063WAT     H139431   3.083   3.015   5.778
13063WAT     H239432   3.195   2.921   5.706
13064WAT      O39433   0.128   7.033   0.980
13064WAT     H139434   0.185   7.105   1.019
13064WAT     H239435   0.150   7.022   0.883
13065WAT      O39436   9.502   5.700   7.305
13065WAT     H139437   9.524   5.649   7.388
13065WAT     H239438   9.408   5.681   7.277
13066WAT      O39439   4.606   5.250   9.464
13066WAT     H139440   4.599   5.155   9.496
13066WAT     H239441   4.575   5.255   9.369
13067WAT      O39442   8.727   0.691   8.397
13067WAT     H139443   8.766   0.680   8.489
13067WAT     H239444   8.717   0.602   8.354
13068WAT      O39445   5.585   7.692   9.165
13068WAT     H139446   5.490   7.679   9.196
13068WAT     H239447   5.623   7.774   9.208
13069WAT      O39448   2.111   4.351   2.700
13069WAT     H139449   2.103   4.315   2.607
13069WAT     H239450   2.128   4.276   2.764
13070WAT      O39451   8.908   4.640   9.306
13070WAT     H139452   8.999   4.675   9.283
13070WAT     H239453   8.917   4.555   9.358
13071WAT      O39454   5.414   8.173   5.611
13071WAT     H139455   5.413   8.220   5.522
13071WAT     H239456   5.398   8.240   5.684
13072WAT      O39457   7.551   5.498   8.569
13072WAT     H139458   7.567   5.431   8.641
13072WAT     H239459   7.457   5.533   8.576
13073WAT      O39460   5.503   1.367   5.400
13073WAT     H139461   5.483   1.402   5.309
13073WAT     H239462   5.564   1.430   5.448
13074WAT      O39463   9.733   3.439   7.293
13074WAT     H139464   9.756   3.515   7.232
13074WAT     H239465   9.797   3.436   7.369
13075WAT      O39466   0.576   3.501   4.089
13075WAT     H139467   0.564   3.408   4.125
13075WAT     H239468   0.533   3.567   4.151
13076WAT      O39469   7.880   1.495   2.924
13076WAT     H139470   7.806   1.516   2.988
13076WAT     H239471   7.909   1.401   2.936
13077WAT      O39472   9.187   5.980   5.768
13077WAT     H139473   9.246   6.014   5.695
13077WAT     H239474   9.232   5.991   5.856
13078WAT      O39475   0.049   1.858   6.308
13078WAT     H139476  -0.004   1.835   6.390
13078WAT     H239477   0.147   1.848   6.328
13079WAT      O39478   6.318   0.792   0.366
13079WAT     H139479   6.255   0.857   0.323
13079WAT     H239480   6.302   0.790   0.464
13080WAT      O39481   5.125   2.559   6.031
13080WAT     H139482   5.061   2.511   5.970
13080WAT     H239483   5.151   2.498   6.106
13081WAT      O39484   8.563   8.972   9.462
13081WAT     H139485   8.470   9.001   9.442
13081WAT     H239486   8.569   8.937   9.555
13082WAT      O39487   0.655   1.743   2.929
13082WAT     H139488   0.661   1.779   2.836
13082WAT     H239489   0.607   1.656   2.928
13083WAT      O39490   8.636   9.537   4.727
13083WAT     H139491   8.731   9.510   4.712
13083WAT     H239492   8.576   9.484   4.668
13084WAT      O39493   6.125   1.667   4.877
13084WAT     H139494   6.217   1.666   4.916
13084WAT     H239495   6.124   1.611   4.794
13085WAT      O39496   8.777   2.528   0.491
13085WAT     H139497   8.686   2.562   0.513
13085WAT     H239498   8.771   2.459   0.420
13086WAT      O39499   2.222   5.359   4.655
13086WAT     H139500   2.207   5.447   4.610
13086WAT     H239501   2.314   5.357   4.695
13087WAT      O39502   1.942   4.615   1.027
13087WAT     H139503   1.911   4.572   1.112
13087WAT     H239504   1.977   4.544   0.965
13088WAT      O39505   2.455   4.697   0.796
13088WAT     H139506   2.468   4.669   0.891
13088WAT     H239507   2.515   4.643   0.737
13089WAT      O39508   1.945   7.177   3.922
13089WAT     H139509   1.899   7.109   3.864
13089WAT     H239510   2.036   7.197   3.885
13090WAT      O39511   2.946   8.253   9.267
13090WAT     H139512   2.921   8.218   9.357
13090WAT     H239513   2.943   8.179   9.200
13091WAT      O39514   8.802   9.734   5.306
13091WAT     H139515   8.758   9.780   5.382
13091WAT     H239516   8.782   9.636   5.310
13092WAT      O39517   6.042   8.155   0.145
13092WAT     H139518   6.003   8.113   0.063
13092WAT     H239519   6.117   8.216   0.119
13093WAT      O39520   0.688   1.810   7.896
13093WAT     H139521   0.780   1.803   7.936
13093WAT     H239522   0.684   1.757   7.812
13094WAT      O39523   4.775   5.796   6.013
13094WAT     H139524   4.767   5.697   6.028
13094WAT     H239525   4.872   5.821   6.015
13095WAT      O39526   4.027   0.283   9.528
13095WAT     H139527   4.091   0.358   9.513
13095WAT     H239528   3.936   0.320   9.549
13096WAT      O39529   2.054   5.866   7.442
13096WAT     H139530   2.135   5.884   7.386
13096WAT     H239531   2.072   5.790   7.504
13097WAT      O39532   3.122   9.579   9.070
13097WAT     H139533   3.084   9.649   9.130
13097WAT     H239534   3.080   9.586   8.979
13098WAT      O39535   4.065   2.989   6.711
13098WAT     H139536   4.089   2.900   6.750
13098WAT     H239537   4.141   3.023   6.656
13099WAT      O39538   8.510   5.973   6.660
13099WAT     H139539   8.417   5.947   6.633
13099WAT     H239540   8.576   5.916   6.611
13100WAT      O39541   7.496   2.778   7.831
13100WAT     H139542   7.521   2.753   7.738
13100WAT     H239543   7.501   2.697   7.890
13101WAT      O39544   6.657   5.616   2.779
13101WAT     H139545   6.715   5.697   2.773
13101WAT     H239546   6.694   5.544   2.721
13102WAT      O39547   8.352   0.026   8.667
13102WAT     H139548   8.424   0.095   8.665
13102WAT     H239549   8.367  -0.034   8.746
13103WAT      O39550   5.609   3.057   6.250
13103WAT     H139551   5.640   3.150   6.271
13103WAT     H239552   5.619   3.000   6.331
13104WAT      O39553   4.397   4.787   0.718
13104WAT     H139554   4.304   4.822   0.725
13104WAT     H239555   4.462   4.863   0.723
13105WAT      O39556   2.564   8.473   4.802
13105WAT     H139557   2.610   8.438   4.720
13105WAT     H239558   2.630   8.517   4.862
13106WAT      O39559   4.604   8.722   5.995
13106WAT     H139560   4.631   8.760   6.084
13106WAT     H239561   4.685   8.713   5.937
13107WAT      O39562   9.890   1.254   7.855
13107WAT     H139563   9.800   1.217   7.833
13107WAT     H239564   9.943   1.186   7.905
13108WAT      O39565   2.280   5.226   9.757
13108WAT     H139566   2.188   5.259   9.734
13108WAT     H239567   2.346   5.300   9.743
13109WAT      O39568   1.163   9.749   1.021
13109WAT     H139569   1.228   9.814   1.061
13109WAT     H239570   1.069   9.782   1.037
13110WAT      O39571   4.591   7.412   1.469
13110WAT     H139572   4.615   7.502   1.505
13110WAT     H239573   4.626   7.403   1.376
13111WAT      O39574   8.950   7.708   5.883
13111WAT     H139575   8.966   7.762   5.966
13111WAT     H239576   8.949   7.768   5.804
13112WAT      O39577   8.803   3.968   1.491
13112WAT     H139578   8.720   3.942   1.541
13112WAT     H239579   8.882   3.926   1.534
13113WAT      O39580   4.558   4.993   0.677
13113WAT     H139581   4.487   5.052   0.638
13113WAT     H239582   4.645   5.010   0.631
13114WAT      O39583   2.851   4.702   2.055
13114WAT     H139584   2.776   4.669   1.997
13114WAT     H239585   2.908   4.625   2.083
13115WAT      O39586   3.869   8.737   4.388
13115WAT     H139587   3.870   8.818   4.447
13115WAT     H239588   3.961   8.699   4.381
13116WAT      O39589   2.526   8.626   1.389
13116WAT     H139590   2.514   8.713   1.342
13116WAT     H239591   2.580   8.640   1.472
13117WAT      O39592   2.702   7.484   9.242
13117WAT     H139593   2.786   7.447   9.283
13117WAT     H239594   2.694   7.581   9.264
13118WAT      O39595   3.966   6.241   2.862
13118WAT     H139596   3.875   6.271   2.892
13118WAT     H239597   4.013   6.317   2.818
13119WAT      O39598   0.818   1.701   1.178
13119WAT     H139599   0.783   1.788   1.143
13119WAT     H239600   0.895   1.719   1.240
13120WAT      O39601   8.535   6.453   2.968
13120WAT     H139602   8.499   6.380   3.026
13120WAT     H239603   8.634   6.445   2.962
13121WAT      O39604   9.258   9.076   8.445
13121WAT     H139605   9.320   9.056   8.521
13121WAT     H239606   9.198   8.997   8.430
13122WAT      O39607   6.418   4.082   4.801
13122WAT     H139608   6.371   3.994   4.811
13122WAT     H239609   6.513   4.072   4.832
13123WAT      O39610   6.339   7.194   3.517
13123WAT     H139611   6.385   7.112   3.482
13123WAT     H239612   6.331   7.187   3.617
13124WAT      O39613   2.275   5.134   8.223
13124WAT     H139614   2.219   5.204   8.269
13124WAT     H239615   2.253   5.132   8.126
13125WAT      O39616   5.718   2.690   4.482
13125WAT     H139617   5.675   2.642   4.405
13125WAT     H239618   5.670   2.667   4.566
13126WAT      O39619   1.694   4.269   9.652
13126WAT     H139620   1.755   4.220   9.590
13126WAT     H239621   1.727   4.260   9.746
13127WAT      O39622   5.665   9.408   9.217
13127WAT     H139623   5.619   9.320   9.226
13127WAT     H239624   5.711   9.413   9.128
13128WAT      O39625   6.664   8.726   2.158
13128WAT     H139626   6.710   8.752   2.243
13128WAT     H239627   6.672   8.801   2.092
13129WAT      O39628   1.237   1.438   6.307
13129WAT     H139629   1.283   1.393   6.230
13129WAT     H239630   1.266   1.396   6.393
13130WAT      O39631   2.813   2.643   0.683
13130WAT     H139632   2.794   2.574   0.613
13130WAT     H239633   2.727   2.681   0.717
13131WAT      O39634   3.356   0.942   2.706
13131WAT     H139635   3.383   0.906   2.796
13131WAT     H239636   3.431   0.929   2.642
13132WAT      O39637   4.041   6.726   1.914
13132WAT     H139638   4.061   6.683   1.826
13132WAT     H239639   4.122   6.773   1.948
13133WAT      O39640   8.457   6.550   4.933
13133WAT     H139641   8.493   6.623   4.875
13133WAT     H239642   8.434   6.471   4.878
13134WAT      O39643   0.852   8.015   9.715
13134WAT     H139644   0.762   8.054   9.733
13134WAT     H239645   0.841   7.927   9.668
13135WAT      O39646   7.303   5.313   2.826
13135WAT     H139647   7.305   5.390   2.762
13135WAT     H239648   7.215   5.312   2.874
13136WAT      O39649   0.396   9.639   9.207
13136WAT     H139650   0.338   9.650   9.126
13136WAT     H239651   0.397   9.543   9.235
13137WAT      O39652   8.006   9.007   9.591
13137WAT     H139653   8.081   9.066   9.563
13137WAT     H239654   7.948   8.987   9.511
13138WAT      O39655   4.395   1.099   7.727
13138WAT     H139656   4.396   1.000   7.746
13138WAT     H239657   4.357   1.147   7.807
13139WAT      O39658   3.203   1.335   1.939
13139WAT     H139659   3.105   1.327   1.957
13139WAT     H239660   3.220   1.335   1.841
13140WAT      O39661   3.847   2.178   9.364
13140WAT     H139662   3.924   2.192   9.427
13140WAT     H239663   3.762   2.210   9.407
13141WAT      O39664   4.817   5.129   3.569
13141WAT     H139665   4.853   5.054   3.513
13141WAT     H239666   4.890   5.164   3.628
13142WAT      O39667   5.884   9.614   0.770
13142WAT     H139668   5.961   9.629   0.831
13142WAT     H239669   5.868   9.696   0.714
13143WAT      O39670   5.168   4.204   0.089
13143WAT     H139671   5.111   4.138   0.139
13143WAT     H239672   5.112   4.279   0.057
13144WAT      O39673   5.874   7.569   2.717
13144WAT     H139674   5.918   7.597   2.802
13144WAT     H239675   5.810   7.494   2.735
13145WAT      O39676   7.362   6.095   9.323
13145WAT     H139677   7.265   6.099   9.344
13145WAT     H239678   7.413   6.148   9.391
13146WAT      O39679   7.148   6.547   4.683
13146WAT     H139680   7.096   6.516   4.603
13146WAT     H239681   7.195   6.632   4.662
13147WAT      O39682   5.424   4.875   7.928
13147WAT     H139683   5.379   4.804   7.875
13147WAT     H239684   5.459   4.946   7.867
13148WAT      O39685   7.529   1.860   8.190
13148WAT     H139686   7.435   1.893   8.175
13148WAT     H239687   7.573   1.846   8.101
13149WAT      O39688   9.335   5.579   0.625
13149WAT     H139689   9.288   5.528   0.553
13149WAT     H239690   9.417   5.623   0.587
13150WAT      O39691   5.843   8.872   1.193
13150WAT     H139692   5.798   8.915   1.115
13150WAT     H239693   5.838   8.933   1.272
13151WAT      O39694   6.396   0.083   4.368
13151WAT     H139695   6.459   0.051   4.297
13151WAT     H239696   6.363   0.006   4.421
13152WAT      O39697   9.142   1.191   2.158
13152WAT     H139698   9.160   1.093   2.166
13152WAT     H239699   9.057   1.213   2.206
13153WAT      O39700   5.381   7.958   8.102
13153WAT     H139701   5.385   7.903   8.186
13153WAT     H239702   5.311   7.920   8.041
13154WAT      O39703   2.387   6.849   7.231
13154WAT     H139704   2.458   6.783   7.254
13154WAT     H239705   2.326   6.860   7.309
13155WAT      O39706   3.957   0.549   2.998
13155WAT     H139707   4.000   0.504   3.076
13155WAT     H239708   3.878   0.496   2.968
13156WAT      O39709   9.541   1.419   5.975
13156WAT     H139710   9.540   1.421   5.875
13156WAT     H239711   9.448   1.419   6.010
13157WAT      O39712   5.212   5.984   8.302
13157WAT     H139713   5.132   6.032   8.336
13157WAT     H239714   5.186   5.891   8.276
13158WAT      O39715   9.168   0.802   9.639
13158WAT     H139716   9.100   0.851   9.694
13158WAT     H239717   9.251   0.790   9.694
13159WAT      O39718   6.980   9.773   5.009
13159WAT     H139719   7.054   9.727   5.059
13159WAT     H239720   7.020   9.831   4.938
13160WAT      O39721   5.406   5.994   6.670
13160WAT     H139722   5.316   5.985   6.713
13160WAT     H239723   5.470   6.035   6.734
13161WAT      O39724   7.584   4.321   6.723
13161WAT     H139725   7.634   4.297   6.806
13161WAT     H239726   7.492   4.351   6.748
13162WAT      O39727   9.287   5.548   4.983
13162WAT     H139728   9.385   5.549   4.963
13162WAT     H239729   9.249   5.638   4.962
13163WAT      O39730   5.776   1.325   0.767
13163WAT     H139731   5.744   1.322   0.672
13163WAT     H239732   5.698   1.333   0.828
13164WAT      O39733   7.200   2.814   7.658
13164WAT     H139734   7.277   2.763   7.621
13164WAT     H239735   7.227   2.908   7.676
13165WAT      O39736   5.837   8.147   1.633
13165WAT     H139737   5.793   8.194   1.556
13165WAT     H239738   5.912   8.203   1.667
13166WAT      O39739   5.169   9.750   1.526
13166WAT     H139740   5.095   9.735   1.460
13166WAT     H239741   5.130   9.760   1.617
13167WAT      O39742   4.758   7.390   7.198
13167WAT     H139743   4.693   7.323   7.233
13167WAT     H239744   4.825   7.343   7.140
13168WAT      O39745   7.173   5.131   2.191
13168WAT     H139746   7.190   5.221   2.150
13168WAT     H239747   7.075   5.118   2.202
13169WAT      O39748   6.740   5.700   2.404
13169WAT     H139749   6.770   5.788   2.367
13169WAT     H239750   6.753   5.628   2.336
13170WAT      O39751   9.303   3.331   6.891
13170WAT     H139752   9.309   3.417   6.941
13170WAT     H239753   9.211   3.293   6.901
13171WAT      O39754   7.252   5.638   5.360
13171WAT     H139755   7.237   5.547   5.397
13171WAT     H239756   7.256   5.705   5.434
13172WAT      O39757   6.231   0.401   0.932
13172WAT     H139758   6.205   0.482   0.985
13172WAT     H239759   6.329   0.404   0.912
13173WAT      O39760   4.021   1.800   7.969
13173WAT     H139761   4.054   1.719   8.018
13173WAT     H239762   3.937   1.833   8.012
13174WAT      O39763   7.098   2.423   5.088
13174WAT     H139764   7.068   2.490   5.156
13174WAT     H239765   7.026   2.355   5.074
13175WAT      O39766   0.726   3.253   1.797
13175WAT     H139767   0.694   3.347   1.807
13175WAT     H239768   0.817   3.253   1.756
13176WAT      O39769   2.517   1.013   8.853
13176WAT     H139770   2.544   1.107   8.832
13176WAT     H239771   2.568   0.950   8.794
13177WAT      O39772   5.322   2.625   0.819
13177WAT     H139773   5.243   2.665   0.773
13177WAT     H239774   5.382   2.582   0.751
13178WAT      O39775   7.858   0.647   2.581
13178WAT     H139776   7.953   0.662   2.553
13178WAT     H239777   7.800   0.641   2.500
13179WAT      O39778   5.680   7.579   0.367
13179WAT     H139779   5.611   7.588   0.439
13179WAT     H239780   5.655   7.504   0.306
13180WAT      O39781   2.349   5.725   6.494
13180WAT     H139782   2.384   5.819   6.494
13180WAT     H239783   2.425   5.661   6.483
13181WAT      O39784   8.226   0.390   8.499
13181WAT     H139785   8.173   0.308   8.524
13181WAT     H239786   8.163   0.466   8.482
13182WAT      O39787   3.879   5.402   8.349
13182WAT     H139788   3.962   5.363   8.308
13182WAT     H239789   3.814   5.329   8.369
13183WAT      O39790   9.717   9.309   1.968
13183WAT     H139791   9.687   9.352   2.053
13183WAT     H239792   9.817   9.302   1.968
13184WAT      O39793   8.477   2.065   6.330
13184WAT     H139794   8.386   2.031   6.305
13184WAT     H239795   8.481   2.081   6.428
13185WAT      O39796   5.274   4.598   8.442
13185WAT     H139797   5.193   4.631   8.393
13185WAT     H239798   5.354   4.602   8.382
13186WAT      O39799   9.048   3.434   8.615
13186WAT     H139800   9.013   3.517   8.657
13186WAT     H239801   9.022   3.431   8.519
13187WAT      O39802   0.405   8.367   1.995
13187WAT     H139803   0.380   8.461   1.971
13187WAT     H239804   0.449   8.366   2.085
13188WAT      O39805   7.975   6.906   9.790
13188WAT     H139806   7.876   6.907   9.805
13188WAT     H239807   8.000   6.829   9.733
13189WAT      O39808   0.314   8.224   7.432
13189WAT     H139809   0.214   8.221   7.431
13189WAT     H239810   0.351   8.136   7.462
13190WAT      O39811   2.868   2.452   2.652
13190WAT     H139812   2.788   2.395   2.634
13190WAT     H239813   2.856   2.499   2.740
13191WAT      O39814   8.789   7.831   7.761
13191WAT     H139815   8.730   7.909   7.781
13191WAT     H239816   8.733   7.748   7.752
13192WAT      O39817   0.425   5.074   9.336
13192WAT     H139818   0.437   5.066   9.237
13192WAT     H239819   0.513   5.062   9.381
13193WAT      O39820   2.432   3.475   0.539
13193WAT     H139821   2.355   3.422   0.576
13193WAT     H239822   2.499   3.412   0.498
13194WAT      O39823   2.258   1.574   7.742
13194WAT     H139824   2.206   1.502   7.697
13194WAT     H239825   2.227   1.663   7.708
13195WAT      O39826   0.283   0.401   6.432
13195WAT     H139827   0.187   0.428   6.437
13195WAT     H239828   0.300   0.353   6.345
13196WAT      O39829   4.615   1.217   5.537
13196WAT     H139830   4.580   1.154   5.606
13196WAT     H239831   4.556   1.213   5.456
13197WAT      O39832   3.047   5.175   6.380
13197WAT     H139833   3.013   5.137   6.465
13197WAT     H239834   2.991   5.254   6.354
13198WAT      O39835   3.759   9.621   5.367
13198WAT     H139836   3.844   9.654   5.408
13198WAT     H239837   3.774   9.603   5.270
13199WAT      O39838   0.169   0.027   7.604
13199WAT     H139839   0.088   0.054   7.552
13199WAT     H239840   0.189   0.097   7.673
13200WAT      O39841   5.284   8.547   9.557
13200WAT     H139842   5.311   8.593   9.472
13200WAT     H239843   5.339   8.582   9.633
13201WAT      O39844   4.294   2.049   7.189
13201WAT     H139845   4.232   1.988   7.141
13201WAT     H239846   4.374   1.998   7.220
13202WAT      O39847   9.245   5.852   3.915
13202WAT     H139848   9.259   5.829   4.012
13202WAT     H239849   9.328   5.829   3.864
13203WAT      O39850   4.913   5.307   3.168
13203WAT     H139851   4.938   5.210   3.161
13203WAT     H239852   4.836   5.317   3.231
13204WAT      O39853   3.057   5.046   2.623
13204WAT     H139854   2.977   5.000   2.662
13204WAT     H239855   3.045   5.056   2.524
13205WAT      O39856   0.967   1.566   3.306
13205WAT     H139857   0.945   1.630   3.233
13205WAT     H239858   0.883   1.522   3.339
13206WAT      O39859   3.223   1.446   4.075
13206WAT     H139860   3.176   1.365   4.040
13206WAT     H239861   3.256   1.501   3.998
13207WAT      O39862   0.059   8.323   8.524
13207WAT     H139863   0.151   8.289   8.543
13207WAT     H239864   0.005   8.322   8.608
13208WAT      O39865   2.970   7.054   4.727
13208WAT     H139866   2.928   6.967   4.701
13208WAT     H239867   2.904   7.110   4.776
13209WAT      O39868   7.085   4.513   5.540
13209WAT     H139869   7.092   4.557   5.629
13209WAT     H239870   7.067   4.582   5.470
13210WAT      O39871   0.830   2.154   1.183
13210WAT     H139872   0.764   2.136   1.256
13210WAT     H239873   0.816   2.247   1.148
13211WAT      O39874   1.653   6.110   8.498
13211WAT     H139875   1.653   6.010   8.497
13211WAT     H239876   1.710   6.144   8.424
13212WAT      O39877   7.856   6.105   9.370
13212WAT     H139878   7.837   6.023   9.315
13212WAT     H239879   7.905   6.078   9.454
13213WAT      O39880   2.281   3.975   7.023
13213WAT     H139881   2.204   3.999   6.964
13213WAT     H239882   2.316   4.058   7.067
13214WAT      O39883   5.830   5.730   7.566
13214WAT     H139884   5.791   5.786   7.639
13214WAT     H239885   5.922   5.762   7.545
13215WAT      O39886   6.796   5.078   5.720
13215WAT     H139887   6.891   5.086   5.688
13215WAT     H239888   6.734   5.088   5.642
13216WAT      O39889   6.098   9.102   1.711
13216WAT     H139890   6.037   9.182   1.708
13216WAT     H239891   6.058   9.032   1.771
13217WAT      O39892   8.579   2.977   7.952
13217WAT     H139893   8.651   2.917   7.917
13217WAT     H239894   8.614   3.027   8.032
13218WAT      O39895   6.415   7.896   7.021
13218WAT     H139896   6.427   7.970   7.087
13218WAT     H239897   6.415   7.934   6.928
13219WAT      O39898   9.089   3.704   8.725
13219WAT     H139899   8.996   3.711   8.761
13219WAT     H239900   9.155   3.702   8.800
13220WAT      O39901   1.334   3.956   4.836
13220WAT     H139902   1.263   3.886   4.844
13220WAT     H239903   1.407   3.936   4.902
13221WAT      O39904   7.507   6.460   1.597
13221WAT     H139905   7.508   6.501   1.688
13221WAT     H239906   7.430   6.496   1.545
13222WAT      O39907   3.091   2.417   6.043
13222WAT     H139908   3.078   2.325   6.079
13222WAT     H239909   3.161   2.416   5.971
13223WAT      O39910   4.227   1.191   0.726
13223WAT     H139911   4.132   1.197   0.758
13223WAT     H239912   4.249   1.274   0.675
13224WAT      O39913   1.137   3.195   9.112
13224WAT     H139914   1.174   3.108   9.145
13224WAT     H239915   1.175   3.270   9.167
13225WAT      O39916   5.480   9.200   2.666
13225WAT     H139917   5.563   9.167   2.711
13225WAT     H239918   5.486   9.300   2.655
13226WAT      O39919   1.292   7.413   7.828
13226WAT     H139920   1.333   7.363   7.904
13226WAT     H239921   1.338   7.502   7.817
13227WAT      O39922   7.375   6.201   0.765
13227WAT     H139923   7.420   6.151   0.840
13227WAT     H239924   7.394   6.154   0.679
13228WAT      O39925   0.732   2.161   2.633
13228WAT     H139926   0.651   2.212   2.663
13228WAT     H239927   0.793   2.146   2.712
13229WAT      O39928   4.812   1.438   0.409
13229WAT     H139929   4.788   1.510   0.474
13229WAT     H239930   4.820   1.351   0.458
13230WAT      O39931   2.510   5.745   2.943
13230WAT     H139932   2.412   5.737   2.929
13230WAT     H239933   2.554   5.762   2.854
13231WAT      O39934   6.140   3.486   8.435
13231WAT     H139935   6.139   3.431   8.519
13231WAT     H239936   6.217   3.457   8.377
13232WAT      O39937   1.237   6.780   7.322
13232WAT     H139938   1.261   6.719   7.246
13232WAT     H239939   1.164   6.842   7.294
13233WAT      O39940   6.837   7.185   6.664
13233WAT     H139941   6.846   7.134   6.749
13233WAT     H239942   6.837   7.122   6.586
13234WAT      O39943   3.324   1.491   8.999
13234WAT     H139944   3.282   1.551   8.930
13234WAT     H239945   3.331   1.540   9.086
13235WAT      O39946   7.222   1.175   7.154
13235WAT     H139947   7.139   1.162   7.208
13235WAT     H239948   7.241   1.273   7.145
13236WAT      O39949   8.341   1.452   5.949
13236WAT     H139950   8.389   1.521   6.003
13236WAT     H239951   8.409   1.392   5.905
13237WAT      O39952   7.256   7.609   8.974
13237WAT     H139953   7.264   7.705   9.002
13237WAT     H239954   7.175   7.597   8.917
13238WAT      O39955   8.427   8.597   7.505
13238WAT     H139956   8.435   8.524   7.437
13238WAT     H239957   8.352   8.577   7.568
13239WAT      O39958   7.972   5.670   3.134
13239WAT     H139959   7.970   5.574   3.107
13239WAT     H239960   7.914   5.724   3.073
13240WAT      O39961   3.074   3.924   5.265
13240WAT     H139962   3.156   3.916   5.208
13240WAT     H239963   3.056   4.021   5.284
13241WAT      O39964   2.349   6.182   1.909
13241WAT     H139965   2.416   6.110   1.927
13241WAT     H239966   2.276   6.178   1.976
13242WAT      O39967   9.286   1.833   1.572
13242WAT     H139968   9.298   1.818   1.474
13242WAT     H239969   9.364   1.887   1.607
13243WAT      O39970   4.015   1.222   8.211
13243WAT     H139971   3.965   1.285   8.270
13243WAT     H239972   3.952   1.178   8.147
13244WAT      O39973   6.204   4.747   7.637
13244WAT     H139974   6.197   4.719   7.733
13244WAT     H239975   6.159   4.678   7.579
13245WAT      O39976   4.194   8.686   1.950
13245WAT     H139977   4.098   8.684   1.976
13245WAT     H239978   4.209   8.628   1.870
13246WAT      O39979   5.009   7.638   4.019
13246WAT     H139980   4.972   7.549   3.993
13246WAT     H239981   5.102   7.626   4.054
13247WAT      O39982   9.097   3.178   2.338
13247WAT     H139983   9.008   3.158   2.298
13247WAT     H239984   9.108   3.127   2.423
13248WAT      O39985   6.242   0.459   9.132
13248WAT     H139986   6.153   0.485   9.094
13248WAT     H239987   6.307   0.443   9.058
13249WAT      O39988   2.304   9.584   3.407
13249WAT     H139989   2.221   9.617   3.453
13249WAT     H239990   2.367   9.547   3.475
13250WAT      O39991   7.712   3.937   3.722
13250WAT     H139992   7.719   3.859   3.784
13250WAT     H239993   7.619   3.973   3.724
13251WAT      O39994   4.909   6.608   9.074
13251WAT     H139995   4.994   6.645   9.111
13251WAT     H239996   4.915   6.508   9.070
13252WAT      O39997   5.729   7.580   1.598
13252WAT     H139998   5.687   7.644   1.662
13252WAT     H239999   5.816   7.616   1.566
13253WAT      O40000   2.222   3.013   3.380
13253WAT     H140001   2.304   3.058   3.416
13253WAT     H240002   2.143   3.041   3.435
13254WAT      O40003   7.825   0.020   7.597
13254WAT     H140004   7.743   0.077   7.594
13254WAT     H240005   7.798  -0.076   7.603
13255WAT      O40006   3.112   0.029   7.038
13255WAT     H140007   3.149   0.039   7.131
13255WAT     H240008   3.153  -0.051   6.994
13256WAT      O40009   9.753   2.160   1.154
13256WAT     H140010   9.852   2.169   1.144
13256WAT     H240011   9.714   2.249   1.177
13257WAT      O40012   8.773   6.395   7.047
13257WAT     H140013   8.848   6.455   7.076
13257WAT     H240014   8.806   6.332   6.976
13258WAT      O40015   1.173   5.114   2.493
13258WAT     H140016   1.197   5.211   2.500
13258WAT     H240017   1.238   5.060   2.546
13259WAT      O40018   3.314   1.941   2.759
13259WAT     H140019   3.239   2.004   2.779
13259WAT     H240020   3.293   1.852   2.800
13260WAT      O40021   0.245   9.589   3.308
13260WAT     H140022   0.246   9.526   3.230
13260WAT     H240023   0.269   9.540   3.391
13261WAT      O40024   6.215   9.129   4.145
13261WAT     H140025   6.262   9.061   4.202
13261WAT     H240026   6.229   9.220   4.185
13262WAT      O40027   2.150   1.258   2.389
13262WAT     H140028   2.236   1.267   2.339
13262WAT     H240029   2.135   1.340   2.443
13263WAT      O40030   5.782   9.676   6.773
13263WAT     H140031   5.815   9.582   6.775
13263WAT     H240032   5.859   9.738   6.755
13264WAT      O40033   3.258   5.765   2.867
13264WAT     H140034   3.280   5.684   2.922
13264WAT     H240035   3.199   5.738   2.791
13265WAT      O40036   8.890   3.888   1.220
13265WAT     H140037   8.876   3.919   1.314
13265WAT     H240038   8.813   3.831   1.192
13266WAT      O40039   5.615   0.990   3.086
13266WAT     H140040   5.650   0.909   3.133
13266WAT     H240041   5.692   1.049   3.060
13267WAT      O40042   8.584   9.574   5.028
13267WAT     H140043   8.668   9.627   5.038
13267WAT     H240044   8.566   9.558   4.931
13268WAT      O40045   5.473   2.134   0.001
13268WAT     H140046   5.568   2.137  -0.029
13268WAT     H240047   5.459   2.053   0.059
13269WAT      O40048   3.640   9.130   6.229
13269WAT     H140049   3.567   9.193   6.255
13269WAT     H240050   3.729   9.175   6.242
13270WAT      O40051   4.093   4.865   0.587
13270WAT     H140052   4.080   4.948   0.533
13270WAT     H240053   4.140   4.796   0.532
13271WAT      O40054   3.150   8.052   9.405
13271WAT     H140055   3.182   8.146   9.410
13271WAT     H240056   3.050   8.051   9.408
13272WAT      O40057   4.693   9.197   5.882
13272WAT     H140058   4.734   9.179   5.793
13272WAT     H240059   4.737   9.140   5.952
13273WAT      O40060   3.023   9.629   8.803
13273WAT     H140061   3.105   9.590   8.763
13273WAT     H240062   3.006   9.719   8.763
13274WAT      O40063   4.138   3.972   9.178
13274WAT     H140064   4.236   3.984   9.192
13274WAT     H240065   4.122   3.902   9.108
13275WAT      O40066   4.668   0.933   5.159
13275WAT     H140067   4.732   1.002   5.192
13275WAT     H240068   4.690   0.908   5.064
13276WAT      O40069   1.087   8.525   2.128
13276WAT     H140070   0.990   8.515   2.152
13276WAT     H240071   1.111   8.458   2.058
13277WAT      O40072   8.904   9.540   2.450
13277WAT     H140073   8.891   9.639   2.441
13277WAT     H240074   8.853   9.493   2.378
13278WAT      O40075   5.854   3.129   3.578
13278WAT     H140076   5.923   3.062   3.547
13278WAT     H240077   5.763   3.091   3.565
13279WAT      O40078   7.186   2.567   0.707
13279WAT     H140079   7.144   2.513   0.780
13279WAT     H240080   7.150   2.660   0.710
13280WAT      O40081   7.759   3.157   5.987
13280WAT     H140082   7.770   3.237   5.927
13280WAT     H240083   7.714   3.084   5.937
13281WAT      O40084   3.255   6.567   8.500
13281WAT     H140085   3.295   6.653   8.468
13281WAT     H240086   3.282   6.492   8.439
13282WAT      O40087   3.649   1.776   0.708
13282WAT     H140088   3.659   1.809   0.802
13282WAT     H240089   3.708   1.696   0.694
13283WAT      O40090   9.540   3.378   3.591
13283WAT     H140091   9.547   3.367   3.491
13283WAT     H240092   9.574   3.296   3.636
13284WAT      O40093   7.097   6.439   9.232
13284WAT     H140094   7.002   6.461   9.211
13284WAT     H240095   7.137   6.386   9.157
13285WAT      O40096   1.413   5.160   5.573
13285WAT     H140097   1.381   5.238   5.521
13285WAT     H240098   1.491   5.117   5.526
13286WAT      O40099   7.064   4.360   8.215
13286WAT     H140100   7.124   4.346   8.136
13286WAT     H240101   7.034   4.455   8.217
13287WAT      O40102   1.630   1.115   1.922
13287WAT     H140103   1.713   1.096   1.871
13287WAT     H240104   1.550   1.089   1.868
13288WAT      O40105   3.222   3.429   6.110
13288WAT     H140106   3.180   3.392   6.027
13288WAT     H240107   3.207   3.528   6.114
13289WAT      O40108   4.129   7.643   0.428
13289WAT     H140109   4.196   7.621   0.357
13289WAT     H240110   4.101   7.560   0.474
13290WAT      O40111   2.110   7.882   4.663
13290WAT     H140112   2.148   7.871   4.571
13290WAT     H240113   2.025   7.934   4.658
13291WAT      O40114   6.377   8.893   1.784
13291WAT     H140115   6.389   8.955   1.861
13291WAT     H240116   6.288   8.849   1.790
13292WAT      O40117   0.600   1.605   4.958
13292WAT     H140118   0.551   1.673   5.011
13292WAT     H240119   0.682   1.646   4.918
13293WAT      O40120   3.707   9.698   8.910
13293WAT     H140121   3.699   9.628   8.981
13293WAT     H240122   3.620   9.705   8.861
13294WAT      O40123   8.922   8.212   4.979
13294WAT     H140124   8.906   8.193   5.076
13294WAT     H240125   8.976   8.138   4.939
13295WAT      O40126   1.768   7.453   1.172
13295WAT     H140127   1.685   7.410   1.206
13295WAT     H240128   1.810   7.507   1.245
13296WAT      O40129   0.196   9.679   0.236
13296WAT     H140130   0.099   9.673   0.259
13296WAT     H240131   0.232   9.587   0.218
13297WAT      O40132   4.498   0.313   2.633
13297WAT     H140133   4.593   0.317   2.605
13297WAT     H240134   4.461   0.406   2.642
13298WAT      O40135   1.131   6.034   8.599
13298WAT     H140136   1.213   6.064   8.550
13298WAT     H240137   1.086   6.113   8.640
13299WAT      O40138   2.971   0.236   6.881
13299WAT     H140139   3.016   0.168   6.940
13299WAT     H240140   2.992   0.328   6.915
13300WAT      O40141   4.911   4.143   1.240
13300WAT     H140142   4.965   4.074   1.192
13300WAT     H240143   4.925   4.133   1.339
13301WAT      O40144   2.683   5.379   7.124
13301WAT     H140145   2.643   5.465   7.157
13301WAT     H240146   2.610   5.313   7.108
13302WAT      O40147   6.847   8.649   1.244
13302WAT     H140148   6.759   8.609   1.267
13302WAT     H240149   6.835   8.747   1.225
13303WAT      O40150   4.314   9.827   2.935
13303WAT     H140151   4.369   9.862   2.860
13303WAT     H240152   4.346   9.735   2.961
13304WAT      O40153   2.694   7.637   5.262
13304WAT     H140154   2.618   7.588   5.303
13304WAT     H240155   2.771   7.639   5.327
13305WAT      O40156   8.434   9.743   8.892
13305WAT     H140157   8.421   9.651   8.929
13305WAT     H240158   8.527   9.774   8.913
13306WAT      O40159   5.408   0.886   0.987
13306WAT     H140160   5.435   0.931   0.902
13306WAT     H240161   5.483   0.828   1.020
13307WAT      O40162   6.040   7.049   9.199
13307WAT     H140163   5.969   7.109   9.236
13307WAT     H240164   6.127   7.099   9.198
13308WAT      O40165   9.302   0.089   7.920
13308WAT     H140166   9.271   0.160   7.983
13308WAT     H240167   9.271  -0.000   7.952
13309WAT      O40168   1.221   0.525   6.450
13309WAT     H140169   1.176   0.440   6.425
13309WAT     H240170   1.160   0.580   6.507
13310WAT      O40171   5.974   2.344   5.601
13310WAT     H140172   6.045   2.320   5.535
13310WAT     H240173   5.924   2.424   5.568
13311WAT      O40174   7.595   3.968   1.235
13311WAT     H140175   7.654   4.021   1.174
13311WAT     H240176   7.500   3.974   1.202
13312WAT      O40177   7.917   1.176   8.617
13312WAT     H140178   7.928   1.158   8.715
13312WAT     H240179   7.824   1.153   8.589
13313WAT      O40180   8.350   8.512   1.640
13313WAT     H140181   8.403   8.593   1.662
13313WAT     H240182   8.394   8.464   1.563
13314WAT      O40183   1.420   0.464   0.350
13314WAT     H140184   1.437   0.372   0.315
13314WAT     H240185   1.437   0.531   0.278
13315WAT      O40186   7.974   2.846   5.915
13315WAT     H140187   8.000   2.916   5.849
13315WAT     H240188   8.053   2.790   5.937
13316WAT      O40189   1.878   3.782   2.314
13316WAT     H140190   1.913   3.692   2.341
13316WAT     H240191   1.855   3.781   2.217
13317WAT      O40192   9.414   9.375   9.727
13317WAT     H140193   9.431   9.361   9.824
13317WAT     H240194   9.461   9.458   9.696
13318WAT      O40195   2.286   0.005   0.340
13318WAT     H140196   2.347  -0.025   0.414
13318WAT     H240197   2.333  -0.001   0.253
13319WAT      O40198   8.935   9.364   8.052
13319WAT     H140199   8.840   9.395   8.043
13319WAT     H240200   8.945   9.314   8.138
13320WAT      O40201   8.965   8.663   6.544
13320WAT     H140202   8.893   8.614   6.495
13320WAT     H240203   8.989   8.746   6.493
13321WAT      O40204   8.649   2.053   2.700
13321WAT     H140205   8.663   2.105   2.615
13321WAT     H240206   8.713   1.976   2.702
13322WAT      O40207   8.749   9.515   0.862
13322WAT     H140208   8.710   9.434   0.907
13322WAT     H240209   8.691   9.540   0.784
13323WAT      O40210   5.001   9.424   5.384
13323WAT     H140211   4.927   9.360   5.405
13323WAT     H240212   4.990   9.457   5.290
13324WAT      O40213   5.247   4.664   1.444
13324WAT     H140214   5.167   4.663   1.505
13324WAT     H240215   5.308   4.589   1.469
13325WAT      O40216   8.036   9.719   7.780
13325WAT     H140217   8.135   9.729   7.775
13325WAT     H240218   7.992   9.802   7.745
13326WAT      O40219   4.884   9.192   6.901
13326WAT     H140220   4.795   9.234   6.917
13326WAT     H240221   4.911   9.205   6.806
13327WAT      O40222   8.543   1.967   3.047
13327WAT     H140223   8.520   1.906   2.971
13327WAT     H240224   8.634   1.945   3.080
13328WAT      O40225   0.557   1.221   2.760
13328WAT     H140226   0.510   1.252   2.843
13328WAT     H240227   0.594   1.130   2.775
13329WAT      O40228   0.811   1.492   9.758
13329WAT     H140229   0.894   1.477   9.703
13329WAT     H240230   0.809   1.426   9.833
13330WAT      O40231   0.520   6.347   6.946
13330WAT     H140232   0.489   6.331   7.039
13330WAT     H240233   0.447   6.390   6.893
13331WAT      O40234   1.967   0.686   2.524
13331WAT     H140235   2.034   0.705   2.595
13331WAT     H240236   1.938   0.772   2.482
13332WAT      O40237   3.182   6.908   9.643
13332WAT     H140238   3.258   6.970   9.662
13332WAT     H240239   3.163   6.852   9.724
13333WAT      O40240   6.597   4.533   0.252
13333WAT     H140241   6.643   4.450   0.219
13333WAT     H240242   6.609   4.607   0.186
13334WAT      O40243   2.384   0.990   7.811
13334WAT     H140244   2.311   1.058   7.798
13334WAT     H240245   2.468   1.023   7.769
13335WAT      O40246   5.343   8.836   5.178
13335WAT     H140247   5.256   8.850   5.133
13335WAT     H240248   5.400   8.918   5.169
13336WAT      O40249   8.422   9.710   1.080
13336WAT     H140250   8.368   9.789   1.109
13336WAT     H240251   8.363   9.647   1.029
13337WAT      O40252   5.021   1.921   6.543
13337WAT     H140253   5.083   1.975   6.486
13337WAT     H240254   5.055   1.917   6.637
13338WAT      O40255   3.979   4.302   5.699
13338WAT     H140256   3.896   4.272   5.745
13338WAT     H240257   4.047   4.229   5.703
13339WAT      O40258   2.792   3.708   3.694
13339WAT     H140259   2.837   3.673   3.776
13339WAT     H240260   2.694   3.721   3.713
13340WAT      O40261   2.402   9.418   3.627
13340WAT     H140262   2.324   9.364   3.596
13340WAT     H240263   2.382   9.459   3.716
13341WAT      O40264   7.971   8.942   4.815
13341WAT     H140265   8.002   8.976   4.727
13341WAT     H240266   7.949   8.844   4.807
13342WAT      O40267   7.490   6.379   9.568
13342WAT     H140268   7.410   6.359   9.624
13342WAT     H240269   7.462   6.424   9.484
13343WAT      O40270   9.469   0.777   4.866
13343WAT     H140271   9.458   0.701   4.930
13343WAT     H240272   9.449   0.746   4.773
13344WAT      O40273   8.890   0.590   9.166
13344WAT     H140274   8.975   0.538   9.176
13344WAT     H240275   8.911   0.684   9.140
13345WAT      O40276   7.003   0.048   1.730
13345WAT     H140277   6.995   0.116   1.803
13345WAT     H240278   6.915   0.005   1.714
13346WAT      O40279   7.600   8.089   7.205
13346WAT     H140280   7.613   8.007   7.150
13346WAT     H240281   7.672   8.094   7.274
13347WAT      O40282   6.616   3.739   0.530
13347WAT     H140283   6.618   3.686   0.445
13347WAT     H240284   6.523   3.740   0.566
13348WAT      O40285   8.410   4.160   7.760
13348WAT     H140286   8.441   4.090   7.697
13348WAT     H240287   8.326   4.202   7.725
13349WAT      O40288   9.022   3.641   0.599
13349WAT     H140289   9.075   3.719   0.566
13349WAT     H240290   9.077   3.587   0.663
13350WAT      O40291   7.965   2.370   6.747
13350WAT     H140292   7.942   2.386   6.843
13350WAT     H240293   7.971   2.457   6.699
13351WAT      O40294   1.218   0.991   7.951
13351WAT     H140295   1.182   1.071   8.000
13351WAT     H240296   1.227   0.915   8.015
13352WAT      O40297   1.778   9.156   1.740
13352WAT     H140298   1.756   9.143   1.643
13352WAT     H240299   1.739   9.243   1.771
13353WAT      O40300   9.173   4.408   2.390
13353WAT     H140301   9.079   4.380   2.371
13353WAT     H240302   9.175   4.472   2.466
13354WAT      O40303   0.276   7.921   8.502
13354WAT     H140304   0.252   7.861   8.579
13354WAT     H240305   0.296   7.865   8.422
13355WAT      O40306   2.962   4.666   9.427
13355WAT     H140307   2.895   4.732   9.391
13355WAT     H240308   3.052   4.684   9.386
13356WAT      O40309   2.451   3.143   5.929
13356WAT     H140310   2.366   3.151   5.878
13356WAT     H240311   2.528   3.163   5.868
13357WAT      O40312   4.568   6.392   7.450
13357WAT     H140313   4.498   6.359   7.513
13357WAT     H240314   4.597   6.483   7.477
13358WAT      O40315   0.978   8.744   1.522
13358WAT     H140316   1.070   8.771   1.495
13358WAT     H240317   0.917   8.747   1.443
13359WAT      O40318   6.533   4.812   3.371
13359WAT     H140319   6.487   4.773   3.451
13359WAT     H240320   6.578   4.898   3.397
13360WAT      O40321   5.070   2.354   7.554
13360WAT     H140322   4.986   2.402   7.581
13360WAT     H240323   5.067   2.260   7.587
13361WAT      O40324   9.160   3.680   9.743
13361WAT     H140325   9.206   3.592   9.739
13361WAT     H240326   9.110   3.696   9.658
13362WAT      O40327   4.196   6.876   1.252
13362WAT     H140328   4.145   6.864   1.166
13362WAT     H240329   4.189   6.792   1.306
13363WAT      O40330   7.381   6.063   5.475
13363WAT     H140331   7.338   5.980   5.512
13363WAT     H240332   7.319   6.140   5.487
13364WAT      O40333   6.208   2.406   1.721
13364WAT     H140334   6.289   2.359   1.755
13364WAT     H240335   6.214   2.504   1.743
13365WAT      O40336   3.493   2.461   1.890
13365WAT     H140337   3.568   2.415   1.842
13365WAT     H240338   3.500   2.442   1.988
13366WAT      O40339   6.222   9.365   6.570
13366WAT     H140340   6.256   9.271   6.569
13366WAT     H240341   6.258   9.415   6.491
13367WAT      O40342   6.478   6.997   3.393
13367WAT     H140343   6.528   7.028   3.312
13367WAT     H240344   6.543   6.973   3.465
13368WAT      O40345   8.955   1.192   6.737
13368WAT     H140346   8.985   1.098   6.723
13368WAT     H240347   9.030   1.254   6.713
13369WAT      O40348   3.430   4.226   3.591
13369WAT     H140349   3.499   4.174   3.541
13369WAT     H240350   3.433   4.201   3.688
13370WAT      O40351   6.319   9.095   0.378
13370WAT     H140352   6.389   9.039   0.423
13370WAT     H240353   6.229   9.069   0.411
13371WAT      O40354   2.489   2.528   7.046
13371WAT     H140355   2.439   2.505   7.130
13371WAT     H240356   2.558   2.458   7.028
13372WAT      O40357   3.249   8.282   7.940
13372WAT     H140358   3.266   8.287   7.842
13372WAT     H240359   3.206   8.195   7.963
13373WAT      O40360   7.562   7.021   6.642
13373WAT     H140361   7.479   6.966   6.631
13373WAT     H240362   7.543   7.116   6.621
13374WAT      O40363   9.372   7.103   4.477
13374WAT     H140364   9.452   7.106   4.417
13374WAT     H240365   9.291   7.131   4.425
13375WAT      O40366   6.642   1.800   5.106
13375WAT     H140367   6.572   1.815   5.176
13375WAT     H240368   6.623   1.716   5.056
13376WAT      O40369   4.593   5.507   4.787
13376WAT     H140370   4.584   5.422   4.734
13376WAT     H240371   4.511   5.522   4.842
13377WAT      O40372   4.162   2.923   8.838
13377WAT     H140373   4.134   2.980   8.761
13377WAT     H240374   4.248   2.958   8.875
13378WAT      O40375   4.030   5.022   3.644
13378WAT     H140376   4.043   4.923   3.644
13378WAT     H240377   3.940   5.044   3.682
13379WAT      O40378   0.473   0.917   1.126
13379WAT     H140379   0.426   0.902   1.213
13379WAT     H240380   0.482   0.830   1.077
13380WAT      O40381   7.822   3.537   2.916
13380WAT     H140382   7.801   3.520   2.819
13380WAT     H240383   7.905   3.593   2.922
13381WAT      O40384   8.018   4.432   0.335
13381WAT     H140385   8.094   4.439   0.271
13381WAT     H240386   8.051   4.446   0.428
13382WAT      O40387   6.670   4.229   2.337
13382WAT     H140388   6.757   4.208   2.382
13382WAT     H240389   6.642   4.152   2.279
13383WAT      O40390   0.316   2.164   4.645
13383WAT     H140391   0.379   2.157   4.568
13383WAT     H240392   0.323   2.081   4.701
13384WAT      O40393   8.619   2.509   8.857
13384WAT     H140394   8.635   2.417   8.894
13384WAT     H240395   8.527   2.515   8.819
13385WAT      O40396   1.270   8.865   9.381
13385WAT     H140397   1.334   8.826   9.314
13385WAT     H240398   1.282   8.964   9.385
13386WAT      O40399   9.339   7.074   1.906
13386WAT     H140400   9.333   7.162   1.858
13386WAT     H240401   9.433   7.058   1.934
13387WAT      O40402   3.167   1.749   5.770
13387WAT     H140403   3.103   1.718   5.840
13387WAT     H240404   3.149   1.845   5.749
13388WAT      O40405   4.874   8.672   6.886
13388WAT     H140406   4.887   8.645   6.981
13388WAT     H240407   4.776   8.679   6.867
13389WAT      O40408   0.047   0.424   4.196
13389WAT     H140409   0.085   0.350   4.251
13389WAT     H240410   0.110   0.501   4.195
13390WAT      O40411   8.801   5.897   5.616
13390WAT     H140412   8.721   5.850   5.578
13390WAT     H240413   8.849   5.945   5.543
13391WAT      O40414   9.207   0.703   0.365
13391WAT     H140415   9.111   0.677   0.358
13391WAT     H240416   9.246   0.660   0.447
13392WAT      O40417   9.186   1.184   3.169
13392WAT     H140418   9.209   1.276   3.201
13392WAT     H240419   9.108   1.189   3.106
13393WAT      O40420   2.965   5.982   3.571
13393WAT     H140421   2.866   5.994   3.584
13393WAT     H240422   3.010   6.071   3.574
13394WAT      O40423   8.082   1.022   3.650
13394WAT     H140424   8.093   0.943   3.712
13394WAT     H240425   7.992   1.063   3.664
13395WAT      O40426   6.968   0.834   4.185
13395WAT     H140427   6.999   0.857   4.093
13395WAT     H240428   7.016   0.892   4.252
13396WAT      O40429   5.135   9.233   4.656
13396WAT     H140430   5.235   9.221   4.661
13396WAT     H240431   5.091   9.159   4.706
13397WAT      O40432   2.094   8.092   8.162
13397WAT     H140433   2.125   8.185   8.183
13397WAT     H240434   2.016   8.096   8.101
13398WAT      O40435   7.623   0.222   8.767
13398WAT     H140436   7.592   0.210   8.861
13398WAT     H240437   7.647   0.318   8.753
13399WAT      O40438   2.599   7.894   8.687
13399WAT     H140439   2.629   7.810   8.642
13399WAT     H240440   2.533   7.941   8.629
13400WAT      O40441   7.691   1.353   7.280
13400WAT     H140442   7.730   1.318   7.365
13400WAT     H240443   7.608   1.404   7.300
13401WAT      O40444   1.355   5.099   8.036
13401WAT     H140445   1.411   5.147   8.105
13401WAT     H240446   1.402   5.102   7.948
13402WAT      O40447   5.702   9.409   7.757
13402WAT     H140448   5.649   9.480   7.803
13402WAT     H240449   5.688   9.416   7.659
13403WAT      O40450   6.999   8.825   3.140
13403WAT     H140451   6.930   8.755   3.161
13403WAT     H240452   6.953   8.909   3.112
13404WAT      O40453   7.089   6.547   1.862
13404WAT     H140454   7.091   6.578   1.767
13404WAT     H240455   7.135   6.458   1.868
13405WAT      O40456   3.970   8.131   9.533
13405WAT     H140457   4.029   8.179   9.597
13405WAT     H240458   4.024   8.063   9.483
13406WAT      O40459   0.834   8.130   7.293
13406WAT     H140460   0.803   8.036   7.284
13406WAT     H240461   0.931   8.132   7.314
13407WAT      O40462   7.731   2.914   0.478
13407WAT     H140463   7.725   2.816   0.458
13407WAT     H240464   7.703   2.930   0.573
13408WAT      O40465   5.704   5.616   1.728
13408WAT     H140466   5.781   5.663   1.683
13408WAT     H240467   5.620   5.635   1.677
13409WAT      O40468   4.434   0.077   8.482
13409WAT     H140469   4.378   0.102   8.560
13409WAT     H240470   4.387   0.008   8.427
13410WAT      O40471   5.374   3.141   8.604
13410WAT     H140472   5.339   3.230   8.573
13410WAT     H240473   5.455   3.117   8.551
13411WAT      O40474   9.510   1.774   8.946
13411WAT     H140475   9.410   1.765   8.947
13411WAT     H240476   9.537   1.844   8.880
13412WAT      O40477   3.977   2.911   6.253
13412WAT     H140478   3.910   2.957   6.311
13412WAT     H240479   4.066   2.955   6.263
13413WAT      O40480   6.911   1.296   8.422
13413WAT     H140481   6.852   1.305   8.342
13413WAT     H240482   6.950   1.385   8.444
13414WAT      O40483   1.223   3.985   8.292
13414WAT     H140484   1.293   3.914   8.302
13414WAT     H240485   1.244   4.042   8.213
13415WAT      O40486   5.014   6.736   1.939
13415WAT     H140487   5.080   6.661   1.932
13415WAT     H240488   4.973   6.752   1.849
13416WAT      O40489   2.229   2.456   5.750
13416WAT     H140490   2.202   2.483   5.657
13416WAT     H240491   2.147   2.448   5.807
13417WAT      O40492   0.069   1.903   8.572
13417WAT     H140493   0.150   1.962   8.576
13417WAT     H240494   0.013   1.917   8.654
13418WAT      O40495   1.430   6.152   4.748
13418WAT     H140496   1.349   6.099   4.723
13418WAT     H240497   1.512   6.110   4.707
13419WAT      O40498   6.250   5.019   0.127
13419WAT     H140499   6.169   5.050   0.077
13419WAT     H240500   6.324   5.086   0.116
13420WAT      O40501   1.484   8.887   3.955
13420WAT     H140502   1.522   8.928   4.038
13420WAT     H240503   1.392   8.854   3.973
13421WAT      O40504   7.778   6.899   3.700
13421WAT     H140505   7.823   6.988   3.702
13421WAT     H240506   7.837   6.830   3.742
13422WAT      O40507   0.178   3.772   4.494
13422WAT     H140508   0.100   3.799   4.437
13422WAT     H240509   0.261   3.814   4.458
13423WAT      O40510   7.584   7.129   5.728
13423WAT     H140511   7.662   7.191   5.720
13423WAT     H240512   7.609   7.052   5.787
13424WAT      O40513   5.679   2.244   8.181
13424WAT     H140514   5.755   2.295   8.222
13424WAT     H240515   5.715   2.175   8.118
13425WAT      O40516   7.925   4.759   9.560
13425WAT     H140517   7.827   4.743   9.575
13425WAT     H240518   7.976   4.732   9.642
13426WAT      O40519   8.333   6.458   9.427
13426WAT     H140520   8.380   6.426   9.510
13426WAT     H240521   8.323   6.381   9.364
13427WAT      O40522   9.272   1.413   0.535
13427WAT     H140523   9.255   1.318   0.561
13427WAT     H240524   9.199   1.445   0.475
13428WAT      O40525   8.572   2.448   1.835
13428WAT     H140526   8.562   2.350   1.823
13428WAT     H240527   8.565   2.472   1.932
13429WAT      O40528   7.941   5.156   4.644
13429WAT     H140529   7.900   5.230   4.591
13429WAT     H240530   7.875   5.083   4.657
13430WAT      O40531   3.666   8.052   0.027
13430WAT     H140532   3.616   8.027  -0.055
13430WAT     H240533   3.731   7.979   0.050
13431WAT      O40534   5.740   7.951   1.253
13431WAT     H140535   5.695   8.035   1.286
13431WAT     H240536   5.793   7.972   1.171
13432WAT      O40537   1.637   5.727   3.542
13432WAT     H140538   1.549   5.692   3.510
13432WAT     H240539   1.707   5.711   3.472
13433WAT      O40540   4.603   7.117   4.923
13433WAT     H140541   4.649   7.095   4.837
13433WAT     H240542   4.504   7.120   4.907
13434WAT      O40543   7.403   2.110   4.017
13434WAT     H140544   7.314   2.071   3.994
13434WAT     H240545   7.473   2.039   4.011
13435WAT      O40546   6.442   8.893   7.651
13435WAT     H140547   6.510   8.924   7.585
13435WAT     H240548   6.351   8.923   7.622
13436WAT      O40549   9.701   5.437   2.746
13436WAT     H140550   9.758   5.513   2.778
13436WAT     H240551   9.630   5.417   2.814
13437WAT      O40552   8.181   9.071   5.225
13437WAT     H140553   8.255   9.044   5.285
13437WAT     H240554   8.166   8.999   5.156
13438WAT      O40555   2.093   1.264   1.482
13438WAT     H140556   2.070   1.354   1.446
13438WAT     H240557   2.098   1.198   1.407
13439WAT      O40558   9.224   3.959   9.573
13439WAT     H140559   9.138   3.909   9.583
13439WAT     H240560   9.226   4.035   9.637
13440WAT      O40561   4.215   8.590   0.350
13440WAT     H140562   4.157   8.669   0.367
13440WAT     H240563   4.220   8.573   0.252
13441WAT      O40564   0.184   9.157   3.237
13441WAT     H140565   0.090   9.167   3.271
13441WAT     H240566   0.207   9.060   3.232
13442WAT      O40567   6.102   5.467   2.799
13442WAT     H140568   6.036   5.393   2.782
13442WAT     H240569   6.175   5.433   2.857
13443WAT      O40570   7.913   3.724   0.079
13443WAT     H140571   7.889   3.650   0.141
13443WAT     H240572   7.885   3.811   0.118
13444WAT      O40573   8.180   9.195   2.740
13444WAT     H140574   8.205   9.257   2.666
13444WAT     H240575   8.083   9.205   2.761
13445WAT      O40576   3.672   8.689   2.251
13445WAT     H140577   3.765   8.691   2.288
13445WAT     H240578   3.633   8.781   2.254
13446WAT      O40579   6.161   3.856   9.105
13446WAT     H140580   6.136   3.897   9.018
13446WAT     H240581   6.109   3.899   9.179
13447WAT      O40582   5.230   3.617   1.516
13447WAT     H140583   5.138   3.583   1.496
13447WAT     H240584   5.229   3.668   1.602
13448WAT      O40585   0.843   6.237   1.881
13448WAT     H140586   0.904   6.204   1.953
13448WAT     H240587   0.783   6.308   1.918
13449WAT      O40588   1.251   4.279   2.279
13449WAT     H140589   1.165   4.277   2.329
13449WAT     H240590   1.245   4.215   2.202
13450WAT      O40591   3.246   0.684   1.361
13450WAT     H140592   3.195   0.692   1.447
13450WAT     H240593   3.329   0.631   1.377
13451WAT      O40594   0.674   2.135   6.489
13451WAT     H140595   0.687   2.162   6.394
13451WAT     H240596   0.711   2.205   6.550
13452WAT      O40597   8.528   5.263   6.994
13452WAT     H140598   8.569   5.241   6.905
13452WAT     H240599   8.433   5.291   6.981
13453WAT      O40600   4.957   3.076   3.494
13453WAT     H140601   4.906   3.137   3.555
13453WAT     H240602   5.041   3.121   3.463
13454WAT      O40603   7.643   1.920   7.947
13454WAT     H140604   7.559   1.883   7.908
13454WAT     H240605   7.722   1.876   7.905
13455WAT      O40606   0.983   9.763   5.636
13455WAT     H140607   0.884   9.754   5.628
13455WAT     H240608   1.025   9.752   5.545
13456WAT      O40609   3.434   1.671   9.729
13456WAT     H140610   3.381   1.754   9.748
13456WAT     H240611   3.532   1.693   9.733
13457WAT      O40612   0.801   9.502   9.274
13457WAT     H140613   0.765   9.594   9.256
13457WAT     H240614   0.802   9.485   9.372
13458WAT      O40615   6.284   8.137   2.056
13458WAT     H140616   6.342   8.115   2.135
13458WAT     H240617   6.313   8.082   1.978
13459WAT      O40618   9.146   5.043   7.089
13459WAT     H140619   9.154   5.124   7.030
13459WAT     H240620   9.234   4.995   7.091
13460WAT      O40621   4.841   2.321   6.091
13460WAT     H140622   4.783   2.334   6.011
13460WAT     H240623   4.918   2.261   6.067
13461WAT      O40624   5.303   6.867   1.975
13461WAT     H140625   5.364   6.907   1.907
13461WAT     H240626   5.261   6.784   1.937
13462WAT      O40627   1.057   7.274   5.036
13462WAT     H140628   1.080   7.339   4.964
13462WAT     H240629   1.130   7.207   5.045
13463WAT      O40630   8.937   4.625   9.671
13463WAT     H140631   8.916   4.723   9.676
13463WAT     H240632   8.873   4.575   9.729
13464WAT      O40633   2.765   8.640   2.315
13464WAT     H140634   2.696   8.607   2.380
13464WAT     H240635   2.761   8.740   2.311
13465WAT      O40636   0.541   4.239   8.290
13465WAT     H140637   0.579   4.330   8.271
13465WAT     H240638   0.507   4.237   8.384
13466WAT      O40639   0.091   4.507   1.499
13466WAT     H140640   0.010   4.547   1.456
13466WAT     H240641   0.132   4.572   1.563
13467WAT      O40642   2.067   0.172   8.095
13467WAT     H140643   2.117   0.223   8.165
13467WAT     H240644   2.123   0.095   8.063
13468WAT      O40645   7.402   4.851   3.061
13468WAT     H140646   7.397   4.751   3.068
13468WAT     H240647   7.398   4.891   3.152
13469WAT      O40648   4.989   6.080   8.436
13469WAT     H140649   4.939   5.993   8.428
13469WAT     H240650   4.960   6.127   8.519
13470WAT      O40651   0.529   1.104   8.737
13470WAT     H140652   0.592   1.179   8.758
13470WAT     H240653   0.581   1.022   8.715
13471WAT      O40654   4.261   9.209   4.353
13471WAT     H140655   4.162   9.209   4.341
13471WAT     H240656   4.292   9.302   4.372
13472WAT      O40657   2.571   1.140   0.745
13472WAT     H140658   2.645   1.092   0.698
13472WAT     H240659   2.542   1.218   0.690
13473WAT      O40660   9.796   0.858   2.901
13473WAT     H140661   9.699   0.882   2.896
13473WAT     H240662   9.806   0.761   2.923
13474WAT      O40663   9.850   3.068   7.772
13474WAT     H140664   9.857   2.993   7.706
13474WAT     H240665   9.800   3.037   7.853
13475WAT      O40666   3.672   8.966   8.328
13475WAT     H140667   3.763   9.008   8.331
13475WAT     H240668   3.669   8.896   8.258
13476WAT      O40669   7.042   7.608   0.796
13476WAT     H140670   7.122   7.551   0.816
13476WAT     H240671   7.041   7.631   0.698
13477WAT      O40672   6.240   4.346   0.813
13477WAT     H140673   6.206   4.361   0.720
13477WAT     H240674   6.280   4.431   0.848
13478WAT      O40675   3.275   2.783   7.214
13478WAT     H140676   3.259   2.880   7.236
13478WAT     H240677   3.237   2.726   7.286
13479WAT      O40678   1.187   7.818   6.317
13479WAT     H140679   1.264   7.774   6.270
13479WAT     H240680   1.126   7.748   6.353
13480WAT      O40681   7.037   4.607   3.845
13480WAT     H140682   7.045   4.679   3.776
13480WAT     H240683   7.048   4.647   3.936
13481WAT      O40684   3.091   5.806   6.232
13481WAT     H140685   3.076   5.784   6.328
13481WAT     H240686   3.189   5.811   6.214
13482WAT      O40687   2.353   6.567   5.604
13482WAT     H140688   2.340   6.479   5.649
13482WAT     H240689   2.264   6.603   5.575
13483WAT      O40690   2.435   8.274   4.404
13483WAT     H140691   2.419   8.330   4.323
13483WAT     H240692   2.504   8.204   4.383
13484WAT      O40693   0.919   2.698   7.764
13484WAT     H140694   0.939   2.729   7.671
13484WAT     H240695   0.972   2.616   7.783
13485WAT      O40696   6.285   0.243   8.248
13485WAT     H140697   6.352   0.201   8.309
13485WAT     H240698   6.326   0.257   8.158
13486WAT      O40699   6.093   6.248   3.826
13486WAT     H140700   6.157   6.185   3.871
13486WAT     H240701   6.128   6.341   3.832
13487WAT      O40702   4.020   0.034   5.268
13487WAT     H140703   3.929   0.067   5.241
13487WAT     H240704   4.014  -0.011   5.357
13488WAT      O40705   9.067   5.344   7.072
13488WAT     H140706   8.973   5.355   7.038
13488WAT     H240707   9.129   5.398   7.016
13489WAT      O40708   6.887   4.761   3.019
13489WAT     H140709   6.920   4.847   3.058
13489WAT     H240710   6.908   4.758   2.921
13490WAT      O40711   8.553   0.741   0.792
13490WAT     H140712   8.488   0.816   0.802
13490WAT     H240713   8.622   0.765   0.724
13491WAT      O40714   7.067   8.390   4.399
13491WAT     H140715   6.992   8.329   4.374
13491WAT     H240716   7.076   8.462   4.331
13492WAT      O40717   8.901   5.150   4.829
13492WAT     H140718   8.834   5.162   4.903
13492WAT     H240719   8.954   5.234   4.818
13493WAT      O40720   0.470   0.156   1.001
13493WAT     H140721   0.542   0.114   1.056
13493WAT     H240722   0.510   0.193   0.917
13494WAT      O40723   1.223   8.057   2.802
13494WAT     H140724   1.215   8.093   2.709
13494WAT     H240725   1.132   8.045   2.841
13495WAT      O40726   5.754   1.273   9.787
13495WAT     H140727   5.686   1.218   9.739
13495WAT     H240728   5.732   1.370   9.775
13496WAT      O40729   2.733   7.098   2.604
13496WAT     H140730   2.750   7.192   2.575
13496WAT     H240731   2.666   7.055   2.543
13497WAT      O40732   1.012   6.141   2.055
13497WAT     H140733   0.998   6.132   2.154
13497WAT     H240734   1.110   6.153   2.036
13498WAT      O40735   2.890   4.686   7.733
13498WAT     H140736   2.803   4.730   7.710
13498WAT     H240737   2.950   4.753   7.777
13499WAT      O40738   1.370   4.634   9.765
13499WAT     H140739   1.356   4.675   9.855
13499WAT     H240740   1.465   4.607   9.755
13500WAT      O40741   5.251   2.412   8.418
13500WAT     H140742   5.282   2.447   8.330
13500WAT     H240743   5.166   2.457   8.444
13501WAT      O40744   2.286   6.479   1.226
13501WAT     H140745   2.298   6.572   1.261
13501WAT     H240746   2.267   6.482   1.128
13502WAT      O40747   5.102   2.156   2.026
13502WAT     H140748   5.009   2.153   1.988
13502WAT     H240749   5.165   2.194   1.958
13503WAT      O40750   2.835   7.696   8.920
13503WAT     H140751   2.741   7.727   8.926
13503WAT     H240752   2.876   7.694   9.011
13504WAT      O40753   5.495   4.562   1.820
13504WAT     H140754   5.552   4.513   1.886
13504WAT     H240755   5.410   4.591   1.866
13505WAT      O40756   6.858   7.464   3.943
13505WAT     H140757   6.862   7.407   4.026
13505WAT     H240758   6.845   7.406   3.863
13506WAT      O40759   7.076   7.622   5.447
13506WAT     H140760   7.066   7.720   5.428
13506WAT     H240761   7.116   7.576   5.369
13507WAT      O40762   9.366   1.847   1.284
13507WAT     H140763   9.402   1.907   1.212
13507WAT     H240764   9.270   1.827   1.265
13508WAT      O40765   4.226   5.024   0.820
13508WAT     H140766   4.277   5.094   0.770
13508WAT     H240767   4.145   4.998   0.767
13509WAT      O40768   5.461   7.282   6.473
13509WAT     H140769   5.479   7.190   6.508
13509WAT     H240770   5.502   7.292   6.382
13510WAT      O40771   6.399   0.803   1.625
13510WAT     H140772   6.351   0.796   1.712
13510WAT     H240773   6.478   0.863   1.635
13511WAT      O40774   2.598   4.082   4.729
13511WAT     H140775   2.505   4.093   4.764
13511WAT     H240776   2.638   4.173   4.713
13512WAT      O40777   6.558   0.569   1.639
13512WAT     H140778   6.647   0.596   1.675
13512WAT     H240779   6.497   0.648   1.636
13513WAT      O40780   3.049   6.858   1.225
13513WAT     H140781   2.969   6.799   1.224
13513WAT     H240782   3.035   6.933   1.160
13514WAT      O40783   4.076   0.285   3.522
13514WAT     H140784   4.171   0.281   3.492
13514WAT     H240785   4.040   0.377   3.507
13515WAT      O40786   9.612   7.367   2.219
13515WAT     H140787   9.640   7.271   2.222
13515WAT     H240788   9.521   7.377   2.259
13516WAT      O40789   4.835   2.651   4.846
13516WAT     H140790   4.927   2.677   4.873
13516WAT     H240791   4.772   2.663   4.924
13517WAT      O40792   6.309   0.010   6.993
13517WAT     H140793   6.342   0.020   7.086
13517WAT     H240794   6.209   0.004   6.993
13518WAT      O40795   4.678   8.065   7.976
13518WAT     H140796   4.641   8.151   8.011
13518WAT     H240797   4.683   7.997   8.050
13519WAT      O40798   8.667   6.705   5.862
13519WAT     H140799   8.738   6.705   5.792
13519WAT     H240800   8.700   6.753   5.943
13520WAT      O40801   4.199   4.667   9.307
13520WAT     H140802   4.166   4.621   9.225
13520WAT     H240803   4.139   4.744   9.329
13521WAT      O40804   4.142   0.450   3.186
13521WAT     H140805   4.191   0.391   3.122
13521WAT     H240806   4.199   0.465   3.267
13522WAT      O40807   3.087   2.759   3.744
13522WAT     H140808   3.172   2.769   3.693
13522WAT     H240809   3.036   2.680   3.710
13523WAT      O40810   7.698   3.599   9.145
13523WAT     H140811   7.600   3.622   9.137
13523WAT     H240812   7.712   3.539   9.223
13524WAT      O40813   3.189   7.098   4.595
13524WAT     H140814   3.195   7.185   4.546
13524WAT     H240815   3.100   7.089   4.638
13525WAT      O40816   4.583   3.482   6.035
13525WAT     H140817   4.522   3.523   6.104
13525WAT     H240818   4.559   3.386   6.023
13526WAT      O40819   2.926   0.770   2.260
13526WAT     H140820   2.881   0.706   2.197
13526WAT     H240821   2.987   0.830   2.207
13527WAT      O40822   6.895   0.030   9.784
13527WAT     H140823   6.959   0.050   9.711
13527WAT     H240824   6.804   0.014   9.745
13528WAT      O40825   3.928   1.362   7.783
13528WAT     H140826   3.932   1.277   7.729
13528WAT     H240827   3.887   1.434   7.728
13529WAT      O40828   6.839   4.000   6.909
13529WAT     H140829   6.744   4.030   6.898
13529WAT     H240830   6.841   3.902   6.930
13530WAT      O40831   3.116   3.985   9.888
13530WAT     H140832   3.058   4.052   9.934
13530WAT     H240833   3.138   4.017   9.796
13531WAT      O40834   7.335   2.977   8.495
13531WAT     H140835   7.422   3.013   8.527
13531WAT     H240836   7.351   2.906   8.427
13532WAT      O40837   6.874   4.124   8.909
13532WAT     H140838   6.822   4.207   8.932
13532WAT     H240839   6.819   4.066   8.849
13533WAT      O40840   1.830   7.271   0.281
13533WAT     H140841   1.761   7.230   0.222
13533WAT     H240842   1.855   7.361   0.246
13534WAT      O40843   8.772   9.304   5.955
13534WAT     H140844   8.708   9.228   5.941
13534WAT     H240845   8.753   9.348   6.042
13535WAT      O40846   8.388   5.362   0.555
13535WAT     H140847   8.474   5.314   0.537
13535WAT     H240848   8.388   5.395   0.650
13536WAT      O40849   2.850   4.411   5.343
13536WAT     H140850   2.909   4.391   5.265
13536WAT     H240851   2.906   4.427   5.424
13537WAT      O40852   9.594   7.223   2.679
13537WAT     H140853   9.605   7.322   2.666
13537WAT     H240854   9.556   7.183   2.595
13538WAT      O40855   6.617   0.858   0.352
13538WAT     H140856   6.523   0.822   0.352
13538WAT     H240857   6.625   0.928   0.423
13539WAT      O40858   1.891   4.646   9.845
13539WAT     H140859   1.821   4.719   9.845
13539WAT     H240860   1.982   4.688   9.848
13540WAT      O40861   9.667   4.362   4.616
13540WAT     H140862   9.724   4.375   4.535
13540WAT     H240863   9.599   4.435   4.621
13541WAT      O40864   9.635   3.322   8.754
13541WAT     H140865   9.633   3.310   8.655
13541WAT     H240866   9.556   3.278   8.795
13542WAT      O40867   7.988   6.307   2.972
13542WAT     H140868   8.064   6.256   2.931
13542WAT     H240869   8.024   6.378   3.031
13543WAT      O40870   4.407   3.671   8.889
13543WAT     H140871   4.356   3.674   8.803
13543WAT     H240872   4.427   3.576   8.913
13544WAT      O40873   7.523   1.462   8.892
13544WAT     H140874   7.547   1.376   8.937
13544WAT     H240875   7.429   1.457   8.857
13545WAT      O40876   3.244   8.031   8.615
13545WAT     H140877   3.224   7.944   8.569
13545WAT     H240878   3.292   8.013   8.700
13546WAT      O40879   2.067   6.778   5.671
13546WAT     H140880   2.032   6.800   5.762
13546WAT     H240881   2.152   6.828   5.655
13547WAT      O40882   2.657   8.680   7.281
13547WAT     H140883   2.716   8.603   7.254
13547WAT     H240884   2.681   8.709   7.373
13548WAT      O40885   3.712   0.299   8.576
13548WAT     H140886   3.716   0.275   8.673
13548WAT     H240887   3.617   0.299   8.545
13549WAT      O40888   5.730   9.774   7.272
13549WAT     H140889   5.821   9.811   7.291
13549WAT     H240890   5.662   9.848   7.275
13550WAT      O40891   2.524   2.057   6.714
13550WAT     H140892   2.455   2.127   6.734
13550WAT     H240893   2.576   2.036   6.797
13551WAT      O40894   8.707   6.097   9.402
13551WAT     H140895   8.718   5.998   9.396
13551WAT     H240896   8.796   6.141   9.390
13552WAT      O40897   4.371   1.147   0.944
13552WAT     H140898   4.321   1.171   0.861
13552WAT     H240899   4.374   1.048   0.954
13553WAT      O40900   2.748   3.040   2.950
13553WAT     H140901   2.692   2.982   2.891
13553WAT     H240902   2.845   3.022   2.933
13554WAT      O40903   4.486   7.430   8.592
13554WAT     H140904   4.460   7.513   8.640
13554WAT     H240905   4.576   7.400   8.624
13555WAT      O40906   7.448   9.028   3.947
13555WAT     H140907   7.546   9.013   3.959
13555WAT     H240908   7.420   8.993   3.857
13556WAT      O40909   5.451   6.907   0.697
13556WAT     H140910   5.470   6.835   0.629
13556WAT     H240911   5.391   6.870   0.768
13557WAT      O40912   1.207   0.755   4.533
13557WAT     H140913   1.182   0.665   4.497
13557WAT     H240914   1.215   0.819   4.457
13558WAT      O40915   3.686   1.219   9.764
13558WAT     H140916   3.602   1.228   9.817
13558WAT     H240917   3.669   1.163   9.683
13559WAT      O40918   9.545   4.079   1.738
13559WAT     H140919   9.478   4.007   1.754
13559WAT     H240920   9.620   4.043   1.683
13560WAT      O40921   9.146   0.716   4.711
13560WAT     H140922   9.213   0.642   4.697
13560WAT     H240923   9.118   0.752   4.622
13561WAT      O40924   5.749   2.331   6.169
13561WAT     H140925   5.846   2.335   6.191
13561WAT     H240926   5.733   2.261   6.100
13562WAT      O40927   3.080   0.910   2.103
13562WAT     H140928   3.132   0.992   2.123
13562WAT     H240929   3.089   0.887   2.006
13563WAT      O40930   1.356   6.652   5.148
13563WAT     H140931   1.403   6.617   5.067
13563WAT     H240932   1.267   6.690   5.122
13564WAT      O40933   1.462   9.145   0.098
13564WAT     H140934   1.420   9.059   0.069
13564WAT     H240935   1.555   9.151   0.062
13565WAT      O40936   5.843   3.321   2.569
13565WAT     H140937   5.809   3.342   2.660
13565WAT     H240938   5.816   3.394   2.505
13566WAT      O40939   9.548   8.131   8.674
13566WAT     H140940   9.571   8.223   8.706
13566WAT     H240941   9.477   8.136   8.604
13567WAT      O40942   0.677   1.810   3.304
13567WAT     H140943   0.762   1.812   3.252
13567WAT     H240944   0.606   1.860   3.253
13568WAT      O40945   6.882   5.654   5.503
13568WAT     H140946   6.930   5.681   5.586
13568WAT     H240947   6.907   5.717   5.429
13569WAT      O40948   8.850   3.510   3.688
13569WAT     H140949   8.847   3.528   3.590
13569WAT     H240950   8.782   3.567   3.734
13570WAT      O40951   1.849   3.795   4.038
13570WAT     H140952   1.843   3.808   3.939
13570WAT     H240953   1.758   3.808   4.079
13571WAT      O40954   7.284   7.560   7.359
13571WAT     H140955   7.238   7.643   7.327
13571WAT     H240956   7.345   7.526   7.288
13572WAT      O40957   7.541   1.635   6.543
13572WAT     H140958   7.526   1.726   6.582
13572WAT     H240959   7.479   1.570   6.587
13573WAT      O40960   8.582   3.053   8.352
13573WAT     H140961   8.538   2.964   8.341
13573WAT     H240962   8.612   3.087   8.263
13574WAT      O40963   1.725   4.414   6.111
13574WAT     H140964   1.749   4.497   6.161
13574WAT     H240965   1.692   4.439   6.020
13575WAT      O40966   2.496   0.949   5.745
13575WAT     H140967   2.430   0.876   5.759
13575WAT     H240968   2.493   0.979   5.650
13576WAT      O40969   2.195   3.328   9.387
13576WAT     H140970   2.166   3.381   9.467
13576WAT     H240971   2.261   3.382   9.334
13577WAT      O40972   6.265   8.953   3.668
13577WAT     H140973   6.331   8.887   3.632
13577WAT     H240974   6.309   9.007   3.740
13578WAT      O40975   8.968   8.314   0.553
13578WAT     H140976   8.870   8.310   0.576
13578WAT     H240977   9.017   8.244   0.604
13579WAT      O40978   2.804   0.115   8.057
13579WAT     H140979   2.760   0.201   8.030
13579WAT     H240980   2.903   0.126   8.057
13580WAT      O40981   8.032   0.719   1.586
13580WAT     H140982   8.028   0.759   1.494
13580WAT     H240983   8.105   0.762   1.638
13581WAT      O40984   8.855   2.250   6.166
13581WAT     H140985   8.764   2.218   6.138
13581WAT     H240986   8.925   2.193   6.123
13582WAT      O40987   3.460   9.025   5.342
13582WAT     H140988   3.553   9.056   5.322
13582WAT     H240989   3.442   9.035   5.440
13583WAT      O40990   0.967   4.040   8.409
13583WAT     H140991   1.057   4.036   8.366
13583WAT     H240992   0.898   4.062   8.341
13584WAT      O40993   3.422   3.764   9.417
13584WAT     H140994   3.453   3.837   9.478
13584WAT     H240995   3.447   3.676   9.456
13585WAT      O40996   8.289   7.851   8.763
13585WAT     H140997   8.389   7.842   8.767
13585WAT     H240998   8.253   7.789   8.693
13586WAT      O40999   8.163   4.680   6.758
13586WAT     H141000   8.094   4.691   6.686
13586WAT     H241001   8.217   4.764   6.765
13587WAT      O41002   4.622   6.862   6.225
13587WAT     H141003   4.711   6.879   6.183
13587WAT     H241004   4.577   6.787   6.177
13588WAT      O41005   5.803   7.977   6.378
13588WAT     H141006   5.828   7.880   6.369
13588WAT     H241007   5.722   7.985   6.436
13589WAT      O41008   5.877   0.913   2.813
13589WAT     H141009   5.859   0.997   2.864
13589WAT     H241010   5.905   0.936   2.720
13590WAT      O41011   8.899   4.504   7.064
13590WAT     H141012   8.940   4.422   7.025
13590WAT     H241013   8.804   4.512   7.034
13591WAT      O41014   9.471   0.504   1.876
13591WAT     H141015   9.399   0.449   1.834
13591WAT     H241016   9.461   0.599   1.847
13592WAT      O41017   2.828   6.118   8.621
13592WAT     H141018   2.782   6.136   8.534
13592WAT     H241019   2.818   6.198   8.681
13593WAT      O41020   9.881   6.099   7.697
13593WAT     H141021   9.848   6.076   7.789
13593WAT     H241022   9.805   6.090   7.632
13594WAT      O41023   8.698   0.071   5.480
13594WAT     H141024   8.646   0.105   5.558
13594WAT     H241025   8.769   0.137   5.455
13595WAT      O41026   3.993   2.800   4.754
13595WAT     H141027   4.058   2.792   4.678
13595WAT     H241028   3.921   2.864   4.729
13596WAT      O41029   5.520   9.802   5.092
13596WAT     H141030   5.498   9.706   5.104
13596WAT     H241031   5.559   9.817   5.001
13597WAT      O41032   8.844   2.475   1.816
13597WAT     H141033   8.865   2.445   1.909
13597WAT     H241034   8.746   2.493   1.808
13598WAT      O41035   3.505   2.689   0.771
13598WAT     H141036   3.543   2.596   0.766
13598WAT     H241037   3.450   2.697   0.854
13599WAT      O41038   2.068   5.453   3.698
13599WAT     H141039   1.974   5.471   3.729
13599WAT     H241040   2.130   5.466   3.775
13600WAT      O41041   2.386   5.542   2.491
13600WAT     H141042   2.319   5.532   2.564
13600WAT     H241043   2.470   5.582   2.528
13601WAT      O41044   1.195   5.840   4.320
13601WAT     H141045   1.225   5.910   4.385
13601WAT     H241046   1.235   5.752   4.345
13602WAT      O41047   7.795   5.432   8.431
13602WAT     H141048   7.719   5.468   8.486
13602WAT     H241049   7.849   5.509   8.395
13603WAT      O41050   2.581   6.669   6.581
13603WAT     H141051   2.554   6.623   6.497
13603WAT     H241052   2.657   6.731   6.563
13604WAT      O41053   9.569   6.690   9.542
13604WAT     H141054   9.496   6.649   9.596
13604WAT     H241055   9.529   6.742   9.467
13605WAT      O41056   6.980   4.923   3.226
13605WAT     H141057   6.957   4.841   3.278
13605WAT     H241058   6.931   5.002   3.263
13606WAT      O41059   4.991   3.254   5.392
13606WAT     H141060   4.902   3.247   5.437
13606WAT     H241061   5.062   3.219   5.453
13607WAT      O41062   2.449   1.763   3.614
13607WAT     H141063   2.361   1.741   3.572
13607WAT     H241064   2.516   1.784   3.542
13608WAT      O41065   5.941   6.064   9.461
13608WAT     H141066   5.914   6.147   9.413
13608WAT     H241067   6.014   6.018   9.410
13609WAT      O41068   5.801   1.557   2.466
13609WAT     H141069   5.737   1.572   2.391
13609WAT     H241070   5.831   1.462   2.466
13610WAT      O41071   8.746   0.149   8.161
13610WAT     H141072   8.811   0.075   8.146
13610WAT     H241073   8.786   0.218   8.221
13611WAT      O41074   4.934   9.041   4.988
13611WAT     H141075   4.842   9.057   4.954
13611WAT     H241076   4.934   9.048   5.088
13612WAT      O41077   1.081   9.067   2.278
13612WAT     H141078   1.146   9.050   2.204
13612WAT     H241079   1.040   8.981   2.307
13613WAT      O41080   5.426   6.400   7.748
13613WAT     H141081   5.473   6.470   7.695
13613WAT     H241082   5.492   6.331   7.778
13614WAT      O41083   4.775   5.563   1.015
13614WAT     H141084   4.797   5.474   1.057
13614WAT     H241085   4.680   5.563   0.985
13615WAT      O41086   9.422   2.574   1.631
13615WAT     H141087   9.465   2.541   1.547
13615WAT     H241088   9.418   2.499   1.697
13616WAT      O41089   8.031   0.717   2.120
13616WAT     H141090   7.968   0.793   2.102
13616WAT     H241091   8.021   0.648   2.048
13617WAT      O41092   2.798   5.495   9.264
13617WAT     H141093   2.787   5.540   9.175
13617WAT     H241094   2.772   5.559   9.336
13618WAT      O41095   2.328   0.107   6.277
13618WAT     H141096   2.374   0.194   6.263
13618WAT     H241097   2.229   0.122   6.285
13619WAT      O41098   3.250   8.471   4.578
13619WAT     H141099   3.274   8.479   4.674
13619WAT     H241100   3.277   8.554   4.529
13620WAT      O41101   5.519   2.926   4.388
13620WAT     H141102   5.589   2.952   4.455
13620WAT     H241103   5.431   2.966   4.414
13621WAT      O41104   3.385   8.467   5.321
13621WAT     H141105   3.337   8.380   5.309
13621WAT     H241106   3.444   8.484   5.242
13622WAT      O41107   4.828   2.227   5.727
13622WAT     H141108   4.869   2.315   5.754
13622WAT     H241109   4.812   2.226   5.629
13623WAT      O41110   0.648   1.620   3.494
13623WAT     H141111   0.653   1.699   3.433
13623WAT     H241112   0.696   1.543   3.452
13624WAT      O41113   1.795   6.347   2.410
13624WAT     H141114   1.812   6.276   2.478
13624WAT     H241115   1.882   6.378   2.372
13625WAT      O41116   7.169   2.149   1.736
13625WAT     H141117   7.198   2.156   1.832
13625WAT     H241118   7.171   2.054   1.707
13626WAT      O41119   3.247   8.330   7.648
13626WAT     H141120   3.180   8.395   7.686
13626WAT     H241121   3.270   8.358   7.555
13627WAT      O41122   3.629   0.697   8.049
13627WAT     H141123   3.716   0.653   8.031
13627WAT     H241124   3.621   0.779   7.992
13628WAT      O41125   9.108   1.655   7.685
13628WAT     H141126   9.009   1.652   7.699
13628WAT     H241127   9.153   1.678   7.771
13629WAT      O41128   5.899   0.268   6.763
13629WAT     H141129   5.932   0.362   6.763
13629WAT     H241130   5.849   0.251   6.849
13630WAT      O41131   1.208   3.875   5.512
13630WAT     H141132   1.118   3.846   5.543
13630WAT     H241133   1.204   3.901   5.416
13631WAT      O41134   6.917   2.247   5.852
13631WAT     H141135   6.935   2.154   5.884
13631WAT     H241136   7.003   2.298   5.847
13632WAT      O41137   6.225   5.557   3.194
13632WAT     H141138   6.283   5.587   3.270
13632WAT     H241139   6.224   5.629   3.124
13633WAT      O41140   4.085   0.369   0.711
13633WAT     H141141   4.055   0.325   0.795
13633WAT     H241142   4.096   0.300   0.639
13634WAT      O41143   0.807   2.392   4.718
13634WAT     H141144   0.813   2.350   4.808
13634WAT     H241145   0.738   2.344   4.663
13635WAT      O41146   5.402   1.143   5.504
13635WAT     H141147   5.413   1.236   5.468
13635WAT     H241148   5.423   1.077   5.432
13636WAT      O41149   6.856   2.452   1.985
13636WAT     H141150   6.891   2.360   1.967
13636WAT     H241151   6.913   2.519   1.938
13637WAT      O41152   6.983   6.124   8.619
13637WAT     H141153   6.902   6.183   8.615
13637WAT     H241154   6.955   6.030   8.639
13638WAT      O41155   4.219   8.028   8.525
13638WAT     H141156   4.279   8.107   8.513
13638WAT     H241157   4.163   8.040   8.607
13639WAT      O41158   2.449   1.138   3.846
13639WAT     H141159   2.524   1.103   3.790
13639WAT     H241160   2.423   1.229   3.814
13640WAT      O41161   2.742   7.126   3.638
13640WAT     H141162   2.813   7.066   3.674
13640WAT     H241163   2.652   7.093   3.668
13641WAT      O41164   7.104   2.849   1.129
13641WAT     H141165   7.183   2.805   1.172
13641WAT     H241166   7.127   2.875   1.035
13642WAT      O41167   2.461   1.181   3.326
13642WAT     H141168   2.536   1.241   3.297
13642WAT     H241169   2.415   1.220   3.404
13643WAT      O41170   2.884   3.947   7.961
13643WAT     H141171   2.947   3.997   8.020
13643WAT     H241172   2.859   4.003   7.883
13644WAT      O41173   6.362   0.752   8.287
13644WAT     H141174   6.418   0.795   8.216
13644WAT     H241175   6.269   0.790   8.284
13645WAT      O41176   5.337   7.011   0.453
13645WAT     H141177   5.256   7.058   0.486
13645WAT     H241178   5.387   6.972   0.531
13646WAT      O41179   0.930   1.849   6.105
13646WAT     H141180   0.865   1.865   6.179
13646WAT     H241181   1.002   1.787   6.136
13647WAT      O41182   6.806   0.204   1.314
13647WAT     H141183   6.889   0.154   1.339
13647WAT     H241184   6.740   0.141   1.273
13648WAT      O41185   7.402   2.275   9.529
13648WAT     H141186   7.407   2.208   9.603
13648WAT     H241187   7.327   2.339   9.547
13649WAT      O41188   3.816   5.228   1.861
13649WAT     H141189   3.752   5.301   1.837
13649WAT     H241190   3.766   5.151   1.899
13650WAT      O41191   7.856   6.308   3.536
13650WAT     H141192   7.954   6.316   3.514
13650WAT     H241193   7.844   6.308   3.636
13651WAT      O41194   0.739   6.999   5.142
13651WAT     H141195   0.768   7.082   5.190
13651WAT     H241196   0.777   7.000   5.049
13652WAT      O41197   4.258   0.233   6.351
13652WAT     H141198   4.226   0.193   6.437
13652WAT     H241199   4.328   0.302   6.370
13653WAT      O41200   3.510   2.219   0.737
13653WAT     H141201   3.469   2.179   0.819
13653WAT     H241202   3.557   2.304   0.762
13654WAT      O41203   7.288   6.987   3.965
13654WAT     H141204   7.301   7.075   4.011
13654WAT     H241205   7.191   6.972   3.948
13655WAT      O41206   2.238   1.622   4.586
13655WAT     H141207   2.198   1.613   4.495
13655WAT     H241208   2.164   1.621   4.654
13656WAT      O41209   8.602   9.319   5.159
13656WAT     H141210   8.585   9.406   5.113
13656WAT     H241211   8.536   9.308   5.234
13657WAT      O41212   2.167   3.930   0.533
13657WAT     H141213   2.244   3.948   0.594
13657WAT     H241214   2.122   3.845   0.561
13658WAT      O41215   0.817   9.359   8.490
13658WAT     H141216   0.811   9.456   8.512
13658WAT     H241217   0.851   9.348   8.396
13659WAT      O41218   2.702   7.548   7.579
13659WAT     H141219   2.668   7.585   7.492
13659WAT     H241220   2.731   7.623   7.638
13660WAT      O41221   2.529   6.362   6.941
13660WAT     H141222   2.606   6.424   6.955
13660WAT     H241223   2.445   6.405   6.976
13661WAT      O41224   3.329   0.933   7.971
13661WAT     H141225   3.315   0.982   8.057
13661WAT     H241226   3.260   0.860   7.962
13662WAT      O41227   7.591   1.240   3.741
13662WAT     H141228   7.545   1.324   3.712
13662WAT     H241229   7.549   1.207   3.826
13663WAT      O41230   1.183   6.586   9.143
13663WAT     H141231   1.192   6.563   9.240
13663WAT     H241232   1.193   6.503   9.088
13664WAT      O41233   2.876   6.548   6.670
13664WAT     H141234   2.864   6.459   6.626
13664WAT     H241235   2.860   6.620   6.603
13665WAT      O41236   0.629   7.106   9.138
13665WAT     H141237   0.670   7.174   9.077
13665WAT     H241238   0.677   7.107   9.226
13666WAT      O41239   0.685   9.626   6.332
13666WAT     H141240   0.631   9.708   6.349
13666WAT     H241241   0.662   9.589   6.242
13667WAT      O41242   3.026   3.980   6.473
13667WAT     H141243   3.089   3.981   6.550
13667WAT     H241244   2.962   4.057   6.481
13668WAT      O41245   6.323   2.619   3.627
13668WAT     H141246   6.318   2.520   3.612
13668WAT     H241247   6.376   2.661   3.553
13669WAT      O41248   3.540   8.021   9.673
13669WAT     H141249   3.441   8.026   9.659
13669WAT     H241250   3.586   8.030   9.585
13670WAT      O41251   7.615   1.945   8.904
13670WAT     H141252   7.648   1.978   8.992
13670WAT     H241253   7.524   1.983   8.887
13671WAT      O41254   4.313   7.268   7.029
13671WAT     H141255   4.324   7.304   6.937
13671WAT     H241256   4.368   7.321   7.093
13672WAT      O41257   3.917   5.760   7.578
13672WAT     H141258   3.847   5.774   7.648
13672WAT     H241259   3.912   5.666   7.543
13673WAT      O41260   1.709   7.988   8.003
13673WAT     H141261   1.662   7.970   8.090
13673WAT     H241262   1.645   8.025   7.937
13674WAT      O41263   9.410   8.338   4.783
13674WAT     H141264   9.449   8.358   4.693
13674WAT     H241265   9.366   8.248   4.781
13675WAT      O41266   2.869   3.290   6.030
13675WAT     H141267   2.889   3.349   6.108
13675WAT     H241268   2.865   3.345   5.947
13676WAT      O41269   9.351   4.404   3.168
13676WAT     H141270   9.252   4.394   3.184
13676WAT     H241271   9.369   4.398   3.070
13677WAT      O41272   2.716   8.825   1.840
13677WAT     H141273   2.683   8.769   1.916
13677WAT     H241274   2.654   8.903   1.827
13678WAT      O41275   5.834   2.918   5.053
13678WAT     H141276   5.901   2.984   5.019
13678WAT     H241277   5.856   2.894   5.147
13679WAT      O41278   0.635   5.076   5.490
13679WAT     H141279   0.712   5.069   5.554
13679WAT     H241280   0.553   5.039   5.532
13680WAT      O41281   4.316   5.540   0.476
13680WAT     H141282   4.399   5.497   0.440
13680WAT     H241283   4.241   5.474   0.475
13681WAT      O41284   0.065   5.486   2.583
13681WAT     H141285   0.000   5.518   2.513
13681WAT     H241286   0.047   5.535   2.669
13682WAT      O41287   2.587   4.963   6.956
13682WAT     H141288   2.660   4.896   6.947
13682WAT     H241289   2.625   5.055   6.944
13683WAT      O41290   2.241   3.771   6.395
13683WAT     H141291   2.186   3.745   6.316
13683WAT     H241292   2.206   3.855   6.435
13684WAT      O41293   8.922   9.048   6.044
13684WAT     H141294   8.911   8.965   5.990
13684WAT     H241295   8.850   9.113   6.021
13685WAT      O41296   4.292   0.981   7.498
13685WAT     H141297   4.299   1.018   7.591
13685WAT     H241298   4.337   0.891   7.495
13686WAT      O41299   1.235   6.655   8.123
13686WAT     H141300   1.182   6.669   8.039
13686WAT     H241301   1.177   6.615   8.193
13687WAT      O41302   1.398   2.332   8.538
13687WAT     H141303   1.491   2.334   8.501
13687WAT     H241304   1.381   2.417   8.588
13688WAT      O41305   3.846   0.828   1.036
13688WAT     H141306   3.883   0.893   1.102
13688WAT     H241307   3.913   0.757   1.017
13689WAT      O41308   8.966   2.883   5.964
13689WAT     H141309   8.894   2.888   6.032
13689WAT     H241310   8.970   2.969   5.913
13690WAT      O41311   2.809   7.366   0.110
13690WAT     H141312   2.719   7.406   0.098
13690WAT     H241313   2.850   7.347   0.020
13691WAT      O41314   2.628   1.256   8.680
13691WAT     H141315   2.681   1.328   8.636
13691WAT     H241316   2.579   1.203   8.610
13692WAT      O41317   4.977   5.916   8.997
13692WAT     H141318   4.888   5.947   8.964
13692WAT     H241319   4.989   5.945   9.092
13693WAT      O41320   1.939   2.596   8.462
13693WAT     H141321   1.994   2.664   8.413
13693WAT     H241322   1.844   2.603   8.433
13694WAT      O41323   8.350   3.865   1.026
13694WAT     H141324   8.369   3.827   1.116
13694WAT     H241325   8.433   3.906   0.988
13695WAT      O41326   6.297   6.829   9.147
13695WAT     H141327   6.225   6.898   9.156
13695WAT     H241328   6.330   6.804   9.238
13696WAT      O41329   0.546   8.763   1.273
13696WAT     H141330   0.526   8.812   1.188
13696WAT     H241331   0.551   8.665   1.254
13697WAT      O41332   5.403   2.790   1.939
13697WAT     H141333   5.500   2.766   1.933
13697WAT     H241334   5.386   2.838   2.025
13698WAT      O41335   9.167   1.238   1.139
13698WAT     H141336   9.094   1.289   1.184
13698WAT     H241337   9.129   1.155   1.098
13699WAT      O41338   1.957   1.854   9.595
13699WAT     H141339   1.913   1.772   9.631
13699WAT     H241340   2.019   1.828   9.521
13700WAT      O41341   4.940   4.603   6.901
13700WAT     H141342   4.904   4.524   6.852
13700WAT     H241343   5.014   4.574   6.961
13701WAT      O41344   4.917   5.137   9.890
13701WAT     H141345   4.938   5.159   9.795
13701WAT     H241346   4.985   5.072   9.925
13702WAT      O41347   5.381   0.699   9.811
13702WAT     H141348   5.311   0.627   9.805
13702WAT     H241349   5.398   0.737   9.720
13703WAT      O41350   3.837   1.390   8.387
13703WAT     H141351   3.903   1.401   8.460
13703WAT     H241352   3.748   1.366   8.426
13704WAT      O41353   2.636   0.598   2.686
13704WAT     H141354   2.642   0.641   2.596
13704WAT     H241355   2.680   0.508   2.683
13705WAT      O41356   0.212   3.508   4.552
13705WAT     H141357   0.224   3.591   4.497
13705WAT     H241358   0.114   3.494   4.568
13706WAT      O41359   1.839   4.600   7.876
13706WAT     H141360   1.913   4.630   7.937
13706WAT     H241361   1.775   4.676   7.861
13707WAT      O41362   5.501   1.211   3.454
13707WAT     H141363   5.578   1.270   3.479
13707WAT     H241364   5.435   1.209   3.529
13708WAT      O41365   6.917   7.307   0.688
13708WAT     H141366   6.954   7.345   0.603
13708WAT     H241367   6.819   7.328   0.694
13709WAT      O41368   6.366   1.248   8.586
13709WAT     H141369   6.431   1.314   8.550
13709WAT     H241370   6.331   1.279   8.675
13710WAT      O41371   0.155   8.620   7.332
13710WAT     H141372   0.114   8.638   7.422
13710WAT     H241373   0.254   8.623   7.339
13711WAT      O41374   6.696   0.508   8.424
13711WAT     H141375   6.648   0.500   8.336
13711WAT     H241376   6.658   0.584   8.476
13712WAT      O41377   4.038   0.795   6.792
13712WAT     H141378   4.135   0.770   6.788
13712WAT     H241379   3.983   0.717   6.764
13713WAT      O41380   6.671   2.463   1.791
13713WAT     H141381   6.728   2.464   1.708
13713WAT     H241382   6.730   2.468   1.872
13714WAT      O41383   2.328   0.842   4.628
13714WAT     H141384   2.260   0.869   4.696
13714WAT     H241385   2.287   0.776   4.565
13715WAT      O41386   8.342   5.447   0.021
13715WAT     H141387   8.365   5.360   0.065
13715WAT     H241388   8.251   5.441  -0.019
13716WAT      O41389   6.623   1.105   0.985
13716WAT     H141390   6.586   1.181   1.038
13716WAT     H241391   6.672   1.140   0.906
13717WAT      O41392   7.214   5.244   8.719
13717WAT     H141393   7.290   5.199   8.672
13717WAT     H241394   7.208   5.210   8.813
13718WAT      O41395   0.202   8.256   6.897
13718WAT     H141396   0.226   8.350   6.921
13718WAT     H241397   0.209   8.244   6.798
13719WAT      O41398   4.585   8.156   5.490
13719WAT     H141399   4.657   8.104   5.536
13719WAT     H241400   4.501   8.153   5.545
13720WAT      O41401   5.823   8.471   2.894
13720WAT     H141402   5.781   8.460   2.804
13720WAT     H241403   5.844   8.567   2.910
13721WAT      O41404   3.939   1.930   8.486
13721WAT     H141405   4.008   1.966   8.549
13721WAT     H241406   3.969   1.841   8.451
13722WAT      O41407   5.469   3.429   2.697
13722WAT     H141408   5.379   3.461   2.727
13722WAT     H241409   5.465   3.408   2.600
13723WAT      O41410   8.277   4.800   3.737
13723WAT     H141411   8.236   4.836   3.653
13723WAT     H241412   8.307   4.876   3.795
13724WAT      O41413   8.470   0.906   8.123
13724WAT     H141414   8.542   0.939   8.184
13724WAT     H241415   8.399   0.976   8.114
13725WAT      O41416   0.302   8.057   7.076
13725WAT     H141417   0.243   8.129   7.040
13725WAT     H241418   0.358   8.019   7.002
13726WAT      O41419   6.932   2.476   3.268
13726WAT     H141420   6.912   2.572   3.289
13726WAT     H241421   6.905   2.419   3.346
13727WAT      O41422   2.319   3.045   4.599
13727WAT     H141423   2.373   3.030   4.681
13727WAT     H241424   2.239   3.101   4.621
13728WAT      O41425   0.886   5.331   1.733
13728WAT     H141426   0.911   5.294   1.823
13728WAT     H241427   0.802   5.385   1.742
13729WAT      O41428   8.332   0.877   9.385
13729WAT     H141429   8.296   0.795   9.342
13729WAT     H241430   8.419   0.855   9.431
13730WAT      O41431   0.888   0.684   1.339
13730WAT     H141432   0.936   0.669   1.426
13730WAT     H241433   0.860   0.779   1.333
13731WAT      O41434   0.522   3.539   6.496
13731WAT     H141435   0.604   3.524   6.441
13731WAT     H241436   0.533   3.495   6.585
13732WAT      O41437   6.693   1.352   3.058
13732WAT     H141438   6.602   1.376   3.024
13732WAT     H241439   6.691   1.261   3.098
13733WAT      O41440   0.282   1.903   5.933
13733WAT     H141441   0.336   1.842   5.991
13733WAT     H241442   0.197   1.927   5.980
13734WAT      O41443   8.403   2.583   1.073
13734WAT     H141444   8.475   2.616   1.134
13734WAT     H241445   8.314   2.612   1.108
13735WAT      O41446   1.215   0.881   7.484
13735WAT     H141447   1.240   0.928   7.569
13735WAT     H241448   1.223   0.782   7.498
13736WAT      O41449   6.429   7.351   8.309
13736WAT     H141450   6.529   7.354   8.308
13736WAT     H241451   6.396   7.373   8.401
13737WAT      O41452   2.166   1.645   2.228
13737WAT     H141453   2.077   1.645   2.183
13737WAT     H241454   2.161   1.698   2.313
13738WAT      O41455   7.119   1.255   6.473
13738WAT     H141456   7.129   1.351   6.447
13738WAT     H241457   7.028   1.224   6.448
13739WAT      O41458   2.783   4.998   9.663
13739WAT     H141459   2.776   5.098   9.659
13739WAT     H241460   2.779   4.968   9.758
13740WAT      O41461   0.245   8.901   3.276
13740WAT     H141462   0.304   8.853   3.211
13740WAT     H241463   0.152   8.866   3.270
13741WAT      O41464   0.753   2.933   6.145
13741WAT     H141465   0.728   3.030   6.155
13741WAT     H241466   0.759   2.909   6.048
13742WAT      O41467   1.811   3.281   5.886
13742WAT     H141468   1.867   3.307   5.807
13742WAT     H241469   1.734   3.343   5.894
13743WAT      O41470   3.714   0.358   0.816
13743WAT     H141471   3.623   0.339   0.779
13743WAT     H241472   3.757   0.432   0.764
13744WAT      O41473   6.449   7.810   4.178
13744WAT     H141474   6.373   7.873   4.194
13744WAT     H241475   6.481   7.821   4.083
13745WAT      O41476   7.089   4.169   1.618
13745WAT     H141477   7.096   4.263   1.652
13745WAT     H241478   7.066   4.109   1.694
13746WAT      O41479   0.079   8.595   1.626
13746WAT     H141480   0.176   8.572   1.638
13746WAT     H241481   0.068   8.694   1.624
13747WAT      O41482   1.851   3.526   0.935
13747WAT     H141483   1.802   3.469   1.000
13747WAT     H241484   1.873   3.614   0.976
13748WAT      O41485   8.759   7.522   7.141
13748WAT     H141486   8.765   7.531   7.041
13748WAT     H241487   8.752   7.613   7.182
13749WAT      O41488   2.079   6.882   5.916
13749WAT     H141489   2.106   6.968   5.960
13749WAT     H241490   2.138   6.808   5.948
13750WAT      O41491   1.862   7.145   1.368
13750WAT     H141492   1.767   7.176   1.359
13750WAT     H241493   1.866   7.069   1.433
13751WAT      O41494   7.092   3.701   7.355
13751WAT     H141495   7.088   3.801   7.356
13751WAT     H241496   7.068   3.668   7.264
13752WAT      O41497   4.778   8.063   4.015
13752WAT     H141498   4.684   8.033   4.000
13752WAT     H241499   4.798   8.062   4.113
13753WAT      O41500   5.817   4.385   9.504
13753WAT     H141501   5.792   4.391   9.408
13753WAT     H241502   5.790   4.295   9.540
13754WAT      O41503   5.126   8.603   1.911
13754WAT     H141504   5.033   8.592   1.874
13754WAT     H241505   5.163   8.691   1.883
13755WAT      O41506   9.492   7.057   4.740
13755WAT     H141507   9.588   7.083   4.730
13755WAT     H241508   9.444   7.070   4.653
13756WAT      O41509   0.520   1.976   8.618
13756WAT     H141510   0.581   2.021   8.553
13756WAT     H241511   0.569   1.958   8.703
13757WAT      O41512   4.241   1.117   7.979
13757WAT     H141513   4.159   1.064   7.956
13757WAT     H241514   4.268   1.096   8.073
13758WAT      O41515   1.947   4.712   8.819
13758WAT     H141516   1.897   4.731   8.734
13758WAT     H241517   2.020   4.646   8.800
13759WAT      O41518   7.559   7.611   8.444
13759WAT     H141519   7.548   7.512   8.436
13759WAT     H241520   7.526   7.641   8.534
13760WAT      O41521   4.276   7.318   5.967
13760WAT     H141522   4.178   7.325   5.989
13760WAT     H241523   4.309   7.407   5.937
13761WAT      O41524   8.675   2.388   4.164
13761WAT     H141525   8.752   2.339   4.205
13761WAT     H241526   8.623   2.435   4.235
13762WAT      O41527   6.068   6.709   3.442
13762WAT     H141528   6.121   6.793   3.430
13762WAT     H241529   6.128   6.638   3.480
13763WAT      O41530   7.444   2.091   5.185
13763WAT     H141531   7.543   2.080   5.171
13763WAT     H241532   7.408   2.156   5.118
13764WAT      O41533   1.977   3.236   1.549
13764WAT     H141534   1.910   3.164   1.565
13764WAT     H241535   2.026   3.256   1.634
13765WAT      O41536   2.341   2.838   0.424
13765WAT     H141537   2.351   2.937   0.411
13765WAT     H241538   2.420   2.802   0.473
13766WAT      O41539   6.408   0.406   0.431
13766WAT     H141540   6.482   0.343   0.453
13766WAT     H241541   6.428   0.496   0.469
13767WAT      O41542   5.494   6.380   3.734
13767WAT     H141543   5.414   6.439   3.744
13767WAT     H241544   5.470   6.286   3.758
13768WAT      O41545   0.865   5.856   0.498
13768WAT     H141546   0.774   5.841   0.459
13768WAT     H241547   0.919   5.772   0.489
13769WAT      O41548   2.463   5.746   8.392
13769WAT     H141549   2.558   5.768   8.413
13769WAT     H241550   2.453   5.647   8.378
13770WAT      O41551   5.552   4.465   6.185
13770WAT     H141552   5.579   4.490   6.277
13770WAT     H241553   5.569   4.540   6.122
13771WAT      O41554   6.700   9.203   0.484
13771WAT     H141555   6.721   9.174   0.390
13771WAT     H241556   6.687   9.122   0.541
13772WAT      O41557   7.687   8.184   2.362
13772WAT     H141558   7.723   8.147   2.277
13772WAT     H241559   7.587   8.178   2.362
13773WAT      O41560   0.305   1.474   1.464
13773WAT     H141561   0.371   1.548   1.480
13773WAT     H241562   0.340   1.413   1.393
13774WAT      O41563   3.398   2.930   8.693
13774WAT     H141564   3.331   2.857   8.687
13774WAT     H241565   3.384   2.981   8.778
13775WAT      O41566   8.555   2.919   1.759
13775WAT     H141567   8.629   2.896   1.822
13775WAT     H241568   8.570   3.011   1.722
13776WAT      O41569   4.225   2.636   5.692
13776WAT     H141570   4.174   2.550   5.700
13776WAT     H241571   4.299   2.624   5.626
13777WAT      O41572   5.042   4.233   1.841
13777WAT     H141573   5.043   4.166   1.915
13777WAT     H241574   5.085   4.195   1.760
13778WAT      O41575   0.245   1.102   4.295
13778WAT     H141576   0.162   1.053   4.271
13778WAT     H241577   0.250   1.187   4.244
13779WAT      O41578   3.476   8.697   2.535
13779WAT     H141579   3.472   8.612   2.588
13779WAT     H241580   3.456   8.775   2.595
13780WAT      O41581   7.748   5.364   6.419
13780WAT     H141582   7.772   5.426   6.344
13780WAT     H241583   7.668   5.400   6.468
13781WAT      O41584   9.216   8.282   7.953
13781WAT     H141585   9.248   8.219   7.883
13781WAT     H241586   9.129   8.322   7.925
13782WAT      O41587   9.129   0.096   7.730
13782WAT     H141588   9.040   0.126   7.766
13782WAT     H241589   9.201   0.124   7.793
13783WAT      O41590   5.688   7.211   9.665
13783WAT     H141591   5.694   7.138   9.597
13783WAT     H241592   5.630   7.285   9.631
13784WAT      O41593   2.632   2.372   6.302
13784WAT     H141594   2.714   2.426   6.322
13784WAT     H241595   2.620   2.363   6.203
13785WAT      O41596   0.399   0.563   2.832
13785WAT     H141597   0.344   0.501   2.887
13785WAT     H241598   0.346   0.645   2.811
13786WAT      O41599   4.162   8.294   0.063
13786WAT     H141600   4.262   8.290   0.067
13786WAT     H241601   4.124   8.262   0.150
13787WAT      O41602   8.628   4.992   6.822
13787WAT     H141603   8.705   5.022   6.878
13787WAT     H241604   8.659   4.975   6.729
13788WAT      O41605   5.271   2.847   2.560
13788WAT     H141606   5.264   2.928   2.618
13788WAT     H241607   5.183   2.799   2.559
13789WAT      O41608   0.864   4.144   5.594
13789WAT     H141609   0.840   4.083   5.669
13789WAT     H241610   0.960   4.171   5.604
13790WAT      O41611   0.006   0.080   4.656
13790WAT     H141612  -0.079   0.028   4.644
13790WAT     H241613   0.025   0.132   4.572
13791WAT      O41614   8.558   1.543   7.440
13791WAT     H141615   8.550   1.632   7.484
13791WAT     H241616   8.490   1.535   7.368
13792WAT      O41617   2.827   8.996   0.519
13792WAT     H141618   2.808   8.956   0.609
13792WAT     H241619   2.789   8.937   0.448
13793WAT      O41620   8.446   5.449   1.298
13793WAT     H141621   8.485   5.388   1.367
13793WAT     H241622   8.434   5.540   1.338
13794WAT      O41623   0.116   7.008   5.532
13794WAT     H141624   0.091   6.919   5.494
13794WAT     H241625   0.096   7.079   5.464
13795WAT      O41626   8.125   4.445   9.565
13795WAT     H141627   8.212   4.461   9.612
13795WAT     H241628   8.056   4.419   9.633
13796WAT      O41629   2.305   5.765   0.860
13796WAT     H141630   2.357   5.820   0.794
13796WAT     H241631   2.310   5.668   0.833
13797WAT      O41632   9.842   0.505   6.416
13797WAT     H141633   9.776   0.540   6.349
13797WAT     H241634   9.897   0.581   6.451
13798WAT      O41635   3.120   4.303   7.728
13798WAT     H141636   3.185   4.358   7.780
13798WAT     H241637   3.080   4.358   7.655
13799WAT      O41638   5.710   0.487   2.425
13799WAT     H141639   5.684   0.403   2.473
13799WAT     H241640   5.740   0.464   2.332
13800WAT      O41641   7.640   0.159   5.675
13800WAT     H141642   7.625   0.099   5.754
13800WAT     H241643   7.715   0.221   5.695
13801WAT      O41644   8.979   4.555   5.660
13801WAT     H141645   8.959   4.632   5.721
13801WAT     H241646   9.061   4.507   5.691
13802WAT      O41647   7.679   0.932   5.521
13802WAT     H141648   7.741   0.923   5.599
13802WAT     H241649   7.678   1.027   5.490
13803WAT      O41650   8.477   5.595   1.024
13803WAT     H141651   8.547   5.662   1.002
13803WAT     H241652   8.468   5.587   1.124
13804WAT      O41653   2.995   6.458   0.123
13804WAT     H141654   2.973   6.456   0.026
13804WAT     H241655   3.093   6.474   0.135
13805WAT      O41656   6.405   1.097   9.843
13805WAT     H141657   6.346   1.036   9.896
13805WAT     H241658   6.501   1.069   9.855
13806WAT      O41659   7.836   3.959   0.423
13806WAT     H141660   7.826   3.971   0.324
13806WAT     H241661   7.805   4.042   0.470
13807WAT      O41662   7.303   7.457   2.770
13807WAT     H141663   7.233   7.398   2.730
13807WAT     H241664   7.372   7.400   2.816
13808WAT      O41665   5.152   5.634   0.362
13808WAT     H141666   5.192   5.722   0.390
13808WAT     H241667   5.153   5.571   0.440
13809WAT      O41668   6.949   5.192   1.576
13809WAT     H141669   6.875   5.255   1.600
13809WAT     H241670   6.918   5.130   1.504
13810WAT      O41671   9.223   5.141   0.555
13810WAT     H141672   9.308   5.179   0.517
13810WAT     H241673   9.243   5.097   0.643
13811WAT      O41674   0.046   2.709   2.091
13811WAT     H141675   0.024   2.762   2.173
13811WAT     H241676   0.129   2.657   2.106
13812WAT      O41677   3.949   2.945   5.981
13812WAT     H141678   3.969   2.929   6.078
13812WAT     H241679   4.034   2.965   5.933
13813WAT      O41680   8.591   1.045   9.081
13813WAT     H141681   8.654   0.998   9.019
13813WAT     H241682   8.498   1.015   9.062
13814WAT      O41683   6.558   3.241   9.347
13814WAT     H141684   6.635   3.179   9.361
13814WAT     H241685   6.547   3.258   9.249
13815WAT      O41686   3.667   1.664   6.983
13815WAT     H141687   3.601   1.622   7.045
13815WAT     H241688   3.656   1.763   6.983
13816WAT      O41689   6.344   3.786   5.378
13816WAT     H141690   6.372   3.722   5.306
13816WAT     H241691   6.288   3.858   5.338
13817WAT      O41692   0.836   3.821   7.567
13817WAT     H141693   0.795   3.846   7.479
13817WAT     H241694   0.765   3.792   7.631
13818WAT      O41695   8.025   4.540   5.511
13818WAT     H141696   7.938   4.499   5.537
13818WAT     H241697   8.023   4.564   5.414
13819WAT      O41698   5.411   4.212   3.077
13819WAT     H141699   5.379   4.303   3.103
13819WAT     H241700   5.510   4.213   3.066
13820WAT      O41701   6.545   0.113   6.491
13820WAT     H141702   6.513   0.021   6.513
13820WAT     H241703   6.640   0.123   6.523
13821WAT      O41704   8.583   4.162   4.853
13821WAT     H141705   8.515   4.112   4.799
13821WAT     H241706   8.577   4.260   4.831
13822WAT      O41707   1.586   7.684   8.375
13822WAT     H141708   1.646   7.640   8.309
13822WAT     H241709   1.517   7.618   8.406
13823WAT      O41710   5.899   9.614   7.523
13823WAT     H141711   5.958   9.679   7.476
13823WAT     H241712   5.838   9.663   7.586
13824WAT      O41713   3.578   8.054   0.418
13824WAT     H141714   3.528   8.065   0.332
13824WAT     H241715   3.675   8.045   0.399
13825WAT      O41716   5.037   5.582   0.762
13825WAT     H141717   5.065   5.533   0.844
13825WAT     H241718   5.031   5.518   0.685
13826WAT      O41719   1.186   4.484   4.620
13826WAT     H141720   1.176   4.460   4.523
13826WAT     H241721   1.113   4.442   4.673
13827WAT      O41722   1.903   1.696   8.082
13827WAT     H141723   1.806   1.682   8.063
13827WAT     H241724   1.931   1.634   8.156
13828WAT      O41725   5.518   2.883   6.902
13828WAT     H141726   5.559   2.954   6.960
13828WAT     H241727   5.482   2.810   6.960
13829WAT      O41728   5.945   8.170   6.256
13829WAT     H141729   5.907   8.086   6.294
13829WAT     H241730   5.955   8.238   6.329
13830WAT      O41731   4.886   5.289   9.308
13830WAT     H141732   4.887   5.313   9.405
13830WAT     H241733   4.867   5.192   9.297
13831WAT      O41734   4.823   7.660   9.754
13831WAT     H141735   4.920   7.679   9.746
13831WAT     H241736   4.775   7.740   9.790
13832WAT      O41737   1.463   5.225   7.791
13832WAT     H141738   1.446   5.296   7.860
13832WAT     H241739   1.529   5.259   7.724
13833WAT      O41740   5.346   1.788   1.345
13833WAT     H141741   5.390   1.768   1.258
13833WAT     H241742   5.313   1.703   1.386
13834WAT      O41743   3.410   7.078   0.915
13834WAT     H141744   3.362   7.164   0.901
13834WAT     H241745   3.359   7.003   0.873
13835WAT      O41746   0.392   7.956   9.688
13835WAT     H141747   0.308   7.935   9.639
13835WAT     H241748   0.437   7.871   9.716
13836WAT      O41749   3.617   6.804   8.099
13836WAT     H141750   3.619   6.896   8.138
13836WAT     H241751   3.598   6.737   8.171
13837WAT      O41752   1.651   8.591   9.108
13837WAT     H141753   1.747   8.585   9.135
13837WAT     H241754   1.621   8.503   9.073
13838WAT      O41755   3.571   9.182   4.019
13838WAT     H141756   3.508   9.260   4.013
13838WAT     H241757   3.518   9.098   4.031
13839WAT      O41758   6.994   7.842   3.085
13839WAT     H141759   7.049   7.815   3.005
13839WAT     H241760   7.053   7.886   3.152
13840WAT      O41761   0.670   7.672   2.442
13840WAT     H141762   0.747   7.616   2.473
13840WAT     H241763   0.645   7.645   2.349
13841WAT      O41764   0.577   5.545   7.596
13841WAT     H141765   0.614   5.638   7.605
13841WAT     H241766   0.602   5.492   7.677
13842WAT      O41767   9.829   3.261   8.307
13842WAT     H141768   9.792   3.352   8.288
13842WAT     H241769   9.859   3.219   8.221
13843WAT      O41770   2.836   3.183   2.194
13843WAT     H141771   2.821   3.186   2.095
13843WAT     H241772   2.813   3.271   2.234
13844WAT      O41773   5.771   8.009   7.829
13844WAT     H141774   5.718   8.091   7.808
13844WAT     H241775   5.709   7.933   7.849
13845WAT      O41776   4.903   1.393   4.719
13845WAT     H141777   4.995   1.418   4.691
13845WAT     H241778   4.907   1.338   4.803
13846WAT      O41779   6.777   4.858   0.892
13846WAT     H141780   6.820   4.877   0.980
13846WAT     H241781   6.728   4.771   0.896
13847WAT      O41782   1.279   2.385   8.292
13847WAT     H141783   1.358   2.351   8.242
13847WAT     H241784   1.292   2.369   8.390
13848WAT      O41785   7.242   7.155   8.665
13848WAT     H141786   7.296   7.140   8.582
13848WAT     H241787   7.298   7.197   8.735
13849WAT      O41788   8.997   0.155   6.038
13849WAT     H141789   8.933   0.142   5.962
13849WAT     H241790   9.075   0.208   6.007
13850WAT      O41791   5.254   7.011   3.757
13850WAT     H141792   5.271   7.001   3.855
13850WAT     H241793   5.283   7.103   3.727
13851WAT      O41794   1.920   1.054   0.849
13851WAT     H141795   1.866   1.032   0.930
13851WAT     H241796   1.874   1.125   0.796
13852WAT      O41797   3.287   5.766   3.673
13852WAT     H141798   3.211   5.703   3.659
13852WAT     H241799   3.256   5.860   3.658
13853WAT      O41800   7.846   3.829   7.282
13853WAT     H141801   7.761   3.829   7.229
13853WAT     H241802   7.825   3.833   7.379
13854WAT      O41803   8.582   0.875   0.250
13854WAT     H141804   8.564   0.937   0.173
13854WAT     H241805   8.611   0.928   0.330
13855WAT      O41806   0.767   7.948   0.993
13855WAT     H141807   0.756   8.021   1.061
13855WAT     H241808   0.864   7.923   0.986
13856WAT      O41809   2.286   9.310   8.798
13856WAT     H141810   2.211   9.296   8.734
13856WAT     H241811   2.318   9.405   8.792
13857WAT      O41812   8.529   4.253   4.091
13857WAT     H141813   8.530   4.318   4.015
13857WAT     H241814   8.612   4.265   4.146
13858WAT      O41815   8.933   1.249   5.837
13858WAT     H141816   8.947   1.273   5.933
13858WAT     H241817   9.018   1.261   5.786
13859WAT      O41818   8.849   5.443   5.191
13859WAT     H141819   8.776   5.452   5.259
13859WAT     H241820   8.934   5.416   5.237
13860WAT      O41821   3.416   2.815   8.454
13860WAT     H141822   3.351   2.831   8.380
13860WAT     H241823   3.408   2.888   8.522
13861WAT      O41824   4.912   8.439   1.307
13861WAT     H141825   4.906   8.522   1.252
13861WAT     H241826   4.865   8.364   1.260
13862WAT      O41827   4.184   2.598   6.122
13862WAT     H141828   4.226   2.685   6.100
13862WAT     H241829   4.124   2.570   6.048
13863WAT      O41830   9.619   2.694   9.772
13863WAT     H141831   9.539   2.705   9.713
13863WAT     H241832   9.599   2.730   9.863
13864WAT      O41833   0.480   1.887   3.089
13864WAT     H141834   0.545   1.841   3.029
13864WAT     H241835   0.444   1.968   3.043
13865WAT      O41836   3.385   8.923   6.904
13865WAT     H141837   3.324   8.897   6.829
13865WAT     H241838   3.440   8.845   6.932
13866WAT      O41839   5.575   2.419   2.589
13866WAT     H141840   5.656   2.432   2.645
13866WAT     H241841   5.528   2.334   2.616
13867WAT      O41842   2.218   1.240   4.008
13867WAT     H141843   2.274   1.290   4.074
13867WAT     H241844   2.269   1.227   3.923
13868WAT      O41845   3.606   5.793   5.742
13868WAT     H141846   3.584   5.780   5.838
13868WAT     H241847   3.677   5.864   5.733
13869WAT      O41848   4.479   3.114   4.744
13869WAT     H141849   4.413   3.123   4.818
13869WAT     H241850   4.430   3.092   4.659
13870WAT      O41851   7.576   3.510   3.843
13870WAT     H141852   7.623   3.450   3.778
13870WAT     H241853   7.477   3.499   3.833
13871WAT      O41854   6.330   8.859   1.014
13871WAT     H141855   6.401   8.927   1.032
13871WAT     H241856   6.240   8.898   1.032
13872WAT      O41857   3.942   6.827   8.481
13872WAT     H141858   3.850   6.791   8.494
13872WAT     H241859   3.950   6.915   8.527
13873WAT      O41860   8.665   5.817   1.238
13873WAT     H141861   8.729   5.742   1.256
13873WAT     H241862   8.678   5.850   1.145
13874WAT      O41863   8.003   6.919   2.180
13874WAT     H141864   8.037   6.912   2.274
13874WAT     H241865   7.904   6.926   2.181
13875WAT      O41866   9.709   9.283   4.799
13875WAT     H141867   9.676   9.356   4.738
13875WAT     H241868   9.655   9.284   4.884
13876WAT      O41869   2.510   6.030   5.024
13876WAT     H141870   2.472   5.965   5.090
13876WAT     H241871   2.568   5.981   4.959
13877WAT      O41872   3.029   2.216   4.923
13877WAT     H141873   3.038   2.169   5.011
13877WAT     H241874   2.988   2.306   4.937
13878WAT      O41875   0.793   7.349   7.844
13878WAT     H141876   0.755   7.292   7.771
13878WAT     H241877   0.751   7.440   7.841
13879WAT      O41878   8.186   3.298   4.720
13879WAT     H141879   8.115   3.261   4.780
13879WAT     H241880   8.213   3.389   4.752
13880WAT      O41881   6.207   7.384   2.786
13880WAT     H141882   6.147   7.345   2.717
13880WAT     H241883   6.247   7.469   2.751
13881WAT      O41884   8.117   1.264   0.797
13881WAT     H141885   8.117   1.239   0.894
13881WAT     H241886   8.180   1.340   0.781
13882WAT      O41887   3.963   0.869   5.352
13882WAT     H141888   4.028   0.813   5.402
13882WAT     H241889   3.883   0.887   5.410
13883WAT      O41890   3.425   4.904   7.938
13883WAT     H141891   3.503   4.909   7.999
13883WAT     H241892   3.380   4.994   7.934
13884WAT      O41893   3.936   7.089   0.123
13884WAT     H141894   3.909   7.179   0.158
13884WAT     H241895   4.022   7.097   0.073
13885WAT      O41896   5.984   5.247   9.598
13885WAT     H141897   6.035   5.313   9.653
13885WAT     H241898   6.006   5.261   9.501
13886WAT      O41899   0.000   0.682   2.549
13886WAT     H141900  -0.055   0.598   2.553
13886WAT     H241901   0.072   0.672   2.480
13887WAT      O41902   1.366   5.623   5.239
13887WAT     H141903   1.430   5.698   5.218
13887WAT     H241904   1.308   5.650   5.315
13888WAT      O41905   9.640   6.620   2.427
13888WAT     H141906   9.577   6.566   2.483
13888WAT     H241907   9.637   6.588   2.332
13889WAT      O41908   4.865   0.168   6.778
13889WAT     H141909   4.956   0.185   6.816
13889WAT     H241910   4.820   0.096   6.831
13890WAT      O41911   4.499   7.177   6.682
13890WAT     H141912   4.565   7.206   6.613
13890WAT     H241913   4.417   7.233   6.675
13891WAT      O41914   6.124   8.131   4.839
13891WAT     H141915   6.038   8.080   4.839
13891WAT     H241916   6.182   8.098   4.915
13892WAT      O41917   1.502   6.930   1.402
13892WAT     H141918   1.559   6.849   1.392
13892WAT     H241919   1.481   6.943   1.499
13893WAT      O41920   0.657   0.909   9.660
13893WAT     H141921   0.608   0.827   9.690
13893WAT     H241922   0.751   0.907   9.696
13894WAT      O41923   1.395   6.392   8.940
13894WAT     H141924   1.467   6.372   9.006
13894WAT     H241925   1.417   6.477   8.891
13895WAT      O41926   3.194   2.639   2.384
13895WAT     H141927   3.192   2.576   2.461
13895WAT     H241928   3.246   2.720   2.409
13896WAT      O41929   6.865   4.028   6.092
13896WAT     H141930   6.829   4.011   6.000
13896WAT     H241931   6.880   4.126   6.104
13897WAT      O41932   8.222   5.313   8.087
13897WAT     H141933   8.315   5.345   8.070
13897WAT     H241934   8.216   5.215   8.068
13898WAT      O41935   6.891   5.375   7.321
13898WAT     H141936   6.908   5.430   7.403
13898WAT     H241937   6.906   5.431   7.240
13899WAT      O41938   5.603   4.511   0.867
13899WAT     H141939   5.698   4.542   0.867
13899WAT     H241940   5.543   4.585   0.835
13900WAT      O41941   5.766   9.309   8.436
13900WAT     H141942   5.740   9.327   8.341
13900WAT     H241943   5.784   9.395   8.482
13901WAT      O41944   2.643   2.609   1.450
13901WAT     H141945   2.646   2.611   1.350
13901WAT     H241946   2.549   2.590   1.479
13902WAT      O41947   3.768   4.273   1.407
13902WAT     H141948   3.738   4.368   1.403
13902WAT     H241949   3.850   4.266   1.464
13903WAT      O41950   6.056   7.590   1.772
13903WAT     H141951   6.103   7.661   1.823
13903WAT     H241952   6.049   7.617   1.676
13904WAT      O41953   9.473   6.022   7.963
13904WAT     H141954   9.402   6.028   7.894
13904WAT     H241955   9.433   6.037   8.054
13905WAT      O41956   6.745   3.793   5.539
13905WAT     H141957   6.776   3.886   5.523
13905WAT     H241958   6.656   3.795   5.585
13906WAT      O41959   9.365   0.932   7.021
13906WAT     H141960   9.267   0.948   7.007
13906WAT     H241961   9.407   0.907   6.934
13907WAT      O41962   0.852   8.966   1.602
13907WAT     H141963   0.871   8.868   1.602
13907WAT     H241964   0.912   9.012   1.668
13908WAT      O41965   5.582   2.129   7.735
13908WAT     H141966   5.629   2.056   7.784
13908WAT     H241967   5.649   2.189   7.692
13909WAT      O41968   9.810   8.066   6.315
13909WAT     H141969   9.846   7.979   6.350
13909WAT     H241970   9.857   8.142   6.360
13910WAT      O41971   1.762   0.895   8.810
13910WAT     H141972   1.860   0.909   8.792
13910WAT     H241973   1.714   0.982   8.804
13911WAT      O41974   9.177   2.627   8.390
13911WAT     H141975   9.123   2.700   8.434
13911WAT     H241976   9.211   2.565   8.461
13912WAT      O41977   8.886   0.647   6.588
13912WAT     H141978   8.926   0.654   6.497
13912WAT     H241979   8.798   0.695   6.590
13913WAT      O41980   6.616   5.912   0.075
13913WAT     H141981   6.633   5.927  -0.022
13913WAT     H241982   6.557   5.985   0.110
13914WAT      O41983   6.546   2.367   7.383
13914WAT     H141984   6.597   2.441   7.338
13914WAT     H241985   6.493   2.405   7.459
13915WAT      O41986   9.259   3.694   0.387
13915WAT     H141987   9.189   3.628   0.416
13915WAT     H241988   9.290   3.672   0.295
13916WAT      O41989   3.136   8.749   9.833
13916WAT     H141990   3.204   8.713   9.770
13916WAT     H241991   3.053   8.772   9.783
13917WAT      O41992   8.066   8.529   9.360
13917WAT     H141993   8.086   8.623   9.390
13917WAT     H241994   8.014   8.532   9.275
13918WAT      O41995   7.110   9.499   0.467
13918WAT     H141996   7.023   9.451   0.476
13918WAT     H241997   7.114   9.576   0.531
13919WAT      O41998   5.529   6.495   9.718
13919WAT     H141999   5.575   6.560   9.657
13919WAT     H242000   5.432   6.518   9.725
13920WAT      O42001   4.549   3.171   6.734
13920WAT     H142002   4.624   3.124   6.687
13920WAT     H242003   4.515   3.114   6.809
13921WAT      O42004   3.881   7.165   4.298
13921WAT     H142005   3.800   7.199   4.251
13921WAT     H242006   3.957   7.156   4.234
13922WAT      O42007   5.652   0.745   2.032
13922WAT     H142008   5.695   0.760   1.943
13922WAT     H242009   5.722   0.727   2.101
13923WAT      O42010   8.830   5.096   8.454
13923WAT     H142011   8.781   5.137   8.532
13923WAT     H242012   8.896   5.162   8.418
13924WAT      O42013   2.903   1.629   3.224
13924WAT     H142014   2.804   1.625   3.226
13924WAT     H242015   2.942   1.547   3.267
13925WAT      O42016   1.220   9.472   2.938
13925WAT     H142017   1.249   9.381   2.969
13925WAT     H242018   1.295   9.516   2.889
13926WAT      O42019   8.462   2.794   0.466
13926WAT     H142020   8.473   2.719   0.532
13926WAT     H242021   8.484   2.881   0.511
13927WAT      O42022   7.930   4.249   0.874
13927WAT     H142023   7.954   4.217   0.782
13927WAT     H242024   7.894   4.342   0.869
13928WAT      O42025   8.909   7.320   8.164
13928WAT     H142026   8.940   7.226   8.178
13928WAT     H242027   8.842   7.322   8.090
13929WAT      O42028   3.539   3.401   8.196
13929WAT     H142029   3.552   3.499   8.212
13929WAT     H242030   3.471   3.388   8.124
13930WAT      O42031   4.312   9.356   6.726
13930WAT     H142032   4.363   9.440   6.706
13930WAT     H242033   4.365   9.277   6.694
13931WAT      O42034   7.484   8.051   6.227
13931WAT     H142035   7.499   8.067   6.130
13931WAT     H242036   7.471   8.138   6.274
13932WAT      O42037   1.707   7.887   6.290
13932WAT     H142038   1.784   7.935   6.331
13932WAT     H242039   1.630   7.949   6.281
13933WAT      O42040   9.561   5.603   4.979
13933WAT     H142041   9.577   5.636   4.886
13933WAT     H242042   9.641   5.553   5.011
13934WAT      O42043   0.240   1.029   2.858
13934WAT     H142044   0.161   1.028   2.796
13934WAT     H242045   0.234   1.109   2.918
13935WAT      O42046   3.680   1.198   2.416
13935WAT     H142047   3.619   1.123   2.441
13935WAT     H242048   3.663   1.225   2.321
13936WAT      O42049   5.584   1.040   0.429
13936WAT     H142050   5.511   1.031   0.360
13936WAT     H242051   5.543   1.052   0.519
13937WAT      O42052   7.101   0.088   0.114
13937WAT     H142053   7.175   0.021   0.125
13937WAT     H242054   7.034   0.052   0.049
13938WAT      O42055   9.633   7.365   8.679
13938WAT     H142056   9.570   7.437   8.707
13938WAT     H242057   9.727   7.395   8.695
13939WAT      O42058   8.476   7.683   4.488
13939WAT     H142059   8.381   7.714   4.477
13939WAT     H242060   8.478   7.584   4.493
13940WAT      O42061   6.829   0.653   2.504
13940WAT     H142062   6.783   0.677   2.418
13940WAT     H242063   6.893   0.578   2.487
13941WAT      O42064   8.853   2.205   7.573
13941WAT     H142065   8.883   2.292   7.613
13941WAT     H242066   8.839   2.138   7.646
13942WAT      O42067   5.587   6.102   3.810
13942WAT     H142068   5.657   6.151   3.759
13942WAT     H242069   5.618   6.088   3.904
13943WAT      O42070   0.427   8.285   8.539
13943WAT     H142071   0.402   8.288   8.443
13943WAT     H242072   0.436   8.190   8.569
13944WAT      O42073   0.991   8.581   0.718
13944WAT     H142074   0.991   8.508   0.650
13944WAT     H242075   0.909   8.574   0.774
13945WAT      O42076   0.340   0.395   3.056
13945WAT     H142077   0.310   0.303   3.083
13945WAT     H242078   0.282   0.463   3.100
13946WAT      O42079   9.546   2.245   5.245
13946WAT     H142080   9.636   2.272   5.279
13946WAT     H242081   9.492   2.208   5.320
13947WAT      O42082   6.219   9.624   7.656
13947WAT     H142083   6.262   9.714   7.655
13947WAT     H242084   6.186   9.605   7.749
13948WAT      O42085   7.715   2.243   2.232
13948WAT     H142086   7.758   2.213   2.147
13948WAT     H242087   7.764   2.204   2.310
13949WAT      O42088   4.285   9.558   1.825
13949WAT     H142089   4.266   9.596   1.735
13949WAT     H242090   4.223   9.482   1.843
13950WAT      O42091   7.323   3.892   3.386
13950WAT     H142092   7.272   3.945   3.453
13950WAT     H242093   7.417   3.880   3.418
13951WAT      O42094   2.551   2.008   9.407
13951WAT     H142095   2.457   2.038   9.391
13951WAT     H242096   2.577   2.030   9.501
13952WAT      O42097   7.389   0.942   6.714
13952WAT     H142098   7.441   0.952   6.629
13952WAT     H242099   7.332   1.023   6.728
13953WAT      O42100   2.147   0.131   8.793
13953WAT     H142101   2.144   0.031   8.805
13953WAT     H242102   2.226   0.168   8.842
13954WAT      O42103   8.852   3.606   9.742
13954WAT     H142104   8.902   3.582   9.658
13954WAT     H242105   8.771   3.660   9.718
13955WAT      O42106   7.780   7.016   0.904
13955WAT     H142107   7.803   6.973   0.991
13955WAT     H242108   7.762   7.114   0.919
13956WAT      O42109   7.674   5.302   8.766
13956WAT     H142110   7.773   5.309   8.776
13956WAT     H242111   7.643   5.214   8.802
13957WAT      O42112   4.879   2.688   7.784
13957WAT     H142113   4.884   2.788   7.786
13957WAT     H242114   4.833   2.656   7.867
13958WAT      O42115   5.697   0.906   3.918
13958WAT     H142116   5.598   0.896   3.904
13958WAT     H242117   5.722   0.869   4.007
13959WAT      O42118   0.132   1.978   5.341
13959WAT     H142119   0.042   1.935   5.348
13959WAT     H242120   0.195   1.934   5.405
13960WAT      O42121   8.556   2.745   2.661
13960WAT     H142122   8.487   2.748   2.733
13960WAT     H242123   8.628   2.811   2.681
13961WAT      O42124   5.825   4.513   8.441
13961WAT     H142125   5.923   4.533   8.438
13961WAT     H242126   5.780   4.553   8.362
13962WAT      O42127   7.298   3.532   7.021
13962WAT     H142128   7.311   3.436   6.995
13962WAT     H242129   7.337   3.591   6.950
13963WAT      O42130   9.593   2.944   4.969
13963WAT     H142131   9.501   2.976   4.991
13963WAT     H242132   9.647   2.938   5.053
13964WAT      O42133   7.209   9.151   1.376
13964WAT     H142134   7.238   9.142   1.472
13964WAT     H242135   7.275   9.206   1.326
13965WAT      O42136   6.987   6.498   5.036
13965WAT     H142137   6.922   6.493   4.960
13965WAT     H242138   6.940   6.532   5.117
13966WAT      O42139   8.612   8.192   5.095
13966WAT     H142140   8.606   8.192   4.995
13966WAT     H242141   8.654   8.106   5.126
13967WAT      O42142   3.788   9.389   4.801
13967WAT     H142143   3.692   9.416   4.790
13967WAT     H242144   3.847   9.458   4.758
13968WAT      O42145   1.909   5.252   7.353
13968WAT     H142146   1.814   5.240   7.324
13968WAT     H242147   1.921   5.213   7.444
13969WAT      O42148   2.023   0.886   5.566
13969WAT     H142149   1.980   0.802   5.599
13969WAT     H242150   2.118   0.867   5.541
13970WAT      O42151   9.166   6.110   9.558
13970WAT     H142152   9.223   6.193   9.557
13970WAT     H242153   9.081   6.129   9.510
13971WAT      O42154   5.738   9.080   9.454
13971WAT     H142155   5.783   9.000   9.494
13971WAT     H242156   5.805   9.155   9.446
13972WAT      O42157   6.605   4.547   3.263
13972WAT     H142158   6.540   4.474   3.282
13972WAT     H242159   6.585   4.625   3.322
13973WAT      O42160   8.147   1.874   2.036
13973WAT     H142161   8.177   1.795   1.984
13973WAT     H242162   8.107   1.942   1.974
13974WAT      O42163   6.115   8.869   9.135
13974WAT     H142164   6.191   8.905   9.189
13974WAT     H242165   6.058   8.945   9.104
13975WAT      O42166   1.497   6.961   8.991
13975WAT     H142167   1.455   6.876   9.023
13975WAT     H242168   1.429   7.035   8.992
13976WAT      O42169   1.720   2.401   2.086
13976WAT     H142170   1.743   2.315   2.131
13976WAT     H242171   1.629   2.394   2.045
13977WAT      O42172   4.094   6.447   2.625
13977WAT     H142173   4.061   6.438   2.531
13977WAT     H242174   4.068   6.537   2.661
13978WAT      O42175   0.285   0.872   5.889
13978WAT     H142176   0.229   0.893   5.809
13978WAT     H242177   0.275   0.945   5.956
13979WAT      O42178   6.856   8.675   3.364
13979WAT     H142179   6.942   8.651   3.408
13979WAT     H242180   6.823   8.762   3.402
13980WAT      O42181   2.541   8.143   6.682
13980WAT     H142182   2.630   8.099   6.697
13980WAT     H242183   2.552   8.242   6.681
13981WAT      O42184   8.523   0.032   3.469
13981WAT     H142185   8.578   0.015   3.388
13981WAT     H242186   8.528   0.130   3.492
13982WAT      O42187   9.438   9.291   6.912
13982WAT     H142188   9.495   9.365   6.948
13982WAT     H242189   9.346   9.299   6.948
13983WAT      O42190   6.549   1.871   6.875
13983WAT     H142191   6.570   1.899   6.968
13983WAT     H242192   6.454   1.894   6.853
13984WAT      O42193   7.358   0.661   0.633
13984WAT     H142194   7.414   0.731   0.677
13984WAT     H242195   7.364   0.575   0.685
13985WAT      O42196   9.504   7.858   4.845
13985WAT     H142197   9.555   7.803   4.778
13985WAT     H242198   9.568   7.898   4.910
13986WAT      O42199   1.009   6.066   0.389
13986WAT     H142200   0.935   6.132   0.374
13986WAT     H242201   0.970   5.979   0.418
13987WAT      O42202   3.102   5.451   2.975
13987WAT     H142203   3.023   5.496   3.017
13987WAT     H242204   3.077   5.358   2.949
13988WAT      O42205   0.536   1.519   2.860
13988WAT     H142206   0.486   1.506   2.774
13988WAT     H242207   0.512   1.446   2.924
13989WAT      O42208   0.309   3.974   5.071
13989WAT     H142209   0.343   3.971   4.977
13989WAT     H242210   0.378   4.015   5.131
13990WAT      O42211   9.460   7.312   3.141
13990WAT     H142212   9.473   7.281   3.047
13990WAT     H242213   9.546   7.349   3.176
13991WAT      O42214   4.320   2.058   0.294
13991WAT     H142215   4.314   1.999   0.374
13991WAT     H242216   4.415   2.087   0.281
13992WAT      O42217   4.711   2.720   3.015
13992WAT     H142218   4.769   2.690   3.091
13992WAT     H242219   4.685   2.640   2.960
13993WAT      O42220   0.366   0.965   3.438
13993WAT     H142221   0.326   1.057   3.432
13993WAT     H242222   0.341   0.923   3.525
13994WAT      O42223   4.769   2.432   8.394
13994WAT     H142224   4.744   2.491   8.471
13994WAT     H242225   4.863   2.449   8.367
13995WAT      O42226   2.900   8.492   0.199
13995WAT     H142227   2.986   8.542   0.189
13995WAT     H242228   2.824   8.552   0.175
13996WAT      O42229   1.226   6.745   3.006
13996WAT     H142230   1.292   6.679   2.971
13996WAT     H242231   1.152   6.696   3.054
13997WAT      O42232   7.079   9.678   0.694
13997WAT     H142233   7.120   9.763   0.729
13997WAT     H242234   7.078   9.609   0.767
13998WAT      O42235   8.577   0.834   2.072
13998WAT     H142236   8.513   0.901   2.108
13998WAT     H242237   8.662   0.881   2.045
13999WAT      O42238   7.198   0.669   9.633
13999WAT     H142239   7.290   0.631   9.639
13999WAT     H242240   7.132   0.595   9.622
14000WAT      O42241   6.923   0.425   8.130
14000WAT     H142242   6.832   0.414   8.090
14000WAT     H242243   6.947   0.522   8.134
14001WAT      O42244   4.293   0.958   9.008
14001WAT     H142245   4.295   1.058   9.014
14001WAT     H242246   4.209   0.924   9.049
14002WAT      O42247   0.372   1.192   0.397
14002WAT     H142248   0.315   1.183   0.479
14002WAT     H242249   0.466   1.210   0.424
14003WAT      O42250   1.298   1.256   4.421
14003WAT     H142251   1.330   1.207   4.502
14003WAT     H242252   1.359   1.333   4.401
14004WAT      O42253   6.831   4.962   9.772
14004WAT     H142254   6.736   4.976   9.745
14004WAT     H242255   6.889   5.032   9.731
14005WAT      O42256   5.948   0.529   6.824
14005WAT     H142257   5.923   0.588   6.747
14005WAT     H242258   6.046   0.534   6.840
14006WAT      O42259   1.314   9.765   7.340
14006WAT     H142260   1.363   9.815   7.411
14006WAT     H242261   1.228   9.732   7.377
14007WAT      O42262   6.819   0.561   3.533
14007WAT     H142263   6.844   0.466   3.547
14007WAT     H242264   6.768   0.594   3.613
14008WAT      O42265   0.371   4.550   2.252
14008WAT     H142266   0.437   4.477   2.267
14008WAT     H242267   0.322   4.534   2.167
14009WAT      O42268   1.494   8.698   1.665
14009WAT     H142269   1.445   8.708   1.579
14009WAT     H242270   1.482   8.780   1.721
14010WAT      O42271   2.680   3.300   0.545
14010WAT     H142272   2.628   3.215   0.541
14010WAT     H242273   2.662   3.347   0.632
14011WAT      O42274   3.265   5.085   8.805
14011WAT     H142275   3.308   5.087   8.895
14011WAT     H242276   3.335   5.092   8.734
14012WAT      O42277   3.586   2.349   2.891
14012WAT     H142278   3.665   2.288   2.893
14012WAT     H242279   3.573   2.383   2.797
14013WAT      O42280   9.507   0.069   1.697
14013WAT     H142281   9.490   0.149   1.640
14013WAT     H242282   9.434   0.002   1.683
14014WAT      O42283   5.553   9.075   9.659
14014WAT     H142284   5.504   9.000   9.614
14014WAT     H242285   5.620   9.113   9.595
14015WAT      O42286   9.127   0.134   5.118
14015WAT     H142287   9.044   0.141   5.064
14015WAT     H242288   9.200   0.093   5.063
14016WAT      O42289   9.755   5.590   7.171
14016WAT     H142290   9.678   5.604   7.233
14016WAT     H242291   9.765   5.669   7.111
14017WAT      O42292   3.511   8.537   9.558
14017WAT     H142293   3.522   8.498   9.467
14017WAT     H242294   3.539   8.469   9.626
14018WAT      O42295   3.777   5.820   3.401
14018WAT     H142296   3.792   5.914   3.432
14018WAT     H242297   3.784   5.817   3.301
14019WAT      O42298   6.418   5.489   4.038
14019WAT     H142299   6.426   5.580   3.996
14019WAT     H242300   6.323   5.460   4.038
14020WAT      O42301   1.578   0.617   2.377
14020WAT     H142302   1.647   0.561   2.332
14020WAT     H242303   1.564   0.701   2.324
14021WAT      O42304   0.189   9.009   7.410
14021WAT     H142305   0.097   8.982   7.439
14021WAT     H242306   0.198   9.109   7.417
14022WAT      O42307   1.887   1.292   2.910
14022WAT     H142308   1.942   1.346   2.847
14022WAT     H242309   1.947   1.245   2.975
14023WAT      O42310   9.163   3.519   6.644
14023WAT     H142311   9.093   3.531   6.714
14023WAT     H242312   9.228   3.449   6.673
14024WAT      O42313   7.854   3.534   0.260
14024WAT     H142314   7.773   3.517   0.317
14024WAT     H242315   7.889   3.448   0.225
14025WAT      O42316   4.318   6.821   7.151
14025WAT     H142317   4.394   6.767   7.114
14025WAT     H242318   4.255   6.761   7.201
14026WAT      O42319   8.948   9.580   6.644
14026WAT     H142320   9.023   9.633   6.603
14026WAT     H242321   8.971   9.559   6.739
14027WAT      O42322   8.008   7.013   6.961
14027WAT     H142323   7.935   7.037   6.898
14027WAT     H242324   7.984   6.928   7.009
14028WAT      O42325   7.276   1.892   1.053
14028WAT     H142326   7.221   1.896   1.137
14028WAT     H242327   7.361   1.943   1.067
14029WAT      O42328   1.394   0.834   6.914
14029WAT     H142329   1.320   0.894   6.883
14029WAT     H242330   1.474   0.847   6.855
14030WAT      O42331   9.362   6.253   5.720
14030WAT     H142332   9.310   6.258   5.805
14030WAT     H242333   9.323   6.182   5.662
14031WAT      O42334   8.078   1.457   9.407
14031WAT     H142335   8.102   1.467   9.504
14031WAT     H242336   8.150   1.406   9.360
14032WAT      O42337   1.379   5.144   9.804
14032WAT     H142338   1.333   5.231   9.793
14032WAT     H242339   1.312   5.071   9.819
14033WAT      O42340   4.392   0.572   2.662
14033WAT     H142341   4.309   0.576   2.717
14033WAT     H242342   4.380   0.628   2.579
14034WAT      O42343   0.641   2.405   0.348
14034WAT     H142344   0.738   2.384   0.359
14034WAT     H242345   0.588   2.321   0.360
14035WAT      O42346   2.742   5.291   2.512
14035WAT     H142347   2.789   5.356   2.572
14035WAT     H242348   2.645   5.291   2.532
14036WAT      O42349   1.416   9.609   8.918
14036WAT     H142350   1.381   9.541   8.853
14036WAT     H242351   1.456   9.562   8.996
14037WAT      O42352   5.452   7.364   2.445
14037WAT     H142353   5.542   7.383   2.484
14037WAT     H242354   5.406   7.294   2.501
14038WAT      O42355   4.315   2.957   2.817
14038WAT     H142356   4.219   2.963   2.843
14038WAT     H242357   4.373   2.962   2.899
14039WAT      O42358   1.117   0.759   1.943
14039WAT     H142359   1.176   0.696   1.893
14039WAT     H242360   1.058   0.809   1.879
14040WAT      O42361   8.726   0.175   0.736
14040WAT     H142362   8.666   0.204   0.811
14040WAT     H242363   8.675   0.176   0.650
14041WAT      O42364   7.933   1.591   8.750
14041WAT     H142365   7.877   1.562   8.827
14041WAT     H242366   7.978   1.678   8.772
14042WAT      O42367   2.493   6.265   4.908
14042WAT     H142368   2.464   6.176   4.943
14042WAT     H242369   2.413   6.323   4.896
14043WAT      O42370   6.641   1.708   4.519
14043WAT     H142371   6.647   1.696   4.619
14043WAT     H242372   6.687   1.631   4.474
14044WAT      O42373   3.974   3.867   8.352
14044WAT     H142374   3.936   3.788   8.401
14044WAT     H242375   3.939   3.951   8.393
14045WAT      O42376   2.318   1.211   8.955
14045WAT     H142377   2.261   1.268   9.014
14045WAT     H242378   2.317   1.117   8.989
14046WAT      O42379   7.354   8.308   0.349
14046WAT     H142380   7.303   8.222   0.343
14046WAT     H242381   7.403   8.323   0.263
14047WAT      O42382   9.434   6.282   9.804
14047WAT     H142383   9.351   6.288   9.858
14047WAT     H242384   9.510   6.323   9.854
14048WAT      O42385   6.825   9.094   2.212
14048WAT     H142386   6.910   9.115   2.164
14048WAT     H242387   6.845   9.076   2.308
14049WAT      O42388   5.261   0.968   1.790
14049WAT     H142389   5.184   1.024   1.759
14049WAT     H242390   5.279   0.986   1.887
14050WAT      O42391   1.137   7.256   5.691
14050WAT     H142392   1.192   7.190   5.640
14050WAT     H242393   1.044   7.257   5.655
14051WAT      O42394   0.554   4.803   2.328
14051WAT     H142395   0.565   4.781   2.425
14051WAT     H242396   0.511   4.727   2.281
14052WAT      O42397   0.079   8.938   1.964
14052WAT     H142398  -0.017   8.926   1.989
14052WAT     H242399   0.123   8.997   2.031
14053WAT      O42400   4.189   1.529   4.597
14053WAT     H142401   4.251   1.526   4.675
14053WAT     H242402   4.099   1.495   4.625
14054WAT      O42403   2.829   4.047   0.704
14054WAT     H142404   2.905   4.103   0.672
14054WAT     H242405   2.754   4.051   0.638
14055WAT      O42406   2.389   8.779   8.190
14055WAT     H142407   2.408   8.690   8.233
14055WAT     H242408   2.426   8.780   8.098
14056WAT      O42409   9.767   4.250   8.505
14056WAT     H142410   9.850   4.288   8.463
14056WAT     H242411   9.789   4.216   8.597
14057WAT      O42412   6.552   3.261   9.045
14057WAT     H142413   6.455   3.238   9.053
14057WAT     H242414   6.564   3.333   8.977
14058WAT      O42415   7.784   5.118   1.052
14058WAT     H142416   7.797   5.155   1.144
14058WAT     H242417   7.840   5.035   1.042
14059WAT      O42418   0.538   4.104   8.849
14059WAT     H142419   0.536   4.202   8.830
14059WAT     H242420   0.532   4.089   8.948
14060WAT      O42421   1.052   4.845   2.141
14060WAT     H142422   1.125   4.798   2.191
14060WAT     H242423   0.967   4.837   2.193
14061WAT      O42424   8.593   8.561   0.631
14061WAT     H142425   8.588   8.632   0.562
14061WAT     H242426   8.566   8.599   0.720
14062WAT      O42427   7.518   2.445   3.493
14062WAT     H142428   7.591   2.376   3.498
14062WAT     H242429   7.484   2.464   3.585
14063WAT      O42430   7.678   0.914   1.407
14063WAT     H142431   7.600   0.976   1.400
14063WAT     H242432   7.688   0.862   1.322
14064WAT      O42433   6.473   2.826   5.104
14064WAT     H142434   6.439   2.908   5.150
14064WAT     H242435   6.528   2.773   5.168
14065WAT      O42436   6.316   4.826   3.837
14065WAT     H142437   6.237   4.881   3.813
14065WAT     H242438   6.352   4.857   3.925
14066WAT      O42439   4.153   8.011   8.254
14066WAT     H142440   4.238   7.969   8.223
14066WAT     H242441   4.157   8.024   8.353
14067WAT      O42442   4.553   8.360   4.925
14067WAT     H142443   4.644   8.400   4.926
14067WAT     H242444   4.558   8.264   4.897
14068WAT      O42445   6.208   8.453   5.398
14068WAT     H142446   6.256   8.541   5.406
14068WAT     H242447   6.110   8.469   5.399
14069WAT      O42448   5.444   7.484   1.143
14069WAT     H142449   5.458   7.512   1.238
14069WAT     H242450   5.510   7.531   1.084
14070WAT      O42451   3.213   4.655   4.465
14070WAT     H142452   3.286   4.706   4.421
14070WAT     H242453   3.154   4.717   4.516
14071WAT      O42454   6.105   4.986   3.387
14071WAT     H142455   6.015   4.986   3.344
14071WAT     H242456   6.160   5.061   3.350
14072WAT      O42457   8.096   3.809   4.039
14072WAT     H142458   8.195   3.820   4.031
14072WAT     H242459   8.062   3.862   4.116
14073WAT      O42460   4.282   1.051   3.633
14073WAT     H142461   4.268   0.991   3.712
14073WAT     H242462   4.259   1.146   3.658
14074WAT      O42463   3.899   0.368   5.442
14074WAT     H142464   3.893   0.431   5.364
14074WAT     H242465   3.860   0.280   5.415
14075WAT      O42466   6.301   3.237   8.033
14075WAT     H142467   6.362   3.160   8.013
14075WAT     H242468   6.235   3.211   8.104
14076WAT      O42469   9.576   8.502   6.349
14076WAT     H142470   9.659   8.557   6.362
14076WAT     H242471   9.593   8.409   6.381
14077WAT      O42472   4.688   1.623   6.572
14077WAT     H142473   4.627   1.691   6.613
14077WAT     H242474   4.734   1.663   6.493
14078WAT      O42475   4.619   1.666   3.357
14078WAT     H142476   4.625   1.638   3.453
14078WAT     H242477   4.524   1.687   3.334
14079WAT      O42478   7.414   0.657   5.363
14079WAT     H142479   7.511   0.656   5.338
14079WAT     H242480   7.393   0.576   5.418
14080WAT      O42481   6.607   4.111   7.062
14080WAT     H142482   6.585   4.146   6.972
14080WAT     H242483   6.560   4.024   7.077
14081WAT      O42484   5.513   0.907   9.086
14081WAT     H142485   5.463   0.822   9.097
14081WAT     H242486   5.480   0.956   9.005
14082WAT      O42487   7.389   5.389   4.877
14082WAT     H142488   7.398   5.486   4.857
14082WAT     H242489   7.476   5.343   4.858
14083WAT      O42490   6.535   1.012   5.663
14083WAT     H142491   6.515   1.106   5.636
14083WAT     H242492   6.486   0.949   5.602
14084WAT      O42493   1.248   9.243   9.774
14084WAT     H142494   1.241   9.333   9.817
14084WAT     H242495   1.285   9.178   9.840
14085WAT      O42496   6.009   0.234   7.471
14085WAT     H142497   5.971   0.164   7.410
14085WAT     H242498   6.035   0.192   7.558
14086WAT      O42499   0.896   0.044   6.008
14086WAT     H142500   0.905   0.099   5.925
14086WAT     H242501   0.813  -0.010   6.004
14087WAT      O42502   3.289   5.876   9.032
14087WAT     H142503   3.389   5.872   9.028
14087WAT     H242504   3.257   5.953   8.977
14088WAT      O42505   4.685   6.369   2.558
14088WAT     H142506   4.622   6.445   2.542
14088WAT     H242507   4.721   6.337   2.471
14089WAT      O42508   7.454   1.291   7.448
14089WAT     H142509   7.515   1.289   7.528
14089WAT     H242510   7.373   1.236   7.467
14090WAT      O42511   4.962   4.898   6.548
14090WAT     H142512   4.966   4.843   6.465
14090WAT     H242513   4.867   4.919   6.570
14091WAT      O42514   6.699   8.823   0.761
14091WAT     H142515   6.609   8.783   0.779
14091WAT     H242516   6.706   8.911   0.809
14092WAT      O42517   2.599   5.671   4.498
14092WAT     H142518   2.555   5.695   4.411
14092WAT     H242519   2.575   5.577   4.523
14093WAT      O42520   7.325   4.155   7.310
14093WAT     H142521   7.418   4.137   7.342
14093WAT     H242522   7.284   4.070   7.278
14094WAT      O42523   8.871   4.807   5.761
14094WAT     H142524   8.774   4.830   5.752
14094WAT     H242525   8.915   4.870   5.825
14095WAT      O42526   9.009   1.577   5.945
14095WAT     H142527   9.043   1.561   5.852
14095WAT     H242528   8.933   1.642   5.942
14096WAT      O42529   5.763   1.625   2.732
14096WAT     H142530   5.844   1.677   2.760
14096WAT     H242531   5.776   1.593   2.638
14097WAT      O42532   5.915   0.377   7.194
14097WAT     H142533   6.013   0.359   7.190
14097WAT     H242534   5.879   0.349   7.282
14098WAT      O42535   5.897   6.845   2.778
14098WAT     H142536   5.845   6.859   2.694
14098WAT     H242537   5.835   6.823   2.853
14099WAT      O42538   3.665   1.427   7.423
14099WAT     H142539   3.621   1.441   7.334
14099WAT     H242540   3.642   1.337   7.458
14100WAT      O42541   1.890   0.921   2.906
14100WAT     H142542   1.938   0.976   2.837
14100WAT     H242543   1.799   0.959   2.920
14101WAT      O42544   5.658   7.568   7.866
14101WAT     H142545   5.730   7.546   7.932
14101WAT     H242546   5.621   7.659   7.886
14102WAT      O42547   7.574   1.863   2.455
14102WAT     H142548   7.488   1.815   2.435
14102WAT     H242549   7.646   1.796   2.474
14103WAT      O42550   0.292   4.979   4.768
14103WAT     H142551   0.254   5.056   4.717
14103WAT     H242552   0.315   5.008   4.861
14104WAT      O42553   4.288   1.274   8.286
14104WAT     H142554   4.311   1.316   8.374
14104WAT     H242555   4.190   1.253   8.284
14105WAT      O42556   1.919   8.389   0.828
14105WAT     H142557   1.914   8.489   0.831
14105WAT     H242558   1.829   8.351   0.851
14106WAT      O42559   7.254   7.779   1.747
14106WAT     H142560   7.315   7.718   1.798
14106WAT     H242561   7.279   7.874   1.765
14107WAT      O42562   6.741   0.780   9.038
14107WAT     H142563   6.810   0.713   9.011
14107WAT     H242564   6.783   0.850   9.096
14108WAT      O42565   0.658   1.808   8.810
14108WAT     H142566   0.751   1.809   8.772
14108WAT     H242567   0.632   1.714   8.831
14109WAT      O42568   6.068   2.786   7.423
14109WAT     H142569   6.099   2.778   7.328
14109WAT     H242570   5.978   2.743   7.431
14110WAT      O42571   9.271   4.093   4.775
14110WAT     H142572   9.338   4.094   4.701
14110WAT     H242573   9.297   4.024   4.843
14111WAT      O42574   8.399   4.871   6.995
14111WAT     H142575   8.352   4.958   6.981
14111WAT     H242576   8.484   4.870   6.942
14112WAT      O42577   2.865   9.421   1.561
14112WAT     H142578   2.917   9.339   1.537
14112WAT     H242579   2.787   9.395   1.618
14113WAT      O42580   8.124   7.585   4.823
14113WAT     H142581   8.050   7.546   4.767
14113WAT     H242582   8.094   7.671   4.863
14114WAT      O42583   6.285   3.723   6.948
14114WAT     H142584   6.273   3.635   6.993
14114WAT     H242585   6.204   3.780   6.964
14115WAT      O42586   5.152   4.951   1.370
14115WAT     H142587   5.240   4.903   1.372
14115WAT     H242588   5.142   5.007   1.451
14116WAT      O42589   8.626   2.871   0.245
14116WAT     H142590   8.561   2.837   0.312
14116WAT     H242591   8.716   2.883   0.288
14117WAT      O42592   7.089   4.620   3.167
14117WAT     H142593   7.045   4.698   3.123
14117WAT     H242594   7.020   4.564   3.213
14118WAT      O42595   6.831   7.065   2.274
14118WAT     H142596   6.771   7.101   2.203
14118WAT     H242597   6.786   7.072   2.363
14119WAT      O42598   5.817   9.254   6.731
14119WAT     H142599   5.868   9.338   6.708
14119WAT     H242600   5.754   9.274   6.806
14120WAT      O42601   2.988   1.291   0.946
14120WAT     H142602   3.024   1.233   1.018
14120WAT     H242603   3.038   1.378   0.946
14121WAT      O42604   0.623   5.712   2.859
14121WAT     H142605   0.590   5.720   2.953
14121WAT     H242606   0.569   5.643   2.810
14122WAT      O42607   6.794   3.523   7.328
14122WAT     H142608   6.800   3.517   7.428
14122WAT     H242609   6.872   3.476   7.287
14123WAT      O42610   2.701   4.817   1.296
14123WAT     H142611   2.742   4.901   1.261
14123WAT     H242612   2.652   4.771   1.223
14124WAT      O42613   9.855   0.780   5.849
14124WAT     H142614   9.900   0.832   5.775
14124WAT     H242615   9.925   0.737   5.906
14125WAT      O42616   0.012   3.168   4.790
14125WAT     H142617   0.097   3.130   4.828
14125WAT     H242618  -0.040   3.095   4.746
14126WAT      O42619   7.166   2.468   7.939
14126WAT     H142620   7.183   2.392   8.002
14126WAT     H242621   7.222   2.456   7.857
14127WAT      O42622   0.832   9.582   8.881
14127WAT     H142623   0.928   9.594   8.854
14127WAT     H242624   0.823   9.497   8.933
14128WAT      O42625   1.006   2.511   2.548
14128WAT     H142626   1.105   2.512   2.534
14128WAT     H242627   0.971   2.605   2.552
14129WAT      O42628   0.634   2.463   3.568
14129WAT     H142629   0.662   2.388   3.507
14129WAT     H242630   0.690   2.543   3.548
14130WAT      O42631   7.368   7.894   5.621
14130WAT     H142632   7.288   7.895   5.682
14130WAT     H242633   7.341   7.926   5.530
14131WAT      O42634   8.201   9.605   7.449
14131WAT     H142635   8.262   9.577   7.523
14131WAT     H242636   8.255   9.626   7.367
14132WAT      O42637   7.010   2.914   0.466
14132WAT     H142638   6.980   2.893   0.373
14132WAT     H242639   7.094   2.967   0.463
14133WAT      O42640   8.025   7.854   4.602
14133WAT     H142641   7.931   7.823   4.593
14133WAT     H242642   8.037   7.902   4.689
14134WAT      O42643   7.854   5.199   1.382
14134WAT     H142644   7.855   5.196   1.482
14134WAT     H242645   7.943   5.168   1.347
14135WAT      O42646   6.421   5.503   0.092
14135WAT     H142647   6.344   5.518   0.153
14135WAT     H242648   6.435   5.404   0.079
14136WAT      O42649   2.654   9.066   2.795
14136WAT     H142650   2.665   9.161   2.767
14136WAT     H242651   2.679   9.005   2.720
14137WAT      O42652   7.970   5.208   6.106
14137WAT     H142653   7.955   5.287   6.048
14137WAT     H242654   7.976   5.125   6.050
14138WAT      O42655   7.197   1.562   5.122
14138WAT     H142656   7.191   1.596   5.028
14138WAT     H242657   7.111   1.580   5.169
14139WAT      O42658   3.778   5.177   0.060
14139WAT     H142659   3.710   5.241   0.025
14139WAT     H242660   3.739   5.085   0.063
14140WAT      O42661   8.419   3.460   6.034
14140WAT     H142662   8.519   3.453   6.034
14140WAT     H242663   8.389   3.517   5.958
14141WAT      O42664   2.002   9.827   0.817
14141WAT     H142665   2.046   9.914   0.794
14141WAT     H242666   2.070   9.762   0.849
14142WAT      O42667   4.217   3.012   9.163
14142WAT     H142668   4.178   2.965   9.243
14142WAT     H242669   4.314   3.031   9.180
14143WAT      O42670   3.300   2.002   1.056
14143WAT     H142671   3.287   1.984   1.153
14143WAT     H242672   3.298   2.101   1.039
14144WAT      O42673   6.606   3.622   5.900
14144WAT     H142674   6.519   3.598   5.944
14144WAT     H242675   6.667   3.543   5.899
14145WAT      O42676   8.866   9.335   4.946
14145WAT     H142677   8.769   9.311   4.942
14145WAT     H242678   8.877   9.423   4.991
14146WAT      O42679   7.912   1.904   6.802
14146WAT     H142680   7.860   1.859   6.874
14146WAT     H242681   8.007   1.872   6.804
14147WAT      O42682   9.339   6.137   4.543
14147WAT     H142683   9.279   6.194   4.488
14147WAT     H242684   9.310   6.138   4.639
14148WAT      O42685   9.422   0.343   6.213
14148WAT     H142686   9.377   0.330   6.124
14148WAT     H242687   9.520   0.327   6.203
14149WAT      O42688   6.053   9.397   1.304
14149WAT     H142689   5.991   9.423   1.378
14149WAT     H242690   6.140   9.445   1.316
14150WAT      O42691   7.712   1.778   2.689
14150WAT     H142692   7.628   1.731   2.713
14150WAT     H242693   7.784   1.712   2.671
14151WAT      O42694   6.981   4.744   0.299
14151WAT     H142695   7.005   4.814   0.366
14151WAT     H242696   6.934   4.787   0.222
14152WAT      O42697   0.738   0.155   5.405
14152WAT     H142698   0.832   0.186   5.390
14152WAT     H242699   0.691   0.150   5.317
14153WAT      O42700   8.499   0.341   3.515
14153WAT     H142701   8.400   0.350   3.519
14153WAT     H242702   8.528   0.266   3.575
14154WAT      O42703   8.284   1.155   3.553
14154WAT     H142704   8.356   1.138   3.620
14154WAT     H242705   8.197   1.120   3.588
14155WAT      O42706   0.218   2.506   3.883
14155WAT     H142707   0.237   2.559   3.965
14155WAT     H242708   0.121   2.516   3.858
14156WAT      O42709   8.735   5.409   8.826
14156WAT     H142710   8.792   5.490   8.817
14156WAT     H242711   8.734   5.358   8.740
14157WAT      O42712   8.991   3.936   8.976
14157WAT     H142713   9.077   3.975   8.942
14157WAT     H242714   8.915   3.971   8.921
14158WAT      O42715   6.977   7.822   0.282
14158WAT     H142716   7.028   7.814   0.196
14158WAT     H242717   7.026   7.774   0.354
14159WAT      O42718   8.531   9.376   4.261
14159WAT     H142719   8.562   9.376   4.165
14159WAT     H242720   8.609   9.354   4.320
14160WAT      O42721   1.773   8.326   4.066
14160WAT     H142722   1.715   8.263   4.119
14160WAT     H242723   1.717   8.402   4.032
14161WAT      O42724   1.080   6.085   1.222
14161WAT     H142725   1.134   6.028   1.159
14161WAT     H242726   0.989   6.100   1.183
14162WAT      O42727   9.173   0.928   1.780
14162WAT     H142728   9.130   0.842   1.807
14162WAT     H242729   9.190   0.928   1.681
14163WAT      O42730   1.623   3.736   1.610
14163WAT     H142731   1.562   3.781   1.545
14163WAT     H242732   1.580   3.732   1.700
14164WAT      O42733   8.309   9.490   1.329
14164WAT     H142734   8.312   9.590   1.318
14164WAT     H242735   8.292   9.468   1.425
14165WAT      O42736   1.349   7.453   0.902
14165WAT     H142737   1.304   7.495   0.824
14165WAT     H242738   1.303   7.367   0.925
14166WAT      O42739   3.329   3.038   0.183
14166WAT     H142740   3.394   3.069   0.113
14166WAT     H242741   3.236   3.041   0.146
14167WAT      O42742   6.376   5.753   3.919
14167WAT     H142743   6.296   5.812   3.906
14167WAT     H242744   6.454   5.809   3.948
14168WAT      O42745   0.321   6.942   6.999
14168WAT     H142746   0.375   7.007   6.945
14168WAT     H242747   0.382   6.878   7.046
14169WAT      O42748   4.704   5.052   1.289
14169WAT     H142749   4.632   4.984   1.297
14169WAT     H242750   4.676   5.123   1.224
14170WAT      O42751   3.011   8.664   6.878
14170WAT     H142752   2.960   8.670   6.792
14170WAT     H242753   2.956   8.704   6.952
14171WAT      O42754   2.757   3.382   4.017
14171WAT     H142755   2.825   3.439   3.969
14171WAT     H242756   2.802   3.301   4.054
14172WAT      O42757   9.220   7.453   0.877
14172WAT     H142758   9.308   7.407   0.867
14172WAT     H242759   9.173   7.453   0.789
14173WAT      O42760   5.328   4.594   3.837
14173WAT     H142761   5.351   4.501   3.809
14173WAT     H242762   5.251   4.627   3.783
14174WAT      O42763   8.553   0.072   4.027
14174WAT     H142764   8.579  -0.024   4.019
14174WAT     H242765   8.613   0.128   3.970
14175WAT      O42766   6.844   7.496   2.211
14175WAT     H142767   6.754   7.457   2.228
14175WAT     H242768   6.852   7.519   2.114
14176WAT      O42769   2.678   7.475   0.959
14176WAT     H142770   2.719   7.506   1.045
14176WAT     H242771   2.697   7.543   0.888
14177WAT      O42772   0.637   6.896   5.969
14177WAT     H142773   0.584   6.825   5.922
14177WAT     H242774   0.709   6.853   6.024
14178WAT      O42775   3.745   2.180   6.042
14178WAT     H142776   3.825   2.234   6.067
14178WAT     H242777   3.720   2.120   6.117
14179WAT      O42778   5.013   9.513   1.325
14179WAT     H142779   5.025   9.583   1.254
14179WAT     H242780   5.086   9.444   1.316
14180WAT      O42781   1.308   2.414   2.078
14180WAT     H142782   1.263   2.332   2.114
14180WAT     H242783   1.386   2.388   2.021
14181WAT      O42784   1.266   7.283   9.890
14181WAT     H142785   1.182   7.262   9.839
14181WAT     H242786   1.284   7.381   9.884
14182WAT      O42787   3.375   5.975   0.365
14182WAT     H142788   3.466   5.933   0.362
14182WAT     H242789   3.383   6.070   0.395
14183WAT      O42790   1.491   8.298   1.708
14183WAT     H142791   1.473   8.340   1.619
14183WAT     H242792   1.499   8.369   1.778
14184WAT      O42793   6.711   5.518   7.826
14184WAT     H142794   6.777   5.532   7.900
14184WAT     H242795   6.618   5.534   7.861
14185WAT      O42796   5.493   1.893   3.130
14185WAT     H142797   5.470   1.797   3.145
14185WAT     H242798   5.548   1.927   3.207
14186WAT      O42799   8.650   9.599   6.852
14186WAT     H142800   8.733   9.547   6.874
14186WAT     H242801   8.674   9.694   6.835
14187WAT      O42802   7.796   6.737   8.722
14187WAT     H142803   7.881   6.721   8.672
14187WAT     H242804   7.718   6.720   8.662
14188WAT      O42805   3.664   6.246   0.982
14188WAT     H142806   3.643   6.295   0.898
14188WAT     H242807   3.596   6.174   0.996
14189WAT      O42808   7.722   7.354   5.360
14189WAT     H142809   7.787   7.415   5.405
14189WAT     H242810   7.765   7.265   5.346
14190WAT      O42811   0.635   7.976   4.906
14190WAT     H142812   0.566   8.014   4.967
14190WAT     H242813   0.634   7.876   4.912
14191WAT      O42814   4.492   5.271   8.298
14191WAT     H142815   4.433   5.255   8.377
14191WAT     H242816   4.585   5.241   8.319
14192WAT      O42817   3.915   5.180   2.737
14192WAT     H142818   3.911   5.092   2.688
14192WAT     H242819   3.869   5.171   2.825
14193WAT      O42820   3.975   1.354   5.765
14193WAT     H142821   4.053   1.299   5.736
14193WAT     H242822   3.927   1.308   5.840
14194WAT      O42823   3.652   4.901   0.099
14194WAT     H142824   3.704   4.835   0.046
14194WAT     H242825   3.555   4.875   0.099
14195WAT      O42826   1.678   5.051   4.386
14195WAT     H142827   1.689   4.990   4.308
14195WAT     H242828   1.650   5.142   4.355
14196WAT      O42829   4.043   7.320   6.298
14196WAT     H142830   4.014   7.396   6.358
14196WAT     H242831   4.142   7.324   6.286
14197WAT      O42832   4.046   4.524   2.865
14197WAT     H142833   4.046   4.513   2.766
14197WAT     H242834   3.965   4.576   2.893
14198WAT      O42835   7.550   8.295   8.956
14198WAT     H142836   7.577   8.329   9.046
14198WAT     H242837   7.541   8.372   8.893
14199WAT      O42838   5.562   8.553   9.193
14199WAT     H142839   5.493   8.554   9.121
14199WAT     H242840   5.541   8.625   9.260
14200WAT      O42841   8.348   3.194   1.833
14200WAT     H142842   8.321   3.138   1.912
14200WAT     H242843   8.301   3.282   1.837
14201WAT      O42844   4.104   4.581   2.550
14201WAT     H142845   4.197   4.543   2.540
14201WAT     H242846   4.086   4.644   2.475
14202WAT      O42847   8.939   6.265   8.469
14202WAT     H142848   8.850   6.226   8.492
14202WAT     H242849   9.011   6.208   8.509
14203WAT      O42850   1.986   7.305   0.670
14203WAT     H142851   2.001   7.214   0.630
14203WAT     H242852   1.953   7.296   0.763
14204WAT      O42853   1.193   3.587   2.710
14204WAT     H142854   1.292   3.588   2.704
14204WAT     H242855   1.156   3.670   2.667
14205WAT      O42856   1.150   6.049   6.502
14205WAT     H142857   1.050   6.055   6.495
14205WAT     H242858   1.174   5.991   6.579
14206WAT      O42859   0.772   2.248   9.677
14206WAT     H142860   0.770   2.156   9.636
14206WAT     H242861   0.845   2.302   9.634
14207WAT      O42862   9.378   4.719   9.794
14207WAT     H142863   9.379   4.640   9.856
14207WAT     H242864   9.286   4.758   9.792
14208WAT      O42865   6.768   9.553   6.724
14208WAT     H142866   6.703   9.615   6.766
14208WAT     H242867   6.718   9.481   6.675
14209WAT      O42868   9.583   0.157   9.038
14209WAT     H142869   9.574   0.067   9.080
14209WAT     H242870   9.671   0.164   8.992
14210WAT      O42871   2.555   4.370   1.582
14210WAT     H142872   2.604   4.450   1.616
14210WAT     H242873   2.471   4.399   1.537
14211WAT      O42874   6.647   3.089   3.356
14211WAT     H142875   6.556   3.092   3.314
14211WAT     H242876   6.712   3.047   3.292
14212WAT      O42877   5.791   1.848   8.705
14212WAT     H142878   5.729   1.910   8.656
14212WAT     H242879   5.760   1.837   8.799
14213WAT      O42880   6.385   7.629   0.571
14213WAT     H142881   6.442   7.649   0.492
14213WAT     H242882   6.442   7.601   0.648
14214WAT      O42883   8.104   5.555   8.526
14214WAT     H142884   8.144   5.496   8.595
14214WAT     H242885   8.151   5.543   8.439
14215WAT      O42886   2.553   8.625   0.813
14215WAT     H142887   2.516   8.583   0.729
14215WAT     H242888   2.479   8.639   0.879
14216WAT      O42889   7.390   0.094   4.324
14216WAT     H142890   7.393   0.181   4.374
14216WAT     H242891   7.445   0.101   4.241
14217WAT      O42892   3.642   3.623   2.104
14217WAT     H142893   3.688   3.627   2.193
14217WAT     H242894   3.554   3.670   2.110
14218WAT      O42895   8.752   8.110   4.428
14218WAT     H142896   8.848   8.095   4.449
14218WAT     H242897   8.729   8.206   4.443
14219WAT      O42898   0.272   3.911   6.455
14219WAT     H142899   0.242   3.877   6.545
14219WAT     H242900   0.205   3.883   6.386
14220WAT      O42901   2.781   4.212   9.092
14220WAT     H142902   2.875   4.232   9.063
14220WAT     H242903   2.768   4.112   9.095
14221WAT      O42904   6.923   3.377   6.994
14221WAT     H142905   6.875   3.319   7.059
14221WAT     H242906   6.938   3.327   6.908
14222WAT      O42907   7.517   5.833   8.674
14222WAT     H142908   7.477   5.742   8.662
14222WAT     H242909   7.465   5.900   8.622
14223WAT      O42910   1.757   8.405   5.095
14223WAT     H142911   1.757   8.505   5.085
14223WAT     H242912   1.682   8.378   5.155
14224WAT      O42913   0.842   7.151   8.802
14224WAT     H142914   0.793   7.067   8.781
14224WAT     H242915   0.829   7.175   8.898
14225WAT      O42916   0.243   3.802   1.103
14225WAT     H142917   0.231   3.794   1.004
14225WAT     H242918   0.339   3.786   1.127
14226WAT      O42919   8.797   4.568   1.890
14226WAT     H142920   8.774   4.615   1.805
14226WAT     H242921   8.802   4.634   1.964
14227WAT      O42922   0.397   8.618   6.589
14227WAT     H142923   0.316   8.675   6.580
14227WAT     H242924   0.370   8.522   6.593
14228WAT      O42925   7.324   9.055   2.910
14228WAT     H142926   7.326   9.031   3.007
14228WAT     H242927   7.238   9.102   2.889
14229WAT      O42928   7.863   1.434   2.279
14229WAT     H142929   7.796   1.447   2.206
14229WAT     H242930   7.955   1.428   2.240
14230WAT      O42931   7.551   3.119   4.210
14230WAT     H142932   7.544   3.202   4.154
14230WAT     H242933   7.559   3.145   4.306
14231WAT      O42934   8.566   2.157   6.814
14231WAT     H142935   8.645   2.203   6.855
14231WAT     H242936   8.510   2.115   6.886
14232WAT      O42937   2.660   2.092   3.378
14232WAT     H142938   2.562   2.101   3.364
14232WAT     H242939   2.694   2.170   3.431
14233WAT      O42940   1.525   5.805   4.564
14233WAT     H142941   1.584   5.725   4.568
14233WAT     H242942   1.451   5.796   4.631
14234WAT      O42943   3.284   6.374   7.577
14234WAT     H142944   3.196   6.355   7.620
14234WAT     H242945   3.301   6.473   7.579
14235WAT      O42946   2.077   8.316   5.669
14235WAT     H142947   2.089   8.413   5.691
14235WAT     H242948   1.986   8.286   5.697
14236WAT      O42949   4.721   7.808   7.487
14236WAT     H142950   4.696   7.828   7.582
14236WAT     H242951   4.819   7.827   7.474
14237WAT      O42952   0.870   2.525   5.136
14237WAT     H142953   0.920   2.611   5.138
14237WAT     H242954   0.915   2.461   5.074
14238WAT      O42955   7.705   3.325   6.957
14238WAT     H142956   7.620   3.332   7.009
14238WAT     H242957   7.724   3.229   6.935
14239WAT      O42958   8.804   2.742   4.045
14239WAT     H142959   8.898   2.734   4.077
14239WAT     H242960   8.742   2.706   4.116
14240WAT      O42961   8.046   7.526   2.929
14240WAT     H142962   8.122   7.577   2.888
14240WAT     H242963   7.981   7.500   2.858
14241WAT      O42964   0.930   5.272   4.629
14241WAT     H142965   0.979   5.213   4.693
14241WAT     H242966   0.976   5.361   4.625
14242WAT      O42967   2.011   6.563   7.043
14242WAT     H142968   2.077   6.615   7.098
14242WAT     H242969   2.035   6.571   6.946
14243WAT      O42970   1.881   5.217   9.865
14243WAT     H142971   1.877   5.285   9.938
14243WAT     H242972   1.797   5.221   9.810
14244WAT      O42973   9.789   6.971   5.028
14244WAT     H142974   9.770   6.963   5.126
14244WAT     H242975   9.885   6.949   5.012
14245WAT      O42976   9.032   1.230   1.651
14245WAT     H142977   9.039   1.144   1.602
14245WAT     H242978   9.013   1.212   1.748
14246WAT      O42979   1.374   5.166   1.617
14246WAT     H142980   1.286   5.171   1.570
14246WAT     H242981   1.364   5.110   1.700
14247WAT      O42982   6.336   2.523   8.085
14247WAT     H142983   6.253   2.471   8.065
14247WAT     H242984   6.317   2.590   8.157
14248WAT      O42985   9.232   5.495   9.415
14248WAT     H142986   9.231   5.415   9.474
14248WAT     H242987   9.306   5.556   9.444
14249WAT      O42988   0.825   2.663   3.562
14249WAT     H142989   0.815   2.744   3.619
14249WAT     H242990   0.889   2.599   3.605
14250WAT      O42991   3.139   6.587   1.664
14250WAT     H142992   3.197   6.624   1.736
14250WAT     H242993   3.089   6.661   1.620
14251WAT      O42994   5.422   4.265   5.175
14251WAT     H142995   5.356   4.247   5.248
14251WAT     H242996   5.375   4.272   5.088
14252WAT      O42997   1.081   9.489   9.518
14252WAT     H142998   1.166   9.481   9.571
14252WAT     H242999   1.090   9.435   9.434
14253WAT      O43000   3.409   0.076   2.918
14253WAT     H143001   3.433   0.090   3.014
14253WAT     H243002   3.392  -0.021   2.902
14254WAT      O43003   8.829   9.219   5.321
14254WAT     H143004   8.781   9.232   5.234
14254WAT     H243005   8.826   9.123   5.347
14255WAT      O43006   8.871   6.944   0.542
14255WAT     H143007   8.805   6.985   0.479
14255WAT     H243008   8.961   6.985   0.527
14256WAT      O43009   3.144   2.028   8.610
14256WAT     H143010   3.212   2.085   8.564
14256WAT     H243011   3.159   2.031   8.709
14257WAT      O43012   3.713   9.725   8.311
14257WAT     H143013   3.735   9.633   8.344
14257WAT     H243014   3.726   9.791   8.385
14258WAT      O43015   0.427   8.950   5.834
14258WAT     H143016   0.458   8.856   5.846
14258WAT     H243017   0.336   8.950   5.792
14259WAT      O43018   1.764   4.784   5.112
14259WAT     H143019   1.668   4.808   5.124
14259WAT     H243020   1.771   4.701   5.057
14260WAT      O43021   5.731   8.438   8.767
14260WAT     H143022   5.661   8.397   8.709
14260WAT     H243023   5.692   8.516   8.816
14261WAT      O43024   3.167   3.715   1.472
14261WAT     H143025   3.137   3.619   1.466
14261WAT     H243026   3.145   3.751   1.563
14262WAT      O43027   1.027   7.409   9.462
14262WAT     H143028   1.089   7.360   9.523
14262WAT     H243029   1.019   7.361   9.375
14263WAT      O43030   8.486   0.767   4.176
14263WAT     H143031   8.455   0.856   4.207
14263WAT     H243032   8.480   0.762   4.076
14264WAT      O43033   2.465   6.799   9.769
14264WAT     H143034   2.475   6.836   9.862
14264WAT     H243035   2.545   6.743   9.748
14265WAT      O43036   3.190   4.320   6.663
14265WAT     H143037   3.270   4.322   6.603
14265WAT     H243038   3.214   4.360   6.752
14266WAT      O43039   5.132   1.451   0.218
14266WAT     H143040   5.151   1.408   0.129
14266WAT     H243041   5.069   1.527   0.205
14267WAT      O43042   6.896   7.127   8.049
14267WAT     H143043   6.942   7.214   8.069
14267WAT     H243044   6.808   7.145   8.006
14268WAT      O43045   1.195   2.820   2.195
14268WAT     H143046   1.163   2.732   2.161
14268WAT     H243047   1.197   2.818   2.295
14269WAT      O43048   3.520   5.266   2.597
14269WAT     H143049   3.459   5.346   2.603
14269WAT     H243050   3.536   5.230   2.688
14270WAT      O43051   5.117   6.638   8.856
14270WAT     H143052   5.020   6.660   8.863
14270WAT     H243053   5.139   6.562   8.917
14271WAT      O43054   2.825   0.103   1.780
14271WAT     H143055   2.784   0.092   1.870
14271WAT     H243056   2.760   0.075   1.709
14272WAT      O43057   1.602   5.554   3.060
14272WAT     H143058   1.664   5.495   3.008
14272WAT     H243059   1.586   5.514   3.150
14273WAT      O43060   2.173   9.582   4.692
14273WAT     H143061   2.258   9.611   4.648
14273WAT     H243062   2.163   9.627   4.780
14274WAT      O43063   1.252   9.295   5.953
14274WAT     H143064   1.223   9.206   5.918
14274WAT     H243065   1.260   9.361   5.878
14275WAT      O43066   8.960   2.757   4.443
14275WAT     H143067   8.993   2.740   4.350
14275WAT     H243068   9.037   2.754   4.506
14276WAT      O43069   6.246   1.826   6.539
14276WAT     H143070   6.147   1.816   6.547
14276WAT     H243071   6.278   1.776   6.459
14277WAT      O43072   0.534   2.208   3.726
14277WAT     H143073   0.478   2.183   3.805
14277WAT     H243074   0.533   2.308   3.714
14278WAT      O43075   4.544   3.606   0.717
14278WAT     H143076   4.461   3.640   0.762
14278WAT     H243077   4.532   3.510   0.693
14279WAT      O43078   2.916   4.339   6.253
14279WAT     H143079   2.987   4.375   6.192
14279WAT     H243080   2.901   4.403   6.328
14280WAT      O43081   4.533   0.486   1.114
14280WAT     H143082   4.515   0.425   1.192
14280WAT     H243083   4.481   0.454   1.035
14281WAT      O43084   4.269   4.462   7.000
14281WAT     H143085   4.363   4.492   7.016
14281WAT     H243086   4.256   4.447   6.902
14282WAT      O43087   0.341   6.099   8.411
14282WAT     H143088   0.294   6.087   8.323
14282WAT     H243089   0.380   6.191   8.416
14283WAT      O43090   3.285   7.320   0.917
14283WAT     H143091   3.266   7.340   1.013
14283WAT     H243092   3.209   7.352   0.861
14284WAT      O43093   5.953   1.147   5.473
14284WAT     H143094   6.037   1.180   5.431
14284WAT     H243095   5.875   1.169   5.414
14285WAT      O43096   9.080   0.663   1.880
14285WAT     H143097   9.082   0.563   1.880
14285WAT     H243098   9.057   0.696   1.971
14286WAT      O43099   3.586   4.654   4.419
14286WAT     H143100   3.649   4.588   4.462
14286WAT     H243101   3.600   4.744   4.460
14287WAT      O43102   2.823   0.334   9.880
14287WAT     H143103   2.745   0.383   9.920
14287WAT     H243104   2.801   0.309   9.785
14288WAT      O43105   1.926   4.934   7.677
14288WAT     H143106   1.869   4.859   7.644
14288WAT     H243107   2.021   4.905   7.680
14289WAT      O43108   8.751   4.591   4.320
14289WAT     H143109   8.795   4.573   4.232
14289WAT     H243110   8.800   4.543   4.392
14290WAT      O43111   0.449   8.918   2.959
14290WAT     H143112   0.427   8.988   2.891
14290WAT     H243113   0.458   8.829   2.912
14291WAT      O43114   0.595   1.572   8.881
14291WAT     H143115   0.524   1.534   8.940
14291WAT     H243116   0.645   1.497   8.837
14292WAT      O43117   1.615   6.360   9.083
14292WAT     H143118   1.670   6.430   9.037
14292WAT     H243119   1.646   6.350   9.178
14293WAT      O43120   6.127   1.670   2.212
14293WAT     H143121   6.042   1.684   2.162
14293WAT     H243122   6.204   1.673   2.148
14294WAT      O43123   2.178   4.585   0.201
14294WAT     H143124   2.163   4.655   0.132
14294WAT     H243125   2.197   4.628   0.289
14295WAT      O43126   3.251   1.034   6.281
14295WAT     H143127   3.151   1.032   6.277
14295WAT     H243128   3.281   1.122   6.317
14296WAT      O43129   0.314   6.774   6.107
14296WAT     H143130   0.390   6.732   6.056
14296WAT     H243131   0.285   6.857   6.059
14297WAT      O43132   6.837   9.263   0.764
14297WAT     H143133   6.937   9.267   0.766
14297WAT     H243134   6.802   9.323   0.691
14298WAT      O43135   0.001   2.228   8.059
14298WAT     H143136  -0.058   2.279   8.122
14298WAT     H243137   0.064   2.291   8.014
14299WAT      O43138   7.227   1.789   5.973
14299WAT     H143139   7.161   1.864   5.980
14299WAT     H243140   7.285   1.788   6.054
14300WAT      O43141   9.540   6.267   2.258
14300WAT     H143142   9.530   6.318   2.344
14300WAT     H243143   9.568   6.330   2.186
14301WAT      O43144   6.435   1.048   9.199
14301WAT     H143145   6.382   1.035   9.283
14301WAT     H243146   6.474   1.140   9.198
14302WAT      O43147   4.541   4.837   1.361
14302WAT     H143148   4.581   4.765   1.303
14302WAT     H243149   4.444   4.818   1.375
14303WAT      O43150   4.637   0.328   5.572
14303WAT     H143151   4.620   0.321   5.474
14303WAT     H243152   4.568   0.387   5.614
14304WAT      O43153   1.515   8.859   0.290
14304WAT     H143154   1.543   8.914   0.369
14304WAT     H243155   1.596   8.822   0.245
14305WAT      O43156   6.711   9.548   5.610
14305WAT     H143157   6.649   9.612   5.565
14305WAT     H243158   6.660   9.496   5.679
14306WAT      O43159   9.629   5.395   7.407
14306WAT     H143160   9.705   5.339   7.374
14306WAT     H243161   9.660   5.450   7.484
14307WAT      O43162   0.395   4.192   7.238
14307WAT     H143163   0.472   4.144   7.197
14307WAT     H243164   0.367   4.146   7.322
14308WAT      O43165   6.558   0.173   4.046
14308WAT     H143166   6.603   0.092   4.083
14308WAT     H243167   6.626   0.241   4.020
14309WAT      O43168   8.601   7.302   5.504
14309WAT     H143169   8.606   7.382   5.563
14309WAT     H243170   8.684   7.296   5.448
14310WAT      O43171   1.181   2.845   2.458
14310WAT     H143172   1.143   2.924   2.506
14310WAT     H243173   1.233   2.789   2.523
14311WAT      O43174   1.931   5.539   4.427
14311WAT     H143175   1.894   5.587   4.506
14311WAT     H243176   1.939   5.442   4.448
14312WAT      O43177   7.210   9.568   0.231
14312WAT     H143178   7.200   9.512   0.148
14312WAT     H243179   7.171   9.519   0.309
14313WAT      O43180   5.614   5.053   6.582
14313WAT     H143181   5.706   5.016   6.570
14313WAT     H243182   5.617   5.152   6.579
14314WAT      O43183   0.600   0.792   2.958
14314WAT     H143184   0.545   0.876   2.962
14314WAT     H243185   0.542   0.714   2.980
14315WAT      O43186   7.413   7.155   6.123
14315WAT     H143187   7.442   7.067   6.161
14315WAT     H243188   7.343   7.140   6.054
14316WAT      O43189   6.275   1.277   9.690
14316WAT     H143190   6.322   1.212   9.749
14316WAT     H243191   6.179   1.285   9.717
14317WAT      O43192   4.663   4.583   7.248
14317WAT     H143193   4.684   4.531   7.331
14317WAT     H243194   4.714   4.669   7.249
14318WAT      O43195   2.291   9.794   8.311
14318WAT     H143196   2.316   9.756   8.222
14318WAT     H243197   2.300   9.724   8.381
14319WAT      O43198   9.524   8.447   4.558
14319WAT     H143199   9.457   8.520   4.539
14319WAT     H243200   9.609   8.489   4.591
14320WAT      O43201   2.371   7.043   4.523
14320WAT     H143202   2.396   7.092   4.440
14320WAT     H243203   2.300   7.092   4.572
14321WAT      O43204   9.269   4.815   4.876
14321WAT     H143205   9.267   4.859   4.965
14321WAT     H243206   9.364   4.794   4.851
14322WAT      O43207   2.773   1.919   0.040
14322WAT     H143208   2.805   1.875  -0.044
14322WAT     H243209   2.676   1.941   0.031
14323WAT      O43210   2.706   1.113   9.309
14323WAT     H143211   2.702   1.212   9.294
14323WAT     H243212   2.777   1.074   9.251
14324WAT      O43213   3.453   1.392   4.216
14324WAT     H143214   3.363   1.411   4.177
14324WAT     H243215   3.446   1.388   4.315
14325WAT      O43216   0.258   2.547   2.120
14325WAT     H143217   0.303   2.579   2.204
14325WAT     H243218   0.313   2.474   2.079
14326WAT      O43219   8.996   2.914   8.934
14326WAT     H143220   8.998   2.816   8.914
14326WAT     H243221   9.014   2.965   8.849
14327WAT      O43222   7.963   1.673   0.380
14327WAT     H143223   7.943   1.591   0.433
14327WAT     H243224   8.044   1.718   0.418
14328WAT      O43225   5.706   6.571   2.567
14328WAT     H143226   5.785   6.515   2.590
14328WAT     H243227   5.735   6.667   2.558
14329WAT      O43228   5.411   3.979   9.441
14329WAT     H143229   5.395   3.895   9.389
14329WAT     H243230   5.350   4.051   9.406
14330WAT      O43231   7.816   2.026   2.385
14330WAT     H143232   7.871   1.964   2.330
14330WAT     H243233   7.744   1.974   2.432
14331WAT      O43234   7.251   3.384   0.026
14331WAT     H143235   7.249   3.472   0.074
14331WAT     H243236   7.192   3.389  -0.055
14332WAT      O43237   4.367   5.836   5.243
14332WAT     H143238   4.392   5.864   5.336
14332WAT     H243239   4.270   5.854   5.227
14333WAT      O43240   1.297   5.475   7.665
14333WAT     H143241   1.356   5.450   7.742
14333WAT     H243242   1.257   5.565   7.682
14334WAT      O43243   4.971   3.669   6.716
14334WAT     H143244   4.931   3.758   6.691
14334WAT     H243245   4.926   3.597   6.663
14335WAT      O43246   8.894   1.348   0.458
14335WAT     H143247   8.869   1.444   0.452
14335WAT     H243248   8.815   1.292   0.433
14336WAT      O43249   8.953   8.785   3.855
14336WAT     H143250   8.872   8.842   3.867
14336WAT     H243251   8.984   8.753   3.945
14337WAT      O43252   4.063   1.326   8.602
14337WAT     H143253   4.021   1.401   8.652
14337WAT     H243254   4.163   1.331   8.612
14338WAT      O43255   3.533   4.481   3.028
14338WAT     H143256   3.528   4.382   3.013
14338WAT     H243257   3.586   4.499   3.111
14339WAT      O43258   7.023   1.057   1.852
14339WAT     H143259   7.083   1.072   1.931
14339WAT     H243260   7.045   0.969   1.809
14340WAT      O43261   5.412   3.011   9.661
14340WAT     H143262   5.472   2.942   9.622
14340WAT     H243263   5.363   2.973   9.739
14341WAT      O43264   3.986   4.889   6.423
14341WAT     H143265   3.931   4.949   6.364
14341WAT     H243266   4.045   4.832   6.366
14342WAT      O43267   9.806   8.159   7.647
14342WAT     H143268   9.871   8.212   7.700
14342WAT     H243269   9.720   8.150   7.698
14343WAT      O43270   3.247   1.511   0.464
14343WAT     H143271   3.224   1.520   0.561
14343WAT     H243272   3.164   1.491   0.412
14344WAT      O43273   8.545   8.740   6.387
14344WAT     H143274   8.544   8.838   6.408
14344WAT     H243275   8.524   8.727   6.290
14345WAT      O43276   6.610   3.907   6.173
14345WAT     H143277   6.549   3.937   6.101
14345WAT     H243278   6.705   3.924   6.145
14346WAT      O43279   7.454   8.512   4.749
14346WAT     H143280   7.375   8.453   4.732
14346WAT     H243281   7.426   8.589   4.806
14347WAT      O43282   1.932   7.520   9.441
14347WAT     H143283   1.930   7.425   9.410
14347WAT     H243284   1.980   7.525   9.529
14348WAT      O43285   2.553   7.802   1.009
14348WAT     H143286   2.618   7.788   0.934
14348WAT     H243287   2.491   7.877   0.986
14349WAT      O43288   1.743   5.662   4.608
14349WAT     H143289   1.765   5.713   4.691
14349WAT     H243290   1.730   5.566   4.630
14350WAT      O43291   6.178   8.875   9.520
14350WAT     H143292   6.191   8.883   9.619
14350WAT     H243293   6.219   8.954   9.474
14351WAT      O43294   2.774   0.359   0.460
14351WAT     H143295   2.821   0.326   0.542
14351WAT     H243296   2.688   0.310   0.449
14352WAT      O43297   7.199   3.006   3.210
14352WAT     H143298   7.278   3.047   3.255
14352WAT     H243299   7.126   3.075   3.202
14353WAT      O43300   8.701   6.078   4.678
14353WAT     H143301   8.643   5.999   4.657
14353WAT     H243302   8.726   6.075   4.775
14354WAT      O43303   9.842   2.285   1.461
14354WAT     H143304   9.771   2.330   1.408
14354WAT     H243305   9.813   2.277   1.556
14355WAT      O43306   4.088   4.595   3.191
14355WAT     H143307   4.188   4.596   3.192
14355WAT     H243308   4.054   4.674   3.139
14356WAT      O43309   2.047   0.660   7.327
14356WAT     H143310   2.043   0.745   7.380
14356WAT     H243311   1.955   0.633   7.300
14357WAT      O43312   7.799   3.374   6.298
14357WAT     H143313   7.758   3.285   6.278
14357WAT     H243314   7.871   3.363   6.366
14358WAT      O43315   8.736   3.809   8.414
14358WAT     H143316   8.684   3.749   8.354
14358WAT     H243317   8.706   3.796   8.509
14359WAT      O43318   4.019   9.521   5.791
14359WAT     H143319   4.043   9.614   5.818
14359WAT     H243320   3.971   9.476   5.867
14360WAT      O43321   4.149   0.557   1.263
14360WAT     H143322   4.079   0.585   1.328
14360WAT     H243323   4.227   0.518   1.313
14361WAT      O43324   7.630   0.965   9.074
14361WAT     H143325   7.648   0.890   9.138
14361WAT     H243326   7.579   0.930   8.995
14362WAT      O43327   1.165   5.520   2.127
14362WAT     H143328   1.103   5.597   2.144
14362WAT     H243329   1.259   5.553   2.128
14363WAT      O43330   1.267   7.116   4.005
14363WAT     H143331   1.283   7.082   3.913
14363WAT     H243332   1.181   7.078   4.040
14364WAT      O43333   5.116   9.056   7.390
14364WAT     H143334   5.159   9.142   7.363
14364WAT     H243335   5.127   9.043   7.489
14365WAT      O43336   8.126   5.995   9.445
14365WAT     H143337   8.122   6.055   9.525
14365WAT     H243338   8.073   5.912   9.462
14366WAT      O43339   7.478   0.199   8.175
14366WAT     H143340   7.407   0.268   8.191
14366WAT     H243341   7.522   0.216   8.087
14367WAT      O43342   4.574   1.519   4.519
14367WAT     H143343   4.556   1.465   4.601
14367WAT     H243344   4.567   1.461   4.438
14368WAT      O43345   1.230   7.731   5.706
14368WAT     H143346   1.307   7.711   5.645
14368WAT     H243347   1.173   7.649   5.715
14369WAT      O43348   5.520   4.699   3.009
14369WAT     H143349   5.562   4.626   2.954
14369WAT     H243350   5.581   4.722   3.085
14370WAT      O43351   9.607   5.263   4.572
14370WAT     H143352   9.554   5.346   4.552
14370WAT     H243353   9.551   5.201   4.627
14371WAT      O43354   9.861   4.513   6.248
14371WAT     H143355   9.954   4.478   6.253
14371WAT     H243356   9.847   4.583   6.318
14372WAT      O43357   7.287   3.639   4.240
14372WAT     H143358   7.309   3.635   4.337
14372WAT     H243359   7.355   3.587   4.188
14373WAT      O43360   6.906   6.154   1.711
14373WAT     H143361   6.870   6.226   1.771
14373WAT     H243362   7.006   6.156   1.714
14374WAT      O43363   1.894   3.888   0.311
14374WAT     H143364   1.851   3.815   0.257
14374WAT     H243365   1.984   3.857   0.342
14375WAT      O43366   6.359   2.046   9.367
14375WAT     H143367   6.411   2.119   9.323
14375WAT     H243368   6.270   2.038   9.322
14376WAT      O43369   7.497   3.282   5.135
14376WAT     H143370   7.501   3.380   5.157
14376WAT     H243371   7.464   3.271   5.041
14377WAT      O43372   6.730   8.516   4.676
14377WAT     H143373   6.713   8.440   4.739
14377WAT     H243374   6.706   8.488   4.583
14378WAT      O43375   4.558   2.969   1.713
14378WAT     H143376   4.486   2.978   1.644
14378WAT     H243377   4.610   2.885   1.696
14379WAT      O43378   5.844   1.765   1.361
14379WAT     H143379   5.846   1.682   1.305
14379WAT     H243380   5.907   1.832   1.322
14380WAT      O43381   0.224   7.500   8.097
14380WAT     H143382   0.162   7.422   8.091
14380WAT     H243383   0.175   7.580   8.131
14381WAT      O43384   1.764   5.846   9.352
14381WAT     H143385   1.747   5.876   9.258
14381WAT     H243386   1.837   5.902   9.392
14382WAT      O43387   8.630   8.902   9.733
14382WAT     H143388   8.552   8.930   9.789
14382WAT     H243389   8.691   8.979   9.721
14383WAT      O43390   1.665   6.032   4.646
14383WAT     H143391   1.695   6.103   4.582
14383WAT     H243392   1.627   5.955   4.596
14384WAT      O43393   1.570   2.009   1.891
14384WAT     H143394   1.627   1.963   1.959
14384WAT     H243395   1.474   1.988   1.909
14385WAT      O43396   3.393   5.044   6.577
14385WAT     H143397   3.383   5.098   6.493
14385WAT     H243398   3.354   4.953   6.563
14386WAT      O43399   3.829   1.812   2.256
14386WAT     H143400   3.876   1.730   2.289
14386WAT     H243401   3.731   1.804   2.275
14387WAT      O43402   9.828   2.922   0.190
14387WAT     H143403   9.739   2.878   0.191
14387WAT     H243404   9.843   2.966   0.101
14388WAT      O43405   4.333   2.771   6.459
14388WAT     H143406   4.382   2.768   6.546
14388WAT     H243407   4.398   2.789   6.385
14389WAT      O43408   1.785   7.398   2.500
14389WAT     H143409   1.728   7.414   2.581
14389WAT     H243410   1.856   7.332   2.522
14390WAT      O43411   4.679   3.761   5.479
14390WAT     H143412   4.674   3.721   5.571
14390WAT     H243413   4.587   3.777   5.445
14391WAT      O43414   8.745   5.974   7.088
14391WAT     H143415   8.769   6.033   7.165
14391WAT     H243416   8.720   5.883   7.123
14392WAT      O43417   8.066   7.448   9.522
14392WAT     H143418   7.980   7.496   9.504
14392WAT     H243419   8.087   7.454   9.620
14393WAT      O43420   4.352   6.768   2.285
14393WAT     H143421   4.443   6.743   2.319
14393WAT     H243422   4.282   6.724   2.342
14394WAT      O43423   5.335   5.447   9.437
14394WAT     H143424   5.276   5.511   9.388
14394WAT     H243425   5.389   5.394   9.371
14395WAT      O43426   7.997   9.173   0.599
14395WAT     H143427   8.028   9.088   0.557
14395WAT     H243428   7.912   9.203   0.556
14396WAT      O43429   1.661   7.275   5.342
14396WAT     H143430   1.759   7.255   5.342
14396WAT     H243431   1.630   7.294   5.435
14397WAT      O43432   8.949   6.384   3.857
14397WAT     H143433   9.027   6.360   3.799
14397WAT     H243434   8.905   6.466   3.821
14398WAT      O43435   2.003   5.032   2.886
14398WAT     H143436   1.914   4.995   2.912
14398WAT     H243437   2.071   4.960   2.886
14399WAT      O43438   4.535   1.099   5.781
14399WAT     H143439   4.591   1.158   5.839
14399WAT     H243440   4.438   1.117   5.800
14400WAT      O43441   3.465   6.081   5.868
14400WAT     H143442   3.450   6.063   5.770
14400WAT     H243443   3.486   5.996   5.915
14401WAT      O43444   2.253   2.947   1.393
14401WAT     H143445   2.277   2.878   1.325
14401WAT     H243446   2.336   2.994   1.422
14402WAT      O43447   0.511   0.906   1.791
14402WAT     H143448   0.495   0.985   1.849
14402WAT     H243449   0.471   0.824   1.834
14403WAT      O43450   9.745   7.380   5.494
14403WAT     H143451   9.832   7.413   5.531
14403WAT     H243452   9.680   7.456   5.488
14404WAT      O43453   9.223   3.564   5.565
14404WAT     H143454   9.252   3.508   5.642
14404WAT     H243455   9.143   3.524   5.522
14405WAT      O43456   8.554   6.361   7.634
14405WAT     H143457   8.584   6.344   7.540
14405WAT     H243458   8.495   6.442   7.636
14406WAT      O43459   3.159   0.563   4.580
14406WAT     H143460   3.214   0.479   4.577
14406WAT     H243461   3.062   0.539   4.570
14407WAT      O43462   4.836   9.557   7.583
14407WAT     H143463   4.745   9.593   7.562
14407WAT     H243464   4.902   9.589   7.515
14408WAT      O43465   8.936   6.351   0.758
14408WAT     H143466   8.837   6.364   0.754
14408WAT     H243467   8.980   6.437   0.785
14409WAT      O43468   9.026   4.250   6.492
14409WAT     H143469   9.012   4.345   6.466
14409WAT     H243470   9.050   4.196   6.411
14410WAT      O43471   7.043   0.795   2.028
14410WAT     H143472   6.966   0.845   2.067
14410WAT     H243473   7.016   0.700   2.012
14411WAT      O43474   9.077   7.204   3.338
14411WAT     H143475   9.069   7.267   3.260
14411WAT     H243476   9.173   7.181   3.352
14412WAT      O43477   2.245   7.135   6.955
14412WAT     H143478   2.168   7.072   6.969
14412WAT     H243479   2.329   7.090   6.987
14413WAT      O43480   2.073   1.584   9.306
14413WAT     H143481   2.019   1.529   9.369
14413WAT     H243482   2.141   1.526   9.260
14414WAT      O43483   1.140   2.954   8.750
14414WAT     H143484   1.043   2.971   8.768
14414WAT     H243485   1.183   2.917   8.832
14415WAT      O43486   1.872   5.912   5.334
14415WAT     H143487   1.962   5.955   5.338
14415WAT     H243488   1.821   5.949   5.256
14416WAT      O43489   8.077   7.414   6.122
14416WAT     H143490   8.109   7.351   6.193
14416WAT     H243491   8.027   7.490   6.165
14417WAT      O43492   8.881   7.265   4.603
14417WAT     H143493   8.976   7.251   4.629
14417WAT     H243494   8.821   7.242   4.679
14418WAT      O43495   1.547   8.033   3.068
14418WAT     H143496   1.577   8.021   3.162
14418WAT     H243497   1.475   8.102   3.064
14419WAT      O43498   9.347   7.312   1.761
14419WAT     H143499   9.352   7.331   1.663
14419WAT     H243500   9.424   7.357   1.807
14420WAT      O43501   0.226   0.786   0.206
14420WAT     H143502   0.262   0.869   0.163
14420WAT     H243503   0.138   0.807   0.249
14421WAT      O43504   9.538   1.036   5.553
14421WAT     H143505   9.530   1.069   5.458
14421WAT     H243506   9.447   1.032   5.594
14422WAT      O43507   6.170   0.077   5.391
14422WAT     H143508   6.159   0.033   5.302
14422WAT     H243509   6.095   0.049   5.452
14423WAT      O43510   2.612   5.062   2.231
14423WAT     H143511   2.693   5.028   2.277
14423WAT     H243512   2.537   5.070   2.297
14424WAT      O43513   0.483   4.841   9.639
14424WAT     H143514   0.521   4.761   9.593
14424WAT     H243515   0.497   4.922   9.581
14425WAT      O43516   6.413   2.589   9.258
14425WAT     H143517   6.367   2.504   9.233
14425WAT     H243518   6.484   2.569   9.326
14426WAT      O43519   2.884   4.618   1.354
14426WAT     H143520   2.822   4.689   1.321
14426WAT     H243521   2.838   4.529   1.351
14427WAT      O43522   9.386   2.262   6.040
14427WAT     H143523   9.451   2.192   6.066
14427WAT     H243524   9.320   2.225   5.974
14428WAT      O43525   2.543   3.682   3.766
14428WAT     H143526   2.450   3.704   3.739
14428WAT     H243527   2.542   3.627   3.849
14429WAT      O43528   0.360   7.181   1.663
14429WAT     H143529   0.318   7.233   1.737
14429WAT     H243530   0.295   7.113   1.630
14430WAT      O43531   4.907   8.922   4.509
14430WAT     H143532   4.925   8.936   4.606
14430WAT     H243533   4.845   8.844   4.497
14431WAT      O43534   7.930   7.771   1.043
14431WAT     H143535   7.898   7.698   1.103
14431WAT     H243536   8.028   7.786   1.058
14432WAT      O43537   9.234   5.402   4.463
14432WAT     H143538   9.330   5.416   4.486
14432WAT     H243539   9.208   5.464   4.389
14433WAT      O43540   9.085   6.979   7.319
14433WAT     H143541   9.109   6.986   7.223
14433WAT     H243542   9.127   6.897   7.358
14434WAT      O43543   3.727   5.812   7.220
14434WAT     H143544   3.663   5.738   7.239
14434WAT     H243545   3.820   5.776   7.221
14435WAT      O43546   4.899   2.254   5.449
14435WAT     H143547   4.898   2.193   5.370
14435WAT     H243548   4.865   2.344   5.422
14436WAT      O43549   6.456   0.093   6.227
14436WAT     H143550   6.534   0.043   6.189
14436WAT     H243551   6.479   0.127   6.318
14437WAT      O43552   5.828   1.114   6.411
14437WAT     H143553   5.910   1.057   6.407
14437WAT     H243554   5.779   1.107   6.324
14438WAT      O43555   8.944   7.855   6.390
14438WAT     H143556   8.951   7.756   6.376
14438WAT     H243557   8.863   7.875   6.444
14439WAT      O43558   7.193   4.658   6.244
14439WAT     H143559   7.250   4.693   6.169
14439WAT     H243560   7.105   4.706   6.243
14440WAT      O43561   7.782   4.453   5.589
14440WAT     H143562   7.711   4.404   5.538
14440WAT     H243563   7.744   4.485   5.676
14441WAT      O43564   6.193   7.925   1.431
14441WAT     H143565   6.100   7.944   1.464
14441WAT     H243566   6.255   7.997   1.462
14442WAT      O43567   5.348   8.748   7.091
14442WAT     H143568   5.280   8.816   7.119
14442WAT     H243569   5.429   8.756   7.149
14443WAT      O43570   7.488   0.122   1.716
14443WAT     H143571   7.444   0.201   1.673
14443WAT     H243572   7.418   0.060   1.752
14444WAT      O43573   4.969   1.053   8.155
14444WAT     H143574   5.026   0.975   8.179
14444WAT     H243575   4.936   1.098   8.239
14445WAT      O43576   2.161   3.223   8.719
14445WAT     H143577   2.067   3.198   8.696
14445WAT     H243578   2.162   3.280   8.801
14446WAT      O43579   3.282   5.096   3.514
14446WAT     H143580   3.260   5.007   3.473
14446WAT     H243581   3.256   5.095   3.611
14447WAT      O43582   0.594   8.702   2.231
14447WAT     H143583   0.671   8.673   2.288
14447WAT     H243584   0.606   8.797   2.206
14448WAT      O43585   7.870   2.711   8.355
14448WAT     H143586   7.926   2.793   8.371
14448WAT     H243587   7.886   2.646   8.428
14449WAT      O43588   3.851   8.458   9.410
14449WAT     H143589   3.812   8.539   9.367
14449WAT     H243590   3.870   8.476   9.506
14450WAT      O43591   4.256   6.067   2.699
14450WAT     H143592   4.271   6.073   2.798
14450WAT     H243593   4.158   6.057   2.681
14451WAT      O43594   3.745   7.689   1.356
14451WAT     H143595   3.778   7.678   1.262
14451WAT     H243596   3.646   7.677   1.359
14452WAT      O43597   6.959   0.718   4.842
14452WAT     H143598   7.043   0.766   4.817
14452WAT     H243599   6.947   0.722   4.941
14453WAT      O43600   2.699   1.419   7.734
14453WAT     H143601   2.621   1.480   7.746
14453WAT     H243602   2.772   1.445   7.797
14454WAT      O43603   0.938   3.494   3.807
14454WAT     H143604   0.981   3.582   3.784
14454WAT     H243605   0.917   3.493   3.905
14455WAT      O43606   0.731   0.903   8.934
14455WAT     H143607   0.723   0.809   8.967
14455WAT     H243608   0.827   0.922   8.912
14456WAT      O43609   2.662   4.701   3.242
14456WAT     H143610   2.700   4.612   3.266
14456WAT     H243611   2.705   4.736   3.159
14457WAT      O43612   2.963   3.782   7.224
14457WAT     H143613   2.983   3.776   7.126
14457WAT     H243614   2.930   3.694   7.256
14458WAT      O43615   3.727   2.093   6.859
14458WAT     H143616   3.771   2.182   6.869
14458WAT     H243617   3.744   2.058   6.767
14459WAT      O43618   3.457   7.453   3.861
14459WAT     H143619   3.496   7.460   3.953
14459WAT     H243620   3.526   7.477   3.793
14460WAT      O43621   9.569   8.827   8.955
14460WAT     H143622   9.509   8.907   8.964
14460WAT     H243623   9.656   8.856   8.915
14461WAT      O43624   9.389   1.021   6.678
14461WAT     H143625   9.404   0.928   6.713
14461WAT     H243626   9.408   1.023   6.579
14462WAT      O43627   3.431   6.269   5.155
14462WAT     H143628   3.353   6.324   5.183
14462WAT     H243629   3.516   6.320   5.170
14463WAT      O43630   9.786   7.397   4.374
14463WAT     H143631   9.832   7.309   4.379
14463WAT     H243632   9.712   7.400   4.441
14464WAT      O43633   8.039   3.993   4.629
14464WAT     H143634   8.125   3.949   4.603
14464WAT     H243635   7.984   3.929   4.684
14465WAT      O43636   8.483   5.729   3.967
14465WAT     H143637   8.537   5.663   3.915
14465WAT     H243638   8.402   5.756   3.914
14466WAT      O43639   8.733   7.976   0.017
14466WAT     H143640   8.662   7.953  -0.050
14466WAT     H243641   8.785   8.055  -0.015
14467WAT      O43642   7.411   1.951   6.400
14467WAT     H143643   7.478   1.958   6.326
14467WAT     H243644   7.444   2.003   6.479
14468WAT      O43645   7.524   8.174   7.876
14468WAT     H143646   7.522   8.220   7.787
14468WAT     H243647   7.455   8.102   7.877
14469WAT      O43648   1.039   9.716   7.825
14469WAT     H143649   0.984   9.773   7.886
14469WAT     H243650   1.126   9.694   7.868
14470WAT      O43651   8.531   9.458   5.610
14470WAT     H143652   8.597   9.484   5.680
14470WAT     H243653   8.461   9.528   5.602
14471WAT      O43654   0.901   2.785   6.945
14471WAT     H143655   0.841   2.863   6.962
14471WAT     H243656   0.940   2.754   7.031
14472WAT      O43657   9.196   1.739   5.699
14472WAT     H143658   9.254   1.745   5.780
14472WAT     H243659   9.204   1.648   5.658
14473WAT      O43660   5.399   9.178   4.597
14473WAT     H143661   5.454   9.127   4.663
14473WAT     H243662   5.459   9.222   4.531
14474WAT      O43663   4.947   3.650   2.054
14474WAT     H143664   4.893   3.670   2.137
14474WAT     H243665   5.022   3.589   2.077
14475WAT      O43666   1.797   0.763   6.552
14475WAT     H143667   1.815   0.675   6.507
14475WAT     H243668   1.789   0.835   6.483
14476WAT      O43669   0.271   4.880   2.747
14476WAT     H143670   0.352   4.889   2.688
14476WAT     H243671   0.296   4.834   2.832
14477WAT      O43672   7.461   8.192   9.883
14477WAT     H143673   7.532   8.140   9.836
14477WAT     H243674   7.396   8.129   9.925
14478WAT      O43675   5.152   9.399   2.697
14478WAT     H143676   5.190   9.354   2.616
14478WAT     H243677   5.059   9.366   2.713
14479WAT      O43678   6.706   5.400   2.629
14479WAT     H143679   6.670   5.315   2.592
14479WAT     H243680   6.795   5.383   2.670
14480WAT      O43681   8.572   7.308   8.286
14480WAT     H143682   8.615   7.314   8.196
14480WAT     H243683   8.472   7.317   8.276
14481WAT      O43684   6.619   2.087   6.088
14481WAT     H143685   6.522   2.073   6.108
14481WAT     H243686   6.631   2.090   5.988
14482WAT      O43687   1.432   1.898   4.278
14482WAT     H143688   1.358   1.955   4.240
14482WAT     H243689   1.513   1.907   4.219
14483WAT      O43690   6.514   2.246   1.662
14483WAT     H143691   6.600   2.202   1.635
14483WAT     H243692   6.525   2.345   1.659
14484WAT      O43693   6.773   2.826   9.704
14484WAT     H143694   6.853   2.874   9.738
14484WAT     H243695   6.714   2.802   9.781
14485WAT      O43696   1.477   3.104   5.032
14485WAT     H143697   1.547   3.115   4.962
14485WAT     H243698   1.398   3.161   5.008
14486WAT      O43699   6.695   4.612   1.854
14486WAT     H143700   6.603   4.623   1.891
14486WAT     H243701   6.706   4.518   1.820
14487WAT      O43702   2.171   9.692   4.940
14487WAT     H143703   2.174   9.791   4.950
14487WAT     H243704   2.158   9.650   5.030
14488WAT      O43705   6.368   8.859   6.938
14488WAT     H143706   6.333   8.912   7.015
14488WAT     H243707   6.442   8.800   6.969
14489WAT      O43708   6.215   0.312   7.809
14489WAT     H143709   6.200   0.405   7.845
14489WAT     H243710   6.127   0.274   7.779
14490WAT      O43711   3.568   0.916   2.547
14490WAT     H143712   3.662   0.944   2.565
14490WAT     H243713   3.566   0.819   2.523
14491WAT      O43714   6.168   4.762   1.072
14491WAT     H143715   6.212   4.824   1.137
14491WAT     H243716   6.239   4.716   1.018
14492WAT      O43717   6.014   3.725   8.793
14492WAT     H143718   5.970   3.722   8.703
14492WAT     H243719   6.072   3.806   8.799
14493WAT      O43720   1.892   8.262   9.088
14493WAT     H143721   1.945   8.201   9.029
14493WAT     H243722   1.954   8.310   9.150
14494WAT      O43723   5.249   2.760   1.728
14494WAT     H143724   5.304   2.774   1.810
14494WAT     H243725   5.309   2.745   1.649
14495WAT      O43726   8.591   3.235   1.684
14495WAT     H143727   8.668   3.240   1.748
14495WAT     H243728   8.506   3.246   1.734
14496WAT      O43729   6.338   5.523   2.300
14496WAT     H143730   6.300   5.573   2.378
14496WAT     H243731   6.435   5.544   2.291
14497WAT      O43732   8.695   5.169   6.232
14497WAT     H143733   8.732   5.262   6.226
14497WAT     H243734   8.596   5.171   6.222
14498WAT      O43735   2.739   2.406   7.124
14498WAT     H143736   2.826   2.371   7.157
14498WAT     H243737   2.685   2.439   7.202
14499WAT      O43738   9.520   6.281   6.785
14499WAT     H143739   9.601   6.222   6.785
14499WAT     H243740   9.541   6.365   6.834
14500WAT      O43741   7.927   1.074   2.597
14500WAT     H143742   7.828   1.078   2.603
14500WAT     H243743   7.962   1.006   2.662
14501WAT      O43744   7.675   1.107   1.042
14501WAT     H143745   7.658   1.188   1.098
14501WAT     H243746   7.676   1.133   0.945
14502WAT      O43747   3.101   7.889   5.494
14502WAT     H143748   3.088   7.822   5.567
14502WAT     H243749   3.012   7.921   5.462
14503WAT      O43750   5.041   2.227   4.451
14503WAT     H143751   5.134   2.222   4.487
14503WAT     H243752   5.032   2.165   4.373
14504WAT      O43753   0.814   8.601   6.349
14504WAT     H143754   0.840   8.645   6.263
14504WAT     H243755   0.715   8.605   6.361
14505WAT      O43756   0.721   1.004   7.889
14505WAT     H143757   0.706   1.039   7.981
14505WAT     H243758   0.753   0.909   7.893
14506WAT      O43759   9.474   9.188   2.715
14506WAT     H143760   9.500   9.118   2.649
14506WAT     H243761   9.539   9.188   2.791
14507WAT      O43762   9.388   0.639   5.420
14507WAT     H143763   9.430   0.606   5.335
14507WAT     H243764   9.440   0.717   5.455
14508WAT      O43765   5.551   9.510   3.156
14508WAT     H143766   5.524   9.436   3.095
14508WAT     H243767   5.474   9.571   3.172
14509WAT      O43768   0.094   1.373   9.495
14509WAT     H143769   0.163   1.302   9.511
14509WAT     H243770   0.107   1.448   9.560
14510WAT      O43771   5.083   7.509   5.554
14510WAT     H143772   5.110   7.604   5.541
14510WAT     H243773   5.039   7.475   5.471
14511WAT      O43774   8.022   4.004   5.199
14511WAT     H143775   8.077   3.960   5.270
14511WAT     H243776   7.925   3.996   5.223
14512WAT      O43777   8.967   0.065   4.833
14512WAT     H143778   8.871   0.061   4.862
14512WAT     H243779   8.986   0.156   4.796
14513WAT      O43780   0.231   4.939   2.138
14513WAT     H143781   0.330   4.938   2.141
14513WAT     H243782   0.195   4.975   2.223
14514WAT      O43783   5.045   1.370   0.656
14514WAT     H143784   5.035   1.358   0.557
14514WAT     H243785   5.099   1.453   0.673
14515WAT      O43786   9.507   5.192   0.763
14515WAT     H143787   9.431   5.131   0.788
14515WAT     H243788   9.478   5.287   0.772
14516WAT      O43789   2.789   9.451   1.164
14516WAT     H143790   2.885   9.428   1.181
14516WAT     H243791   2.730   9.385   1.210
14517WAT      O43792   0.059   8.116   0.991
14517WAT     H143793   0.132   8.075   0.937
14517WAT     H243794   0.025   8.049   1.057
14518WAT      O43795   5.888   9.746   4.998
14518WAT     H143796   5.908   9.801   4.917
14518WAT     H243797   5.824   9.795   5.057
14519WAT      O43798   1.807   7.793   4.849
14519WAT     H143799   1.859   7.708   4.849
14519WAT     H243800   1.763   7.805   4.760
14520WAT      O43801   6.276   8.864   2.903
14520WAT     H143802   6.369   8.883   2.874
14520WAT     H243803   6.222   8.949   2.901
14521WAT      O43804   7.877   9.290   9.192
14521WAT     H143805   7.824   9.257   9.269
14521WAT     H243806   7.819   9.344   9.131
14522WAT      O43807   3.353   6.471   4.753
14522WAT     H143808   3.407   6.544   4.710
14522WAT     H243809   3.280   6.512   4.807
14523WAT      O43810   7.716   9.426   8.790
14523WAT     H143811   7.716   9.469   8.880
14523WAT     H243812   7.643   9.358   8.785
14524WAT      O43813   9.878   3.971   4.089
14524WAT     H143814   9.839   3.880   4.089
14524WAT     H243815   9.850   4.020   4.005
14525WAT      O43816   9.737   8.896   5.711
14525WAT     H143817   9.735   8.829   5.636
14525WAT     H243818   9.743   8.988   5.672
14526WAT      O43819   1.876   3.508   1.573
14526WAT     H143820   1.807   3.521   1.502
14526WAT     H243821   1.925   3.422   1.556
14527WAT      O43822   3.928   8.700   2.022
14527WAT     H143823   3.854   8.634   2.014
14527WAT     H243824   3.936   8.730   2.117
14528WAT      O43825   3.186   6.268   3.583
14528WAT     H143826   3.242   6.347   3.608
14528WAT     H243827   3.244   6.193   3.555
14529WAT      O43828   1.929   9.040   7.962
14529WAT     H143829   1.949   9.131   7.923
14529WAT     H243830   1.940   9.044   8.061
14530WAT      O43831   6.537   3.792   5.684
14530WAT     H143832   6.471   3.737   5.633
14530WAT     H243833   6.552   3.751   5.774
14531WAT      O43834   8.355   3.535   1.528
14531WAT     H143835   8.354   3.633   1.542
14531WAT     H243836   8.302   3.490   1.599
14532WAT      O43837   4.606   6.292   3.918
14532WAT     H143838   4.546   6.333   3.987
14532WAT     H243839   4.701   6.296   3.950
14533WAT      O43840   9.689   3.801   5.889
14533WAT     H143841   9.698   3.882   5.831
14533WAT     H243842   9.598   3.760   5.875
14534WAT      O43843   9.531   8.142   1.805
14534WAT     H143844   9.518   8.240   1.815
14534WAT     H243845   9.528   8.098   1.895
14535WAT      O43846   6.161   0.706   1.494
14535WAT     H143847   6.161   0.611   1.523
14535WAT     H243848   6.236   0.755   1.538
14536WAT      O43849   9.397   3.079   0.266
14536WAT     H143850   9.409   3.005   0.199
14536WAT     H243851   9.311   3.068   0.314
14537WAT      O43852   6.437   0.842   7.072
14537WAT     H143853   6.417   0.933   7.108
14537WAT     H243854   6.533   0.837   7.044
14538WAT      O43855   9.290   0.867   1.333
14538WAT     H143856   9.323   0.955   1.300
14538WAT     H243857   9.270   0.808   1.255
14539WAT      O43858   9.704   8.685   5.548
14539WAT     H143859   9.688   8.728   5.459
14539WAT     H243860   9.617   8.656   5.587
14540WAT      O43861   7.293   5.780   0.339
14540WAT     H143862   7.372   5.731   0.301
14540WAT     H243863   7.301   5.783   0.438
14541WAT      O43864   1.175   0.423   5.355
14541WAT     H143865   1.131   0.493   5.411
14541WAT     H243866   1.274   0.432   5.361
14542WAT      O43867   9.709   3.522   7.748
14542WAT     H143868   9.657   3.508   7.833
14542WAT     H243869   9.705   3.440   7.692
14543WAT      O43870   4.042   6.437   6.618
14543WAT     H143871   4.083   6.476   6.535
14543WAT     H243872   3.943   6.439   6.610
14544WAT      O43873   0.709   5.144   6.547
14544WAT     H143874   0.659   5.101   6.623
14544WAT     H243875   0.668   5.116   6.460
14545WAT      O43876   2.993   5.161   7.799
14545WAT     H143877   2.992   5.260   7.779
14545WAT     H243878   2.902   5.133   7.829
14546WAT      O43879   9.435   9.203   6.659
14546WAT     H143880   9.531   9.204   6.629
14546WAT     H243881   9.431   9.218   6.758
14547WAT      O43882   3.016   2.110   2.121
14547WAT     H143883   2.982   2.027   2.076
14547WAT     H243884   3.110   2.096   2.151
14548WAT      O43885   6.711   1.498   1.680
14548WAT     H143886   6.630   1.528   1.630
14548WAT     H243887   6.771   1.447   1.618
14549WAT      O43888   1.036   1.902   9.781
14549WAT     H143889   0.946   1.866   9.806
14549WAT     H243890   1.064   1.970   9.849
14550WAT      O43891   8.826   7.942   6.820
14550WAT     H143892   8.912   7.925   6.869
14550WAT     H243893   8.843   7.942   6.722
14551WAT      O43894   7.187   5.151   7.712
14551WAT     H143895   7.092   5.129   7.692
14551WAT     H243896   7.194   5.185   7.806
14552WAT      O43897   4.408   0.808   1.655
14552WAT     H143898   4.398   0.836   1.750
14552WAT     H243899   4.388   0.886   1.595
14553WAT      O43900   3.853   6.185   5.828
14553WAT     H143901   3.799   6.268   5.812
14553WAT     H243902   3.830   6.148   5.918
14554WAT      O43903   2.875   6.513   7.963
14554WAT     H143904   2.850   6.426   7.921
14554WAT     H243905   2.816   6.532   8.041
14555WAT      O43906   6.007   7.621   3.194
14555WAT     H143907   5.970   7.713   3.200
14555WAT     H243908   5.936   7.558   3.162
14556WAT      O43909   8.396   4.762   8.573
14556WAT     H143910   8.441   4.752   8.485
14556WAT     H243911   8.418   4.850   8.613
14557WAT      O43912   4.516   1.851   7.260
14557WAT     H143913   4.495   1.883   7.352
14557WAT     H243914   4.450   1.781   7.234
14558WAT      O43915   6.027   4.651   2.807
14558WAT     H143916   5.965   4.594   2.752
14558WAT     H243917   5.999   4.646   2.903
14559WAT      O43918   2.708   0.157   5.705
14559WAT     H143919   2.740   0.252   5.709
14559WAT     H243920   2.700   0.128   5.610
14560WAT      O43921   3.321   2.677   3.332
14560WAT     H143922   3.418   2.665   3.352
14560WAT     H243923   3.308   2.688   3.233
14561WAT      O43924   0.500   4.865   3.296
14561WAT     H143925   0.519   4.805   3.373
14561WAT     H243926   0.410   4.906   3.306
14562WAT      O43927   7.044   4.035   3.075
14562WAT     H143928   7.038   4.022   2.976
14562WAT     H243929   7.021   4.129   3.098
14563WAT      O43930   2.782   2.454   5.997
14563WAT     H143931   2.861   2.440   6.056
14563WAT     H243932   2.753   2.366   5.960
14564WAT      O43933   1.357   0.533   7.305
14564WAT     H143934   1.309   0.569   7.386
14564WAT     H243935   1.403   0.608   7.258
14565WAT      O43936   2.349   2.850   5.694
14565WAT     H143937   2.411   2.776   5.719
14565WAT     H243938   2.321   2.899   5.776
14566WAT      O43939   7.998   7.528   4.338
14566WAT     H143940   7.902   7.501   4.327
14566WAT     H243941   8.054   7.446   4.348
14567WAT      O43942   4.403   6.194   0.973
14567WAT     H143943   4.495   6.159   0.992
14567WAT     H243944   4.340   6.162   1.044
14568WAT      O43945   9.366   8.239   4.464
14568WAT     H143946   9.442   8.297   4.494
14568WAT     H243947   9.284   8.296   4.454
14569WAT      O43948   0.585   5.898   9.864
14569WAT     H143949   0.571   5.997   9.876
14569WAT     H243950   0.504   5.859   9.821
14570WAT      O43951   4.088   3.444   8.616
14570WAT     H143952   4.016   3.384   8.650
14570WAT     H243953   4.145   3.395   8.550
14571WAT      O43954   2.588   2.872   0.518
14571WAT     H143955   2.611   2.948   0.578
14571WAT     H243956   2.661   2.859   0.451
14572WAT      O43957   4.796   1.944   1.543
14572WAT     H143958   4.869   1.876   1.551
14572WAT     H243959   4.730   1.930   1.617
14573WAT      O43960   0.552   5.961   8.335
14573WAT     H143961   0.468   6.011   8.356
14573WAT     H243962   0.614   5.964   8.413
14574WAT      O43963   8.043   1.424   5.705
14574WAT     H143964   8.002   1.454   5.620
14574WAT     H243965   8.125   1.478   5.724
14575WAT      O43966   0.163   6.008   9.358
14575WAT     H143967   0.108   6.031   9.277
14575WAT     H243968   0.102   5.985   9.434
14576WAT      O43969   7.882   3.284   8.641
14576WAT     H143970   7.982   3.286   8.640
14576WAT     H243971   7.847   3.349   8.574
14577WAT      O43972   8.656   6.416   3.360
14577WAT     H143973   8.625   6.327   3.326
14577WAT     H243974   8.737   6.445   3.309
14578WAT      O43975   5.306   6.319   6.677
14578WAT     H143976   5.371   6.391   6.654
14578WAT     H243977   5.226   6.325   6.617
14579WAT      O43978   4.491   7.336   2.204
14579WAT     H143979   4.398   7.372   2.199
14579WAT     H243980   4.547   7.378   2.133
14580WAT      O43981   8.827   7.852   1.928
14580WAT     H143982   8.855   7.948   1.923
14580WAT     H243983   8.831   7.812   1.836
14581WAT      O43984   4.003   2.016   4.094
14581WAT     H143985   3.993   2.064   4.181
14581WAT     H243986   4.009   1.918   4.110
14582WAT      O43987   3.497   6.965   3.947
14582WAT     H143988   3.523   6.944   3.853
14582WAT     H243989   3.431   6.897   3.979
14583WAT      O43990   0.231   3.438   1.174
14583WAT     H143991   0.294   3.497   1.225
14583WAT     H243992   0.165   3.494   1.125
14584WAT      O43993   1.673   5.112   7.289
14584WAT     H143994   1.625   5.103   7.202
14584WAT     H243995   1.607   5.135   7.361
14585WAT      O43996   4.396   7.332   8.155
14585WAT     H143997   4.373   7.312   8.250
14585WAT     H243998   4.452   7.414   8.151
14586WAT      O43999   7.252   0.838   8.429
14586WAT     H144000   7.226   0.742   8.441
14586WAT     H244001   7.170   0.895   8.433
14587WAT      O44002   5.803   3.117   9.857
14587WAT     H144003   5.731   3.135   9.791
14587WAT     H244004   5.786   3.170   9.941
14588WAT      O44005   4.245   7.454   2.178
14588WAT     H144006   4.169   7.476   2.239
14588WAT     H244007   4.212   7.400   2.101
14589WAT      O44008   7.819   3.460   3.169
14589WAT     H144009   7.837   3.362   3.169
14589WAT     H244010   7.800   3.491   3.076
14590WAT      O44011   1.114   6.556   9.558
14590WAT     H144012   1.182   6.509   9.502
14590WAT     H244013   1.033   6.575   9.502
14591WAT      O44014   9.817   3.283   2.017
14591WAT     H144015   9.722   3.314   2.009
14591WAT     H244016   9.856   3.272   1.925
14592WAT      O44017   2.018   0.596   3.719
14592WAT     H144018   1.961   0.678   3.722
14592WAT     H244019   2.113   0.620   3.738
14593WAT      O44020   4.179   1.352   7.207
14593WAT     H144021   4.157   1.412   7.284
14593WAT     H244022   4.107   1.283   7.197
14594WAT      O44023   2.019   6.883   4.711
14594WAT     H144024   1.969   6.883   4.798
14594WAT     H244025   1.982   6.812   4.652
14595WAT      O44026   0.736   6.796   9.685
14595WAT     H144027   0.758   6.698   9.686
14595WAT     H244028   0.663   6.813   9.620
14596WAT      O44029   9.321   3.940   5.009
14596WAT     H144030   9.411   3.954   5.050
14596WAT     H244031   9.280   3.857   5.045
14597WAT      O44032   0.805   6.831   1.514
14597WAT     H144033   0.730   6.880   1.468
14597WAT     H244034   0.801   6.734   1.489
14598WAT      O44035   6.697   7.861   2.237
14598WAT     H144036   6.609   7.904   2.256
14598WAT     H244037   6.722   7.876   2.142
14599WAT      O44038   0.247   7.328   1.868
14599WAT     H144039   0.303   7.398   1.912
14599WAT     H244040   0.220   7.259   1.935
14600WAT      O44041   4.079   4.679   7.395
14600WAT     H144042   3.998   4.651   7.447
14600WAT     H244043   4.092   4.778   7.403
14601WAT      O44044   5.584   9.154   8.915
14601WAT     H144045   5.490   9.182   8.897
14601WAT     H244046   5.638   9.234   8.943
14602WAT      O44047   1.625   5.749   1.734
14602WAT     H144048   1.673   5.691   1.799
14602WAT     H244049   1.691   5.799   1.678
14603WAT      O44050   5.849   3.776   8.546
14603WAT     H144051   5.786   3.715   8.497
14603WAT     H244052   5.937   3.777   8.498
14604WAT      O44053   1.777   4.660   6.172
14604WAT     H144054   1.868   4.702   6.175
14604WAT     H244055   1.707   4.731   6.172
14605WAT      O44056   5.252   4.336   8.556
14605WAT     H144057   5.291   4.349   8.648
14605WAT     H244058   5.261   4.421   8.504
14606WAT      O44059   0.965   0.231   0.841
14606WAT     H144060   0.999   0.182   0.761
14606WAT     H244061   1.025   0.308   0.860
14607WAT      O44062   2.871   4.307   3.525
14607WAT     H144063   2.964   4.288   3.555
14607WAT     H244064   2.834   4.384   3.578
14608WAT      O44065   9.279   5.917   1.501
14608WAT     H144066   9.317   6.009   1.498
14608WAT     H244067   9.354   5.850   1.497
14609WAT      O44068   7.776   7.074   9.242
14609WAT     H144069   7.874   7.074   9.221
14609WAT     H244070   7.761   7.115   9.332
14610WAT      O44071   8.321   1.114   5.799
14610WAT     H144072   8.250   1.119   5.869
14610WAT     H244073   8.386   1.188   5.812
14611WAT      O44074   6.259   1.434   5.188
14611WAT     H144075   6.251   1.492   5.268
14611WAT     H244076   6.337   1.372   5.200
14612WAT      O44077   2.399   5.433   9.214
14612WAT     H144078   2.439   5.524   9.221
14612WAT     H244079   2.301   5.437   9.235
14613WAT      O44080   4.563   6.208   4.385
14613WAT     H144081   4.604   6.164   4.465
14613WAT     H244082   4.579   6.150   4.305
14614WAT      O44083   8.400   4.094   4.449
14614WAT     H144084   8.495   4.067   4.434
14614WAT     H244085   8.377   4.172   4.391
14615WAT      O44086   4.186   0.599   2.378
14615WAT     H144087   4.146   0.673   2.325
14615WAT     H244088   4.283   0.618   2.395
14616WAT      O44089   0.498   7.409   6.172
14616WAT     H144090   0.575   7.396   6.234
14616WAT     H244091   0.464   7.319   6.142
14617WAT      O44092   6.251   7.177   3.220
14617WAT     H144093   6.242   7.262   3.167
14617WAT     H244094   6.241   7.197   3.317
14618WAT      O44095   6.350   7.573   4.071
14618WAT     H144096   6.385   7.565   3.978
14618WAT     H244097   6.384   7.658   4.112
14619WAT      O44098   8.167   5.663   7.376
14619WAT     H144099   8.169   5.580   7.320
14619WAT     H244100   8.200   5.740   7.322
14620WAT      O44101   5.784   4.231   3.886
14620WAT     H144102   5.700   4.283   3.901
14620WAT     H244103   5.816   4.245   3.793
14621WAT      O44104   2.129   7.168   5.978
14621WAT     H144105   2.178   7.242   6.025
14621WAT     H244106   2.030   7.179   5.994
14622WAT      O44107   7.140   5.331   0.625
14622WAT     H144108   7.191   5.322   0.540
14622WAT     H244109   7.056   5.276   0.620
14623WAT      O44110   2.234   6.610   7.416
14623WAT     H144111   2.318   6.555   7.424
14623WAT     H244112   2.250   6.701   7.455
14624WAT      O44113   1.584   5.632   6.819
14624WAT     H144114   1.607   5.730   6.826
14624WAT     H244115   1.487   5.619   6.840
14625WAT      O44116   0.727   8.292   4.214
14625WAT     H144117   0.681   8.205   4.197
14625WAT     H244118   0.716   8.317   4.310
14626WAT      O44119   7.321   2.404   7.667
14626WAT     H144120   7.418   2.421   7.651
14626WAT     H244121   7.311   2.316   7.713
14627WAT      O44122   7.768   0.801   3.712
14627WAT     H144123   7.738   0.826   3.620
14627WAT     H244124   7.824   0.875   3.750
14628WAT      O44125   7.992   4.431   1.555
14628WAT     H144126   8.087   4.440   1.525
14628WAT     H244127   7.935   4.403   1.478
14629WAT      O44128   6.115   8.135   5.948
14629WAT     H144129   6.117   8.081   6.032
14629WAT     H244130   6.189   8.105   5.888
14630WAT      O44131   2.455   2.622   0.963
14630WAT     H144132   2.494   2.672   0.886
14630WAT     H244133   2.526   2.604   1.031
14631WAT      O44134   8.404   6.341   8.559
14631WAT     H144135   8.397   6.284   8.476
14631WAT     H244136   8.314   6.346   8.602
14632WAT      O44137   5.504   2.730   0.297
14632WAT     H144138   5.538   2.766   0.210
14632WAT     H244139   5.430   2.665   0.279
14633WAT      O44140   6.602   6.226   3.915
14633WAT     H144141   6.575   6.191   4.005
14633WAT     H244142   6.586   6.156   3.846
14634WAT      O44143   9.298   0.457   3.415
14634WAT     H144144   9.391   0.423   3.402
14634WAT     H244145   9.293   0.508   3.501
14635WAT      O44146   0.641   9.639   4.622
14635WAT     H144147   0.616   9.635   4.526
14635WAT     H244148   0.733   9.677   4.632
14636WAT      O44149   0.080   4.707   8.027
14636WAT     H144150   0.101   4.749   7.938
14636WAT     H244151   0.013   4.634   8.014
14637WAT      O44152   9.232   1.153   0.654
14637WAT     H144153   9.225   1.068   0.601
14637WAT     H244154   9.301   1.142   0.725
14638WAT      O44155   8.141   3.233   8.695
14638WAT     H144156   8.160   3.220   8.598
14638WAT     H244157   8.186   3.161   8.748
14639WAT      O44158   5.444   8.225   1.971
14639WAT     H144159   5.363   8.258   1.921
14639WAT     H244160   5.495   8.162   1.913
14640WAT      O44161   8.288   0.756   3.035
14640WAT     H144162   8.205   0.716   2.996
14640WAT     H244163   8.298   0.850   3.002
14641WAT      O44164   7.951   6.463   1.994
14641WAT     H144165   8.048   6.470   2.016
14641WAT     H244166   7.898   6.516   2.059
14642WAT      O44167   0.518   7.007   2.226
14642WAT     H144168   0.459   6.974   2.300
14642WAT     H244169   0.527   6.936   2.156
14643WAT      O44170   6.836   4.907   2.576
14643WAT     H144171   6.870   4.910   2.482
14643WAT     H244172   6.805   4.998   2.604
14644WAT      O44173   6.588   8.101   6.307
14644WAT     H144174   6.530   8.044   6.365
14644WAT     H244175   6.684   8.088   6.331
14645WAT      O44176   6.360   3.406   8.258
14645WAT     H144177   6.453   3.440   8.265
14645WAT     H244178   6.341   3.378   8.164
14646WAT      O44179   5.068   6.962   7.516
14646WAT     H144180   5.071   6.869   7.553
14646WAT     H244181   4.974   6.996   7.518
14647WAT      O44182   0.803   4.563   1.586
14647WAT     H144183   0.770   4.508   1.663
14647WAT     H244184   0.859   4.638   1.622
14648WAT      O44185   2.150   4.711   3.712
14648WAT     H144186   2.162   4.680   3.807
14648WAT     H244187   2.055   4.696   3.685
14649WAT      O44188   5.871   1.797   4.245
14649WAT     H144189   5.887   1.825   4.340
14649WAT     H244190   5.773   1.784   4.231
14650WAT      O44191   2.182   3.880   1.350
14650WAT     H144192   2.206   3.894   1.254
14650WAT     H244193   2.253   3.825   1.394
14651WAT      O44194   8.091   0.001   4.101
14651WAT     H144195   8.169   0.034   4.048
14651WAT     H244196   8.018   0.069   4.099
14652WAT      O44197   5.291   6.251   2.098
14652WAT     H144198   5.339   6.178   2.146
14652WAT     H244199   5.342   6.337   2.106
14653WAT      O44200   9.748   3.442   9.620
14653WAT     H144201   9.848   3.434   9.620
14653WAT     H244202   9.718   3.485   9.705
14654WAT      O44203   7.597   4.345   8.797
14654WAT     H144204   7.510   4.383   8.764
14654WAT     H244205   7.584   4.249   8.821
14655WAT      O44206   7.929   1.250   6.113
14655WAT     H144207   7.907   1.265   6.016
14655WAT     H244208   8.002   1.311   6.141
14656WAT      O44209   6.734   0.747   3.369
14656WAT     H144210   6.640   0.779   3.361
14656WAT     H244211   6.738   0.672   3.435
14657WAT      O44212   0.914   3.459   9.649
14657WAT     H144213   0.990   3.496   9.595
14657WAT     H244214   0.852   3.533   9.675
14658WAT      O44215   4.836   7.136   1.175
14658WAT     H144216   4.806   7.072   1.104
14658WAT     H244217   4.915   7.098   1.223
14659WAT      O44218   8.828   7.183   2.402
14659WAT     H144219   8.922   7.183   2.367
14659WAT     H244220   8.764   7.185   2.325
14660WAT      O44221   8.559   7.506   7.330
14660WAT     H144222   8.606   7.460   7.405
14660WAT     H244223   8.624   7.523   7.256
14661WAT      O44224   4.575   8.403   1.435
14661WAT     H144225   4.657   8.391   1.491
14661WAT     H244226   4.528   8.315   1.425
14662WAT      O44227   6.970   1.648   5.359
14662WAT     H144228   7.033   1.667   5.434
14662WAT     H244229   6.942   1.733   5.316
14663WAT      O44230   1.760   8.524   2.913
14663WAT     H144231   1.844   8.472   2.898
14663WAT     H244232   1.690   8.465   2.953
14664WAT      O44233   2.015   5.500   2.725
14664WAT     H144234   2.029   5.440   2.805
14664WAT     H244235   2.056   5.589   2.743
14665WAT      O44236   1.772   9.725   0.942
14665WAT     H144237   1.837   9.765   0.877
14665WAT     H244238   1.733   9.797   0.999
14666WAT      O44239   7.827   5.860   3.879
14666WAT     H144240   7.875   5.804   3.811
14666WAT     H244241   7.753   5.807   3.920
14667WAT      O44242   5.326   4.094   7.287
14667WAT     H144243   5.386   4.031   7.237
14667WAT     H244244   5.330   4.184   7.244
14668WAT      O44245   6.892   0.976   1.509
14668WAT     H144246   6.921   1.042   1.440
14668WAT     H244247   6.836   0.905   1.465
14669WAT      O44248   4.159   2.385   1.846
14669WAT     H144249   4.102   2.418   1.922
14669WAT     H244250   4.134   2.290   1.825
14670WAT      O44251   8.880   6.938   8.802
14670WAT     H144252   8.804   6.997   8.773
14670WAT     H244253   8.909   6.881   8.725
14671WAT      O44254   1.724   8.187   1.277
14671WAT     H144255   1.638   8.147   1.307
14671WAT     H244256   1.739   8.273   1.326
14672WAT      O44257   9.582   2.120   4.772
14672WAT     H144258   9.615   2.117   4.866
14672WAT     H244259   9.482   2.118   4.772
14673WAT      O44260   9.402   1.443   1.372
14673WAT     H144261   9.457   1.527   1.382
14673WAT     H244262   9.352   1.427   1.457
14674WAT      O44263   5.723   4.707   5.133
14674WAT     H144264   5.806   4.736   5.085
14674WAT     H244265   5.646   4.708   5.070
14675WAT      O44266   7.844   3.697   8.111
14675WAT     H144267   7.747   3.720   8.111
14675WAT     H244268   7.898   3.781   8.114
14676WAT      O44269   3.317   2.049   5.036
14676WAT     H144270   3.328   2.006   4.946
14676WAT     H244271   3.222   2.079   5.047
14677WAT      O44272   0.696   1.673   7.268
14677WAT     H144273   0.665   1.585   7.233
14677WAT     H244274   0.637   1.702   7.343
14678WAT      O44275   0.117   7.527   3.549
14678WAT     H144276   0.189   7.595   3.564
14678WAT     H244277   0.063   7.518   3.633
14679WAT      O44278   2.325   0.868   2.357
14679WAT     H144279   2.237   0.907   2.330
14679WAT     H244280   2.350   0.902   2.447
14680WAT      O44281   2.290   0.275   3.547
14680WAT     H144282   2.209   0.282   3.605
14680WAT     H244283   2.266   0.226   3.463
14681WAT      O44284   0.042   1.045   6.134
14681WAT     H144285   0.135   1.075   6.115
14681WAT     H244286  -0.023   1.112   6.098
14682WAT      O44287   1.782   5.580   8.979
14682WAT     H144288   1.861   5.611   9.032
14682WAT     H244289   1.746   5.496   9.019
14683WAT      O44290   5.763   9.133   7.411
14683WAT     H144291   5.700   9.198   7.452
14683WAT     H244292   5.777   9.156   7.314
14684WAT      O44293   7.664   4.134   7.554
14684WAT     H144294   7.598   4.197   7.596
14684WAT     H244295   7.631   4.106   7.464
14685WAT      O44296   3.080   6.666   6.841
14685WAT     H144297   3.014   6.622   6.780
14685WAT     H244298   3.146   6.597   6.873
14686WAT      O44299   8.385   5.187   5.257
14686WAT     H144300   8.465   5.211   5.202
14686WAT     H244301   8.415   5.153   5.346
14687WAT      O44302   0.388   7.162   8.601
14687WAT     H144303   0.445   7.087   8.568
14687WAT     H244304   0.354   7.214   8.523
14688WAT      O44305   6.479   1.303   9.169
14688WAT     H144306   6.507   1.343   9.082
14688WAT     H244307   6.527   1.349   9.244
14689WAT      O44308   0.888   4.725   6.369
14689WAT     H144309   0.850   4.729   6.462
14689WAT     H244310   0.843   4.652   6.318
14690WAT      O44311   7.952   6.724   5.759
14690WAT     H144312   7.968   6.697   5.664
14690WAT     H244313   7.870   6.677   5.793
14691WAT      O44314   2.010   5.837   8.415
14691WAT     H144315   2.051   5.746   8.415
14691WAT     H244316   2.015   5.877   8.323
14692WAT      O44317   3.791   1.304   3.929
14692WAT     H144318   3.773   1.213   3.966
14692WAT     H244319   3.747   1.373   3.987
14693WAT      O44320   2.731   0.709   0.162
14693WAT     H144321   2.671   0.785   0.187
14693WAT     H244322   2.775   0.674   0.245
14694WAT      O44323   4.194   0.346   9.056
14694WAT     H144324   4.142   0.430   9.073
14694WAT     H244325   4.247   0.356   8.972
14695WAT      O44326   8.039   8.188   2.377
14695WAT     H144327   8.005   8.099   2.408
14695WAT     H244328   7.967   8.257   2.389
14696WAT      O44329   3.749   1.874   3.977
14696WAT     H144330   3.744   1.974   3.986
14696WAT     H244331   3.806   1.851   3.898
14697WAT      O44332   4.361   0.302   7.851
14697WAT     H144333   4.435   0.337   7.907
14697WAT     H244334   4.306   0.237   7.905
14698WAT      O44335   6.881   2.718   3.383
14698WAT     H144336   6.831   2.708   3.470
14698WAT     H244337   6.867   2.810   3.347
14699WAT      O44338   0.189   7.324   3.378
14699WAT     H144339   0.169   7.230   3.405
14699WAT     H244340   0.165   7.386   3.453
14700WAT      O44341   4.734   0.867   6.891
14700WAT     H144342   4.787   0.873   6.807
14700WAT     H244343   4.647   0.914   6.878
14701WAT      O44344   5.106   8.875   8.554
14701WAT     H144345   5.172   8.938   8.596
14701WAT     H244346   5.156   8.804   8.503
14702WAT      O44347   6.688   9.721   9.536
14702WAT     H144348   6.709   9.650   9.603
14702WAT     H244349   6.639   9.682   9.459
14703WAT      O44350   0.242   7.944   1.913
14703WAT     H144351   0.247   8.005   1.835
14703WAT     H244352   0.299   7.864   1.897
14704WAT      O44353   0.257   8.510   5.676
14704WAT     H144354   0.337   8.452   5.695
14704WAT     H244355   0.208   8.473   5.597
14705WAT      O44356   1.152   8.133   2.526
14705WAT     H144357   1.194   8.092   2.445
14705WAT     H244358   1.085   8.071   2.564
14706WAT      O44359   3.152   3.767   4.209
14706WAT     H144360   3.249   3.775   4.187
14706WAT     H244361   3.137   3.790   4.305
14707WAT      O44362   6.631   0.867   1.762
14707WAT     H144363   6.684   0.785   1.783
14707WAT     H244364   6.619   0.921   1.846
14708WAT      O44365   0.654   8.482   1.767
14708WAT     H144366   0.635   8.476   1.865
14708WAT     H244367   0.628   8.573   1.733
14709WAT      O44368   0.757   2.384   4.302
14709WAT     H144369   0.691   2.354   4.233
14709WAT     H244370   0.803   2.467   4.271
14710WAT      O44371   2.994   0.579   6.059
14710WAT     H144372   3.007   0.550   6.153
14710WAT     H244373   2.896   0.589   6.040
14711WAT      O44374   1.937   9.468   4.667
14711WAT     H144375   1.875   9.519   4.728
14711WAT     H244376   2.026   9.513   4.665
14712WAT      O44377   8.773   8.832   9.155
14712WAT     H144378   8.808   8.894   9.085
14712WAT     H244379   8.798   8.866   9.245
14713WAT      O44380   0.290   1.358   6.216
14713WAT     H144381   0.279   1.259   6.221
14713WAT     H244382   0.220   1.396   6.156
14714WAT      O44383   5.545   6.056   5.597
14714WAT     H144384   5.452   6.022   5.579
14714WAT     H244385   5.598   5.984   5.642
14715WAT      O44386   6.718   3.298   7.151
14715WAT     H144387   6.671   3.252   7.226
14715WAT     H244388   6.723   3.396   7.170
14716WAT      O44389   1.161   1.542   4.115
14716WAT     H144390   1.110   1.479   4.173
14716WAT     H244391   1.121   1.634   4.122
14717WAT      O44392   5.338   5.122   8.120
14717WAT     H144393   5.420   5.178   8.128
14717WAT     H244394   5.354   5.033   8.163
14718WAT      O44395   6.165   3.672   0.910
14718WAT     H144396   6.219   3.588   0.901
14718WAT     H244397   6.139   3.684   1.005
14719WAT      O44398   8.089   9.203   5.890
14719WAT     H144399   8.040   9.274   5.941
14719WAT     H244400   8.109   9.126   5.951
14720WAT      O44401   8.088   1.253   0.427
14720WAT     H144402   8.167   1.264   0.486
14720WAT     H244403   8.107   1.184   0.357
14721WAT      O44404   6.062   7.239   8.294
14721WAT     H144405   5.984   7.228   8.233
14721WAT     H244406   6.143   7.199   8.252
14722WAT      O44407   6.885   6.193   4.772
14722WAT     H144408   6.967   6.165   4.723
14722WAT     H244409   6.880   6.293   4.774
14723WAT      O44410   8.117   0.229   2.791
14723WAT     H144411   8.045   0.161   2.777
14723WAT     H244412   8.085   0.319   2.762
14724WAT      O44413   4.895   0.444   3.908
14724WAT     H144414   4.801   0.474   3.921
14724WAT     H244415   4.902   0.346   3.926
14725WAT      O44416   0.314   8.569   2.880
14725WAT     H144417   0.365   8.542   2.961
14725WAT     H244418   0.218   8.542   2.890
14726WAT      O44419   2.510   5.063   8.540
14726WAT     H144420   2.451   4.991   8.504
14726WAT     H244421   2.568   5.026   8.612
14727WAT      O44422   3.201   2.438   3.436
14727WAT     H144423   3.230   2.512   3.375
14727WAT     H244424   3.170   2.360   3.382
14728WAT      O44425   4.643   5.968   9.594
14728WAT     H144426   4.576   5.985   9.521
14728WAT     H244427   4.596   5.935   9.675
14729WAT      O44428   7.884   8.792   7.373
14729WAT     H144429   7.980   8.817   7.364
14729WAT     H244430   7.835   8.864   7.423
14730WAT      O44431   9.392   6.154   1.499
14730WAT     H144432   9.305   6.203   1.500
14730WAT     H244433   9.455   6.197   1.434
14731WAT      O44434   2.452   0.430   4.267
14731WAT     H144435   2.378   0.367   4.244
14731WAT     H244436   2.453   0.506   4.203
14732WAT      O44437   5.781   1.660   9.088
14732WAT     H144438   5.829   1.686   9.172
14732WAT     H244439   5.725   1.579   9.105
14733WAT      O44440   8.320   7.282   1.870
14733WAT     H144441   8.293   7.204   1.926
14733WAT     H244442   8.419   7.296   1.877
14734WAT      O44443   0.920   8.395   0.499
14734WAT     H144444   0.827   8.434   0.497
14734WAT     H244445   0.981   8.454   0.446
14735WAT      O44446   4.738   9.245   9.676
14735WAT     H144447   4.698   9.154   9.686
14735WAT     H244448   4.682   9.312   9.725
14736WAT      O44449   3.866   8.416   0.335
14736WAT     H144450   3.863   8.507   0.292
14736WAT     H244451   3.944   8.365   0.298
14737WAT      O44452   7.050   1.551   6.003
14737WAT     H144453   7.097   1.639   6.008
14737WAT     H244454   6.982   1.546   6.075
14738WAT      O44455   9.820   4.506   6.697
14738WAT     H144456   9.757   4.446   6.747
14738WAT     H244457   9.769   4.582   6.657
14739WAT      O44458   5.687   1.356   0.507
14739WAT     H144459   5.666   1.393   0.416
14739WAT     H244460   5.753   1.282   0.498
14740WAT      O44461   0.325   7.952   8.160
14740WAT     H144462   0.377   7.898   8.094
14740WAT     H244463   0.387   8.014   8.209
14741WAT      O44464   0.354   1.319   7.580
14741WAT     H144465   0.315   1.235   7.618
14741WAT     H244466   0.452   1.322   7.598
14742WAT      O44467   7.870   7.724   5.804
14742WAT     H144468   7.827   7.764   5.885
14742WAT     H244469   7.960   7.767   5.790
14743WAT      O44470   7.979   2.506   8.514
14743WAT     H144471   8.037   2.425   8.501
14743WAT     H244472   7.978   2.531   8.611
14744WAT      O44473   6.134   3.716   4.209
14744WAT     H144474   6.048   3.744   4.251
14744WAT     H244475   6.122   3.704   4.111
14745WAT      O44476   2.421   9.342   2.569
14745WAT     H144477   2.408   9.423   2.512
14745WAT     H244478   2.335   9.320   2.616
14746WAT      O44479   8.606   7.423   4.936
14746WAT     H144480   8.545   7.478   4.878
14746WAT     H244481   8.570   7.422   5.029
14747WAT      O44482   2.147   9.535   9.295
14747WAT     H144483   2.209   9.605   9.331
14747WAT     H244484   2.186   9.497   9.211
14748WAT      O44485   6.399   0.246   8.014
14748WAT     H144486   6.345   0.281   7.938
14748WAT     H244487   6.382   0.148   8.025
14749WAT      O44488   4.973   1.844   5.509
14749WAT     H144489   4.881   1.878   5.527
14749WAT     H244490   5.002   1.785   5.585
14750WAT      O44491   7.750   1.613   6.288
14750WAT     H144492   7.829   1.648   6.239
14750WAT     H244493   7.737   1.516   6.266
14751WAT      O44494   1.126   4.795   8.740
14751WAT     H144495   1.199   4.769   8.676
14751WAT     H244496   1.155   4.874   8.794
14752WAT      O44497   2.956   7.902   4.131
14752WAT     H144498   2.973   7.843   4.210
14752WAT     H244499   2.863   7.885   4.097
14753WAT      O44500   9.124   7.978   0.123
14753WAT     H144501   9.077   7.943   0.042
14753WAT     H244502   9.222   7.984   0.106
14754WAT      O44503   3.055   3.944   1.346
14754WAT     H144504   3.084   3.850   1.364
14754WAT     H244505   3.118   4.007   1.393
14755WAT      O44506   8.248   9.078   6.437
14755WAT     H144507   8.193   9.089   6.355
14755WAT     H244508   8.226   9.150   6.503
14756WAT      O44509   4.760   9.630   8.621
14756WAT     H144510   4.770   9.727   8.645
14756WAT     H244511   4.839   9.600   8.568
14757WAT      O44512   2.541   3.949   2.273
14757WAT     H144513   2.619   3.898   2.309
14757WAT     H244514   2.537   4.039   2.317
14758WAT      O44515   4.533   1.848   3.672
14758WAT     H144516   4.517   1.761   3.626
14758WAT     H244517   4.446   1.895   3.686
14759WAT      O44518   8.034   8.292   4.506
14759WAT     H144519   8.094   8.236   4.449
14759WAT     H244520   8.021   8.248   4.595
14760WAT      O44521   5.290   8.013   2.625
14760WAT     H144522   5.253   8.031   2.717
14760WAT     H244523   5.318   7.918   2.618
14761WAT      O44524   4.151   7.376   1.610
14761WAT     H144525   4.203   7.341   1.532
14761WAT     H244526   4.068   7.422   1.577
14762WAT      O44527   2.492   5.757   8.673
14762WAT     H144528   2.572   5.814   8.690
14762WAT     H244529   2.478   5.748   8.574
14763WAT      O44530   1.500   2.122   3.609
14763WAT     H144531   1.576   2.090   3.666
14763WAT     H244532   1.415   2.118   3.662
14764WAT      O44533   1.902   7.096   4.206
14764WAT     H144534   1.910   7.135   4.115
14764WAT     H244535   1.826   7.031   4.209
14765WAT      O44536   8.837   4.118   3.399
14765WAT     H144537   8.832   4.030   3.351
14765WAT     H244538   8.931   4.152   3.398
14766WAT      O44539   4.044   9.734   1.071
14766WAT     H144540   4.135   9.731   1.113
14766WAT     H244541   4.053   9.750   0.973
14767WAT      O44542   9.085   1.761   2.554
14767WAT     H144543   9.110   1.840   2.610
14767WAT     H244544   9.143   1.759   2.472
14768WAT      O44545   4.891   2.402   9.588
14768WAT     H144546   4.847   2.434   9.673
14768WAT     H244547   4.967   2.343   9.611
14769WAT      O44548   9.157   9.556   5.187
14769WAT     H144549   9.168   9.482   5.254
14769WAT     H244550   9.130   9.640   5.233
14770WAT      O44551   0.066   2.167   5.813
14770WAT     H144552   0.139   2.190   5.877
14770WAT     H244553  -0.008   2.234   5.821
14771WAT      O44554   7.272   6.488   1.475
14771WAT     H144555   7.198   6.541   1.515
14771WAT     H244556   7.243   6.393   1.463
14772WAT      O44557   4.001   5.171   7.147
14772WAT     H144558   4.000   5.174   7.047
14772WAT     H244559   4.043   5.254   7.183
14773WAT      O44560   8.179   0.704   4.453
14773WAT     H144561   8.276   0.722   4.443
14773WAT     H244562   8.128   0.790   4.448
14774WAT      O44563   0.233   4.411   6.314
14774WAT     H144564   0.188   4.329   6.350
14774WAT     H244565   0.270   4.465   6.390
14775WAT      O44566   7.382   5.733   4.733
14775WAT     H144567   7.312   5.762   4.799
14775WAT     H244568   7.467   5.714   4.781
14776WAT      O44569   3.909   2.913   1.741
14776WAT     H144570   3.927   2.826   1.785
14776WAT     H244571   3.970   2.983   1.778
14777WAT      O44572   5.384   1.126   3.220
14777WAT     H144573   5.414   1.166   3.307
14777WAT     H244574   5.463   1.093   3.169
14778WAT      O44575   2.022   1.208   3.115
14778WAT     H144576   2.044   1.300   3.147
14778WAT     H244577   2.090   1.143   3.150
14779WAT      O44578   8.514   5.599   9.162
14779WAT     H144579   8.521   5.510   9.208
14779WAT     H244580   8.429   5.644   9.190
14780WAT      O44581   6.140   5.949   9.324
14780WAT     H144582   6.230   5.905   9.326
14780WAT     H244583   6.150   6.042   9.290
14781WAT      O44584   0.822   6.574   5.515
14781WAT     H144585   0.790   6.660   5.555
14781WAT     H244586   0.904   6.592   5.460
14782WAT      O44587   0.396   9.086   7.603
14782WAT     H144588   0.372   9.121   7.693
14782WAT     H244589   0.320   9.032   7.567
14783WAT      O44590   8.479   4.334   3.279
14783WAT     H144591   8.435   4.335   3.369
14783WAT     H244592   8.567   4.381   3.284
14784WAT      O44593   6.142   7.785   3.551
14784WAT     H144594   6.043   7.772   3.559
14784WAT     H244595   6.165   7.881   3.564
14785WAT      O44596   7.942   7.705   2.710
14785WAT     H144597   7.882   7.761   2.767
14785WAT     H244598   8.021   7.759   2.683
14786WAT      O44599   2.512   5.759   9.813
14786WAT     H144600   2.578   5.694   9.776
14786WAT     H244601   2.493   5.830   9.746
14787WAT      O44602   0.316   9.748   7.368
14787WAT     H144603   0.343   9.838   7.333
14787WAT     H244604   0.269   9.759   7.456
14788WAT      O44605   4.103   4.500   4.610
14788WAT     H144606   4.190   4.455   4.629
14788WAT     H244607   4.041   4.485   4.687
14789WAT      O44608   7.569   2.216   2.845
14789WAT     H144609   7.572   2.254   2.937
14789WAT     H244610   7.650   2.159   2.829
14790WAT      O44611   4.661   6.615   2.799
14790WAT     H144612   4.624   6.629   2.707
14790WAT     H244613   4.616   6.536   2.841
14791WAT      O44614   4.469   6.166   8.053
14791WAT     H144615   4.464   6.263   8.077
14791WAT     H244616   4.560   6.145   8.018
14792WAT      O44617   7.929   5.079   9.019
14792WAT     H144618   7.947   5.175   9.040
14792WAT     H244619   7.833   5.059   9.036
14793WAT      O44620   3.193   0.457   3.458
14793WAT     H144621   3.256   0.527   3.423
14793WAT     H244622   3.189   0.381   3.393
14794WAT      O44623   0.435   1.337   3.020
14794WAT     H144624   0.453   1.342   3.118
14794WAT     H244625   0.337   1.323   3.005
14795WAT      O44626   5.068   5.869   6.539
14795WAT     H144627   4.968   5.872   6.535
14795WAT     H244628   5.099   5.901   6.629
14796WAT      O44629   5.133   0.921   6.737
14796WAT     H144630   5.166   1.002   6.688
14796WAT     H244631   5.133   0.939   6.835
14797WAT      O44632   3.099   6.992   2.711
14797WAT     H144633   3.158   6.933   2.766
14797WAT     H244634   3.081   7.077   2.760
14798WAT      O44635   2.489   8.878   1.271
14798WAT     H144636   2.504   8.912   1.178
14798WAT     H244637   2.574   8.888   1.324
14799WAT      O44638   5.718   2.312   9.791
14799WAT     H144639   5.677   2.355   9.872
14799WAT     H244640   5.724   2.379   9.717
14800WAT      O44641   6.806   3.826   4.258
14800WAT     H144642   6.902   3.853   4.254
14800WAT     H244643   6.790   3.773   4.341
14801WAT      O44644   0.413   0.010   7.986
14801WAT     H144645   0.327  -0.035   8.009
14801WAT     H244646   0.409   0.105   8.016
14802WAT      O44647   3.027   6.223   2.445
14802WAT     H144648   3.083   6.227   2.528
14802WAT     H244649   3.084   6.195   2.368
14803WAT      O44650   7.525   8.994   1.757
14803WAT     H144651   7.619   8.962   1.768
14803WAT     H244652   7.523   9.094   1.766
14804WAT      O44653   6.116   3.558   5.259
14804WAT     H144654   6.057   3.573   5.180
14804WAT     H244655   6.073   3.598   5.340
14805WAT      O44656   5.719   0.348   0.473
14805WAT     H144657   5.661   0.284   0.422
14805WAT     H244658   5.676   0.368   0.561
14806WAT      O44659   3.345   9.503   9.826
14806WAT     H144660   3.253   9.524   9.792
14806WAT     H244661   3.352   9.528   9.922
14807WAT      O44662   0.653   0.425   9.210
14807WAT     H144663   0.633   0.450   9.304
14807WAT     H244664   0.701   0.501   9.165
14808WAT      O44665   3.440   5.248   7.696
14808WAT     H144666   3.443   5.343   7.727
14808WAT     H244667   3.401   5.245   7.603
14809WAT      O44668   8.887   5.389   5.844
14809WAT     H144669   8.889   5.394   5.744
14809WAT     H244670   8.922   5.301   5.875
14810WAT      O44671   4.410   8.827   7.663
14810WAT     H144672   4.421   8.864   7.755
14810WAT     H244673   4.315   8.799   7.649
14811WAT      O44674   4.620   4.822   5.294
14811WAT     H144675   4.648   4.751   5.358
14811WAT     H244676   4.612   4.783   5.202
14812WAT      O44677   4.907   0.874   1.779
14812WAT     H144678   4.810   0.858   1.798
14812WAT     H244679   4.955   0.786   1.777
14813WAT      O44680   7.371   2.400   9.245
14813WAT     H144681   7.416   2.408   9.334
14813WAT     H244682   7.313   2.480   9.229
14814WAT      O44683   8.956   3.464   0.332
14814WAT     H144684   8.890   3.427   0.397
14814WAT     H244685   8.939   3.561   0.318
14815WAT      O44686   4.387   6.579   9.587
14815WAT     H144687   4.400   6.550   9.681
14815WAT     H244688   4.361   6.676   9.585
14816WAT      O44689   7.039   4.374   4.503
14816WAT     H144690   7.027   4.470   4.528
14816WAT     H244691   6.961   4.320   4.536
14817WAT      O44692   9.770   0.485   8.821
14817WAT     H144693   9.734   0.577   8.834
14817WAT     H244694   9.750   0.454   8.728
14818WAT      O44695   7.323   6.746   3.613
14818WAT     H144696   7.248   6.812   3.610
14818WAT     H244697   7.404   6.787   3.571
14819WAT      O44698   2.644   4.232   1.163
14819WAT     H144699   2.705   4.283   1.224
14819WAT     H244700   2.550   4.261   1.179
14820WAT      O44701   9.457   5.795   9.251
14820WAT     H144702   9.410   5.883   9.252
14820WAT     H244703   9.422   5.738   9.325
14821WAT      O44704   6.616   7.349   2.899
14821WAT     H144705   6.603   7.333   2.997
14821WAT     H244706   6.635   7.445   2.883
14822WAT      O44707   3.636   1.428   0.986
14822WAT     H144708   3.683   1.412   1.073
14822WAT     H244709   3.658   1.354   0.923
14823WAT      O44710   7.548   1.430   4.224
14823WAT     H144711   7.474   1.380   4.179
14823WAT     H244712   7.542   1.417   4.323
14824WAT      O44713   6.843   3.562   2.562
14824WAT     H144714   6.752   3.604   2.566
14824WAT     H244715   6.838   3.476   2.512
14825WAT      O44716   2.295   3.305   5.158
14825WAT     H144717   2.246   3.219   5.147
14825WAT     H244718   2.309   3.323   5.255
14826WAT      O44719   9.422   5.424   1.356
14826WAT     H144720   9.489   5.355   1.385
14826WAT     H244721   9.332   5.401   1.392
14827WAT      O44722   9.281   9.208   7.728
14827WAT     H144723   9.209   9.244   7.668
14827WAT     H244724   9.304   9.277   7.796
14828WAT      O44725   3.854   9.119   4.973
14828WAT     H144726   3.797   9.185   4.925
14828WAT     H244727   3.950   9.143   4.960
14829WAT      O44728   0.091   9.203   4.831
14829WAT     H144729   0.068   9.107   4.844
14829WAT     H244730   0.019   9.248   4.778
14830WAT      O44731   5.301   7.565   8.941
14830WAT     H144732   5.300   7.486   9.003
14830WAT     H244733   5.219   7.620   8.957
14831WAT      O44734   7.173   9.169   4.320
14831WAT     H144735   7.183   9.258   4.364
14831WAT     H244736   7.213   9.172   4.229
14832WAT      O44737   2.854   9.782   7.078
14832WAT     H144738   2.953   9.798   7.074
14832WAT     H244739   2.825   9.734   6.995
14833WAT      O44740   1.815   7.271   4.378
14833WAT     H144741   1.846   7.361   4.347
14833WAT     H244742   1.856   7.200   4.321
14834WAT      O44743   6.089   0.873   8.970
14834WAT     H144744   6.063   0.905   8.878
14834WAT     H244745   6.141   0.788   8.962
14835WAT      O44746   4.332   1.381   8.624
14835WAT     H144747   4.332   1.458   8.561
14835WAT     H244748   4.388   1.402   8.703
14836WAT      O44749   7.570   3.504   0.011
14836WAT     H144750   7.609   3.588   0.049
14836WAT     H244751   7.500   3.527  -0.056
14837WAT      O44752   7.134   7.920   6.193
14837WAT     H144753   7.076   7.929   6.112
14837WAT     H244754   7.229   7.939   6.168
14838WAT      O44755   8.973   5.212   2.179
14838WAT     H144756   9.049   5.262   2.219
14838WAT     H244757   9.000   5.117   2.161
14839WAT      O44758   0.535   0.874   4.703
14839WAT     H144759   0.547   0.918   4.614
14839WAT     H244760   0.454   0.914   4.748
14840WAT      O44761   1.987   9.144   0.531
14840WAT     H144762   1.961   9.222   0.587
14840WAT     H244763   1.904   9.101   0.494
14841WAT      O44764   1.737   0.150   4.794
14841WAT     H144765   1.709   0.087   4.866
14841WAT     H244766   1.683   0.234   4.801
14842WAT      O44767   3.427   9.704   2.559
14842WAT     H144768   3.520   9.685   2.529
14842WAT     H244769   3.385   9.771   2.497
14843WAT      O44770   4.308   3.580   5.249
14843WAT     H144771   4.402   3.561   5.218
14843WAT     H244772   4.310   3.615   5.342
14844WAT      O44773   3.411   5.981   9.295
14844WAT     H144774   3.443   5.888   9.277
14844WAT     H244775   3.418   6.001   9.393
14845WAT      O44776   1.130   6.622   4.802
14845WAT     H144777   1.142   6.522   4.797
14845WAT     H244778   1.036   6.645   4.778
14846WAT      O44779   1.095   1.083   3.724
14846WAT     H144780   1.066   1.146   3.795
14846WAT     H244781   1.150   1.132   3.656
14847WAT      O44782   6.608   6.739   0.013
14847WAT     H144783   6.671   6.816   0.026
14847WAT     H244784   6.610   6.710  -0.082
14848WAT      O44785   2.031   2.006   2.789
14848WAT     H144786   2.086   2.069   2.844
14848WAT     H244787   2.053   2.018   2.692
14849WAT      O44788   5.199   6.575   6.883
14849WAT     H144789   5.275   6.616   6.832
14849WAT     H244790   5.155   6.505   6.826
14850WAT      O44791   3.940   2.791   4.305
14850WAT     H144792   4.027   2.765   4.346
14850WAT     H244793   3.956   2.850   4.227
14851WAT      O44794   5.498   7.013   6.906
14851WAT     H144795   5.576   7.061   6.947
14851WAT     H244796   5.480   6.930   6.957
14852WAT      O44797   1.015   0.808   8.662
14852WAT     H144798   0.994   0.854   8.748
14852WAT     H244799   1.090   0.855   8.616
14853WAT      O44800   2.958   5.964   2.534
14853WAT     H144801   2.861   5.983   2.549
14853WAT     H244802   3.003   6.047   2.502
14854WAT      O44803   4.299   0.521   5.870
14854WAT     H144804   4.271   0.426   5.884
14854WAT     H244805   4.230   0.569   5.816
14855WAT      O44806   5.463   9.592   0.445
14855WAT     H144807   5.369   9.577   0.415
14855WAT     H244808   5.526   9.543   0.384
14856WAT      O44809   4.041   7.024   5.767
14856WAT     H144810   3.992   6.955   5.713
14856WAT     H244811   4.042   7.111   5.718
14857WAT      O44812   2.765   2.339   0.159
14857WAT     H144813   2.767   2.339   0.059
14857WAT     H244814   2.679   2.380   0.190
14858WAT      O44815   8.355   6.097   0.927
14858WAT     H144816   8.332   6.008   0.888
14858WAT     H244817   8.423   6.142   0.868
14859WAT      O44818   5.394   7.881   4.436
14859WAT     H144819   5.367   7.786   4.451
14859WAT     H244820   5.322   7.942   4.470
14860WAT      O44821   2.363   3.581   9.016
14860WAT     H144822   2.351   3.668   9.065
14860WAT     H244823   2.452   3.580   8.972
14861WAT      O44824   0.275   0.115   6.534
14861WAT     H144825   0.282   0.200   6.482
14861WAT     H244826   0.185   0.109   6.577
14862WAT      O44827   7.987   4.797   8.655
14862WAT     H144828   8.015   4.766   8.564
14862WAT     H244829   8.007   4.894   8.665
14863WAT      O44830   5.241   7.772   5.812
14863WAT     H144831   5.296   7.808   5.736
14863WAT     H244832   5.301   7.743   5.886
14864WAT      O44833   1.522   6.272   9.786
14864WAT     H144834   1.589   6.326   9.735
14864WAT     H244835   1.494   6.193   9.732
14865WAT      O44836   5.222   6.207   3.868
14865WAT     H144837   5.182   6.120   3.899
14865WAT     H244838   5.252   6.259   3.947
14866WAT      O44839   1.999   1.428   5.173
14866WAT     H144840   1.960   1.336   5.178
14866WAT     H244841   2.067   1.439   5.245
14867WAT      O44842   8.224   1.676   3.398
14867WAT     H144843   8.146   1.636   3.350
14867WAT     H244844   8.241   1.768   3.364
14868WAT      O44845   1.019   7.877   6.696
14868WAT     H144846   1.114   7.881   6.665
14868WAT     H244847   1.000   7.787   6.735
14869WAT      O44848   4.692   5.611   7.634
14869WAT     H144849   4.757   5.683   7.609
14869WAT     H244850   4.613   5.652   7.679
14870WAT      O44851   9.409   7.227   0.606
14870WAT     H144852   9.375   7.134   0.594
14870WAT     H244853   9.411   7.251   0.703
14871WAT      O44854   8.301   0.858   0.330
14871WAT     H144855   8.395   0.889   0.342
14871WAT     H244856   8.290   0.767   0.370
14872WAT      O44857   6.702   9.089   7.639
14872WAT     H144858   6.710   9.017   7.709
14872WAT     H244859   6.675   9.175   7.683
14873WAT      O44860   7.359   2.408   6.225
14873WAT     H144861   7.389   2.495   6.187
14873WAT     H244862   7.271   2.421   6.271
14874WAT      O44863   8.197   2.380   1.607
14874WAT     H144864   8.281   2.352   1.562
14874WAT     H244865   8.201   2.478   1.628
14875WAT      O44866   2.580   2.247   6.038
14875WAT     H144867   2.665   2.207   6.005
14875WAT     H244868   2.516   2.256   5.961
14876WAT      O44869   0.734   5.819   1.658
14876WAT     H144870   0.807   5.881   1.686
14876WAT     H244871   0.690   5.781   1.739
14877WAT      O44872   0.247   0.250   3.880
14877WAT     H144873   0.195   0.333   3.862
14877WAT     H244874   0.318   0.269   3.948
14878WAT      O44875   4.316   5.263   7.567
14878WAT     H144876   4.357   5.245   7.478
14878WAT     H244877   4.354   5.199   7.635
14879WAT      O44878   7.406   5.859   5.784
14879WAT     H144879   7.342   5.934   5.770
14879WAT     H244880   7.500   5.894   5.781
14880WAT      O44881   5.168   6.143   1.456
14880WAT     H144882   5.237   6.158   1.527
14880WAT     H244883   5.082   6.185   1.485
14881WAT      O44884   5.534   1.997   3.527
14881WAT     H144885   5.584   2.021   3.444
14881WAT     H244886   5.503   1.902   3.521
14882WAT      O44887   6.642   7.109   0.532
14882WAT     H144888   6.732   7.093   0.574
14882WAT     H244889   6.631   7.049   0.453
14883WAT      O44890   6.270   0.624   8.807
14883WAT     H144891   6.317   0.566   8.874
14883WAT     H244892   6.247   0.569   8.727
14884WAT      O44893   1.478   3.770   0.187
14884WAT     H144894   1.459   3.807   0.278
14884WAT     H244895   1.409   3.701   0.164
14885WAT      O44896   7.387   5.515   1.658
14885WAT     H144897   7.422   5.604   1.631
14885WAT     H244898   7.437   5.481   1.738
14886WAT      O44899   3.726   0.468   2.096
14886WAT     H144900   3.788   0.395   2.124
14886WAT     H244901   3.739   0.487   1.999
14887WAT      O44902   1.471   3.677   9.181
14887WAT     H144903   1.391   3.668   9.122
14887WAT     H244904   1.521   3.590   9.183
14888WAT      O44905   2.148   5.815   7.845
14888WAT     H144906   2.085   5.760   7.901
14888WAT     H244907   2.165   5.768   7.758
14889WAT      O44908   8.753   0.252   1.167
14889WAT     H144909   8.694   0.222   1.092
14889WAT     H244910   8.752   0.351   1.172
14890WAT      O44911   9.382   8.991   8.042
14890WAT     H144912   9.478   8.965   8.029
14890WAT     H244913   9.376   9.090   8.053
14891WAT      O44914   8.117   7.545   3.207
14891WAT     H144915   8.100   7.558   3.109
14891WAT     H244916   8.048   7.594   3.260
14892WAT      O44917   7.517   5.769   6.905
14892WAT     H144918   7.615   5.761   6.886
14892WAT     H244919   7.465   5.734   6.827
14893WAT      O44920   4.693   0.667   8.994
14893WAT     H144921   4.765   0.602   8.972
14893WAT     H244922   4.640   0.633   9.072
14894WAT      O44923   8.318   4.114   8.037
14894WAT     H144924   8.341   4.127   7.940
14894WAT     H244925   8.328   4.201   8.086
14895WAT      O44926   2.309   5.097   9.433
14895WAT     H144927   2.209   5.094   9.424
14895WAT     H244928   2.350   5.106   9.342
14896WAT      O44929   4.665   4.199   3.480
14896WAT     H144930   4.570   4.231   3.479
14896WAT     H244931   4.702   4.209   3.573
14897WAT      O44932   5.824   1.347   6.850
14897WAT     H144933   5.729   1.313   6.848
14897WAT     H244934   5.868   1.327   6.763
14898WAT      O44935   2.095   8.550   4.664
14898WAT     H144936   2.054   8.612   4.597
14898WAT     H244937   2.121   8.602   4.746
14899WAT      O44938   3.082   6.294   9.496
14899WAT     H144939   3.007   6.348   9.534
14899WAT     H244940   3.059   6.266   9.403
14900WAT      O44941   7.887   3.735   4.669
14900WAT     H144942   7.848   3.780   4.750
14900WAT     H244943   7.970   3.685   4.696
14901WAT      O44944   3.708   3.340   6.926
14901WAT     H144945   3.732   3.312   6.833
14901WAT     H244946   3.648   3.271   6.967
14902WAT      O44947   5.643   8.718   9.654
14902WAT     H144948   5.565   8.760   9.607
14902WAT     H244949   5.728   8.760   9.622
14903WAT      O44950   6.696   6.965   3.547
14903WAT     H144951   6.757   7.015   3.485
14903WAT     H244952   6.749   6.929   3.624
14904WAT      O44953   0.116   4.206   4.192
14904WAT     H144954   0.079   4.274   4.129
14904WAT     H244955   0.076   4.116   4.171
14905WAT      O44956   6.414   3.974   1.162
14905WAT     H144957   6.379   3.950   1.072
14905WAT     H244958   6.374   4.061   1.192
14906WAT      O44959   0.313   3.970   0.536
14906WAT     H144960   0.248   3.937   0.468
14906WAT     H244961   0.268   4.038   0.594
14907WAT      O44962   8.158   3.865   5.392
14907WAT     H144963   8.098   3.853   5.470
14907WAT     H244964   8.247   3.899   5.423
14908WAT      O44965   7.025   5.835   0.418
14908WAT     H144966   7.020   5.815   0.516
14908WAT     H244967   7.119   5.818   0.385
14909WAT      O44968   0.106   5.697   1.392
14909WAT     H144969   0.142   5.605   1.408
14909WAT     H244970   0.014   5.705   1.430
14910WAT      O44971   0.624   7.002   1.393
14910WAT     H144972   0.692   7.069   1.424
14910WAT     H244973   0.584   7.032   1.307
14911WAT      O44974   1.118   1.495   1.396
14911WAT     H144975   1.037   1.481   1.338
14911WAT     H244976   1.198   1.459   1.350
14912WAT      O44977   8.575   6.821   2.623
14912WAT     H144978   8.558   6.899   2.683
14912WAT     H244979   8.662   6.778   2.648
14913WAT      O44980   2.230   3.215   5.774
14913WAT     H144981   2.228   3.314   5.787
14913WAT     H244982   2.136   3.180   5.771
14914WAT      O44983   9.199   6.366   7.420
14914WAT     H144984   9.150   6.313   7.489
14914WAT     H244985   9.198   6.463   7.446
14915WAT      O44986   8.096   8.208   9.352
14915WAT     H144987   8.069   8.295   9.310
14915WAT     H244988   8.041   8.192   9.434
14916WAT      O44989   4.854   0.240   8.290
14916WAT     H144990   4.866   0.151   8.247
14916WAT     H244991   4.772   0.239   8.348
14917WAT      O44992   9.214   3.315   1.191
14917WAT     H144993   9.301   3.346   1.229
14917WAT     H244994   9.210   3.215   1.193
14918WAT      O44995   3.064   7.908   3.283
14918WAT     H144996   3.131   7.922   3.210
14918WAT     H244997   3.095   7.833   3.342
14919WAT      O44998   6.875   7.585   1.672
14919WAT     H144999   6.803   7.620   1.613
14919WAT     H245000   6.857   7.612   1.767
14920WAT      O45001   3.374   9.367   0.645
14920WAT     H145002   3.373   9.417   0.732
14920WAT     H245003   3.291   9.312   0.638
14921WAT      O45004   2.170   3.639   1.608
14921WAT     H145005   2.183   3.703   1.685
14921WAT     H245006   2.082   3.594   1.616
14922WAT      O45007   7.002   8.219   5.612
14922WAT     H145008   7.016   8.132   5.660
14922WAT     H245009   7.024   8.295   5.673
14923WAT      O45010   4.690   4.650   2.982
14923WAT     H145011   4.653   4.706   3.057
14923WAT     H245012   4.782   4.620   3.006
14924WAT      O45013   8.473   8.220   8.678
14924WAT     H145014   8.393   8.186   8.728
14924WAT     H245015   8.448   8.303   8.628
14925WAT      O45016   5.538   2.152   6.712
14925WAT     H145017   5.533   2.053   6.721
14925WAT     H245018   5.527   2.178   6.616
14926WAT      O45019   9.557   5.574   2.335
14926WAT     H145020   9.533   5.501   2.399
14926WAT     H245021   9.553   5.539   2.242
14927WAT      O45022   2.377   6.824   3.250
14927WAT     H145023   2.413   6.740   3.210
14927WAT     H245024   2.434   6.851   3.328
14928WAT      O45025   5.908   2.131   6.026
14928WAT     H145026   5.950   2.135   5.935
14928WAT     H245027   5.943   2.207   6.082
14929WAT      O45028   6.203   9.281   0.972
14929WAT     H145029   6.173   9.339   0.897
14929WAT     H245030   6.210   9.335   1.056
14930WAT      O45031   2.743   9.423   6.702
14930WAT     H145032   2.664   9.375   6.665
14930WAT     H245033   2.787   9.476   6.629
14931WAT      O45034   6.851   3.759   8.901
14931WAT     H145035   6.793   3.716   8.970
14931WAT     H245036   6.946   3.760   8.934
14932WAT      O45037   0.767   8.068   4.542
14932WAT     H145038   0.854   8.027   4.517
14932WAT     H245039   0.696   7.998   4.543
14933WAT      O45040   2.014   7.593   8.680
14933WAT     H145041   1.999   7.495   8.688
14933WAT     H245042   1.964   7.628   8.601
14934WAT      O45043   2.699   2.626   4.429
14934WAT     H145044   2.664   2.675   4.509
14934WAT     H245045   2.762   2.554   4.459
14935WAT      O45046   7.759   9.698   6.553
14935WAT     H145047   7.718   9.788   6.564
14935WAT     H245048   7.741   9.643   6.634
14936WAT      O45049   4.789   4.695   8.196
14936WAT     H145050   4.705   4.654   8.231
14936WAT     H245051   4.767   4.753   8.117
14937WAT      O45052   6.033   5.567   3.879
14937WAT     H145053   5.940   5.531   3.875
14937WAT     H245054   6.086   5.518   3.948
14938WAT      O45055   0.910   0.511   0.488
14938WAT     H145056   1.008   0.490   0.492
14938WAT     H245057   0.879   0.541   0.578
14939WAT      O45058   8.091   6.747   0.916
14939WAT     H145059   8.179   6.706   0.940
14939WAT     H245060   8.032   6.749   0.997
14940WAT      O45061   2.189   3.051   5.132
14940WAT     H145062   2.231   3.041   5.042
14940WAT     H245063   2.101   3.004   5.134
14941WAT      O45064   7.162   1.297   4.288
14941WAT     H145065   7.211   1.291   4.375
14941WAT     H245066   7.223   1.331   4.217
14942WAT      O45067   4.416   0.381   0.848
14942WAT     H145068   4.406   0.332   0.761
14942WAT     H245069   4.453   0.472   0.830
14943WAT      O45070   5.465   9.635   5.865
14943WAT     H145071   5.412   9.671   5.942
14943WAT     H245072   5.431   9.544   5.840
14944WAT      O45073   6.966   2.318   2.451
14944WAT     H145074   7.045   2.374   2.426
14944WAT     H245075   6.935   2.268   2.370
14945WAT      O45076   4.861   6.457   8.590
14945WAT     H145077   4.920   6.496   8.519
14945WAT     H245078   4.876   6.358   8.595
14946WAT      O45079   5.757   7.845   5.301
14946WAT     H145080   5.662   7.868   5.322
14946WAT     H245081   5.816   7.919   5.332
14947WAT      O45082   9.082   3.295   2.895
14947WAT     H145083   9.107   3.351   2.975
14947WAT     H245084   9.163   3.247   2.862
14948WAT      O45085   1.293   0.490   8.138
14948WAT     H145086   1.237   0.435   8.200
14948WAT     H245087   1.234   0.549   8.083
14949WAT      O45088   5.928   8.434   7.899
14949WAT     H145089   5.834   8.435   7.865
14949WAT     H245090   5.991   8.442   7.822
14950WAT      O45091   0.313   2.269   4.000
14950WAT     H145092   0.248   2.194   3.990
14950WAT     H245093   0.273   2.353   3.966
14951WAT      O45094   8.025   5.679   8.904
14951WAT     H145095   7.957   5.708   8.837
14951WAT     H245096   8.111   5.726   8.886
14952WAT      O45097   4.250   4.869   6.058
14952WAT     H145098   4.277   4.815   5.978
14952WAT     H245099   4.209   4.809   6.127
14953WAT      O45100   4.922   6.203   8.659
14953WAT     H145101   4.878   6.114   8.670
14953WAT     H245102   4.976   6.225   8.740
14954WAT      O45103   0.889   8.781   6.136
14954WAT     H145104   0.956   8.810   6.068
14954WAT     H245105   0.843   8.861   6.174
14955WAT      O45106   1.625   7.481   1.517
14955WAT     H145107   1.627   7.453   1.613
14955WAT     H245108   1.718   7.503   1.487
14956WAT      O45109   4.815   3.503   3.468
14956WAT     H145110   4.905   3.462   3.486
14956WAT     H245111   4.827   3.600   3.446
14957WAT      O45112   9.759   8.655   6.172
14957WAT     H145113   9.716   8.726   6.227
14957WAT     H245114   9.770   8.688   6.078
14958WAT      O45115   5.608   2.010   1.203
14958WAT     H145116   5.542   1.941   1.171
14958WAT     H245117   5.668   2.036   1.127
14959WAT      O45118   2.794   6.805   3.431
14959WAT     H145119   2.892   6.788   3.426
14959WAT     H245120   2.755   6.757   3.510
14960WAT      O45121   4.310   8.942   6.387
14960WAT     H145122   4.376   8.997   6.437
14960WAT     H245123   4.350   8.852   6.367
14961WAT      O45124   9.452   7.299   3.562
14961WAT     H145125   9.519   7.349   3.507
14961WAT     H245126   9.366   7.351   3.564
14962WAT      O45127   2.663   0.724   8.162
14962WAT     H145128   2.656   0.816   8.123
14962WAT     H245129   2.602   0.662   8.112
14963WAT      O45130   1.814   5.305   5.538
14963WAT     H145131   1.894   5.248   5.519
14963WAT     H245132   1.734   5.246   5.555
14964WAT      O45133   0.060   0.881   1.516
14964WAT     H145134   0.116   0.811   1.472
14964WAT     H245135   0.097   0.901   1.607
14965WAT      O45136   7.122   4.560   1.191
14965WAT     H145137   7.062   4.484   1.215
14965WAT     H245138   7.192   4.571   1.262
14966WAT      O45139   7.526   6.577   7.610
14966WAT     H145140   7.542   6.487   7.570
14966WAT     H245141   7.512   6.644   7.536
14967WAT      O45142   2.691   8.518   5.062
14967WAT     H145143   2.774   8.463   5.061
14967WAT     H245144   2.645   8.506   5.150
14968WAT      O45145   7.247   8.525   6.975
14968WAT     H145146   7.258   8.549   6.879
14968WAT     H245147   7.164   8.568   7.011
14969WAT      O45148   9.740   1.917   1.355
14969WAT     H145149   9.743   2.011   1.322
14969WAT     H245150   9.816   1.865   1.317
14970WAT      O45151   8.339   6.673   2.570
14970WAT     H145152   8.427   6.719   2.580
14970WAT     H245153   8.265   6.741   2.570
14971WAT      O45154   1.948   1.557   6.297
14971WAT     H145155   1.892   1.480   6.329
14971WAT     H245156   1.890   1.638   6.286
14972WAT      O45157   9.593   5.281   1.556
14972WAT     H145158   9.624   5.253   1.646
14972WAT     H245159   9.671   5.290   1.494
14973WAT      O45160   7.521   2.546   7.179
14973WAT     H145161   7.469   2.609   7.236
14973WAT     H245162   7.471   2.529   7.094
14974WAT      O45163   7.397   2.366   2.683
14974WAT     H145164   7.307   2.396   2.713
14974WAT     H245165   7.437   2.304   2.751
14975WAT      O45166   7.571   2.227   1.942
14975WAT     H145167   7.543   2.322   1.928
14975WAT     H245168   7.671   2.223   1.953
14976WAT      O45169   3.758   9.832   7.698
14976WAT     H145170   3.795   9.771   7.768
14976WAT     H245171   3.816   9.913   7.689
14977WAT      O45172   7.729   5.193   0.807
14977WAT     H145173   7.732   5.151   0.898
14977WAT     H245174   7.798   5.264   0.801
14978WAT      O45175   2.358   9.305   0.049
14978WAT     H145176   2.370   9.395   0.007
14978WAT     H245177   2.388   9.234  -0.014
14979WAT      O45178   7.898   4.881   6.196
14979WAT     H145179   7.831   4.848   6.130
14979WAT     H245180   7.895   4.981   6.199
14980WAT      O45181   5.932   7.934   1.504
14980WAT     H145182   5.862   7.910   1.437
14980WAT     H245183   5.891   7.982   1.581
14981WAT      O45184   7.349   1.431   0.071
14981WAT     H145185   7.443   1.443   0.041
14981WAT     H245186   7.328   1.498   0.143
14982WAT      O45187   4.113   6.140   2.000
14982WAT     H145188   4.185   6.196   1.960
14982WAT     H245189   4.146   6.099   2.085
14983WAT      O45190   1.192   0.365   5.100
14983WAT     H145191   1.217   0.268   5.097
14983WAT     H245192   1.173   0.391   5.194
14984WAT      O45193   5.512   5.967   7.395
14984WAT     H145194   5.440   6.030   7.364
14984WAT     H245195   5.586   5.967   7.328
14985WAT      O45196   7.826   8.330   8.435
14985WAT     H145197   7.778   8.368   8.356
14985WAT     H245198   7.924   8.322   8.414
14986WAT      O45199   4.148   7.042   3.623
14986WAT     H145200   4.237   7.055   3.668
14986WAT     H245201   4.161   6.990   3.539
14987WAT      O45202   1.681   7.898   3.500
14987WAT     H145203   1.692   7.957   3.420
14987WAT     H245204   1.649   7.808   3.472
14988WAT      O45205   7.683   5.958   0.774
14988WAT     H145206   7.585   5.938   0.768
14988WAT     H245207   7.703   6.046   0.732
14989WAT      O45208   5.550   0.317   7.065
14989WAT     H145209   5.520   0.383   7.134
14989WAT     H245210   5.475   0.252   7.047
14990WAT      O45211   0.004   4.561   3.112
14990WAT     H145212   0.016   4.652   3.074
14990WAT     H245213  -0.000   4.494   3.039
14991WAT      O45214   7.169   6.402   6.967
14991WAT     H145215   7.184   6.501   6.964
14991WAT     H245216   7.251   6.356   7.000
14992WAT      O45217   3.909   2.875   8.601
14992WAT     H145218   3.959   2.788   8.605
14992WAT     H245219   3.820   2.864   8.646
14993WAT      O45220   0.126   4.157   6.406
14993WAT     H145221   0.191   4.081   6.405
14993WAT     H245222   0.095   4.172   6.500
14994WAT      O45223   7.162   0.343   9.824
14994WAT     H145224   7.111   0.411   9.771
14994WAT     H245225   7.119   0.332   9.914
14995WAT      O45226   7.125   3.471   9.450
14995WAT     H145227   7.187   3.549   9.456
14995WAT     H245228   7.145   3.418   9.367
14996WAT      O45229   1.069   3.133   7.459
14996WAT     H145230   1.136   3.073   7.418
14996WAT     H245231   1.076   3.127   7.559
14997WAT      O45232   4.906   1.133   3.523
14997WAT     H145233   4.951   1.192   3.591
14997WAT     H245234   4.969   1.116   3.448
14998WAT      O45235   1.868   7.036   7.598
14998WAT     H145236   1.921   7.066   7.677
14998WAT     H245237   1.843   6.940   7.609
14999WAT      O45238   5.799   5.122   4.591
14999WAT     H145239   5.804   5.050   4.661
14999WAT     H245240   5.875   5.186   4.603
15000WAT      O45241   1.848   9.426   2.815
15000WAT     H145242   1.850   9.341   2.867
15000WAT     H245243   1.904   9.416   2.733
15001WAT      O45244   9.173   0.891   2.486
15001WAT     H145245   9.113   0.816   2.458
15001WAT     H245246   9.117   0.969   2.514
15002WAT      O45247   1.644   6.586   0.028
15002WAT     H145248   1.637   6.514  -0.041
15002WAT     H245249   1.603   6.555   0.114
15003WAT      O45250   2.783   3.082   6.410
15003WAT     H145251   2.880   3.070   6.432
15003WAT     H245252   2.757   3.021   6.335
15004WAT      O45253   2.496   9.523   4.293
15004WAT     H145254   2.565   9.482   4.352
15004WAT     H245255   2.516   9.621   4.281
15005WAT      O45256   5.082   4.005   8.141
15005WAT     H145257   5.114   4.070   8.210
15005WAT     H245258   5.160   3.962   8.096
15006WAT      O45259   4.441   5.559   2.452
15006WAT     H145260   4.521   5.561   2.392
15006WAT     H245261   4.470   5.542   2.546
15007WAT      O45262   2.915   6.054   3.248
15007WAT     H145263   2.951   5.970   3.290
15007WAT     H245264   2.899   6.037   3.150
15008WAT      O45265   3.881   9.419   5.539
15008WAT     H145266   3.840   9.493   5.485
15008WAT     H245267   3.918   9.456   5.624
15009WAT      O45268   0.572   8.753   1.698
15009WAT     H145269   0.614   8.815   1.764
15009WAT     H245270   0.545   8.804   1.617
15010WAT      O45271   5.524   3.291   7.622
15010WAT     H145272   5.551   3.381   7.657
15010WAT     H245273   5.482   3.238   7.695
15011WAT      O45274   2.138   7.230   9.055
15011WAT     H145275   2.121   7.135   9.082
15011WAT     H245276   2.051   7.279   9.052
15012WAT      O45277   4.628   8.262   7.663
15012WAT     H145278   4.709   8.258   7.721
15012WAT     H245279   4.566   8.187   7.688
15013WAT      O45280   0.781   7.481   0.809
15013WAT     H145281   0.750   7.541   0.882
15013WAT     H245282   0.705   7.462   0.747
15014WAT      O45283   2.097   5.045   1.362
15014WAT     H145284   2.090   4.954   1.321
15014WAT     H245285   2.068   5.041   1.457
15015WAT      O45286   4.518   5.450   3.063
15015WAT     H145287   4.592   5.516   3.057
15015WAT     H245288   4.550   5.361   3.029
15016WAT      O45289   1.504   1.097   2.722
15016WAT     H145290   1.475   1.023   2.662
15016WAT     H245291   1.536   1.059   2.808
15017WAT      O45292   5.540   4.106   2.792
15017WAT     H145293   5.561   4.120   2.695
15017WAT     H245294   5.449   4.142   2.813
15018WAT      O45295   9.414   1.490   8.610
15018WAT     H145296   9.326   1.457   8.645
15018WAT     H245297   9.472   1.519   8.686
15019WAT      O45298   7.375   2.450   6.584
15019WAT     H145299   7.423   2.406   6.660
15019WAT     H245300   7.379   2.549   6.595
15020WAT      O45301   7.197   3.022   2.302
15020WAT     H145302   7.143   2.938   2.294
15020WAT     H245303   7.210   3.062   2.211
15021WAT      O45304   9.715   0.529   7.872
15021WAT     H145305   9.779   0.536   7.949
15021WAT     H245306   9.699   0.620   7.833
15022WAT      O45307   6.282   6.231   7.151
15022WAT     H145308   6.185   6.232   7.173
15022WAT     H245309   6.296   6.191   7.060
15023WAT      O45310   2.625   2.249   6.917
15023WAT     H145311   2.651   2.154   6.897
15023WAT     H245312   2.697   2.292   6.971
15024WAT      O45313   7.494   2.232   1.394
15024WAT     H145314   7.564   2.165   1.370
15024WAT     H245315   7.415   2.220   1.334
15025WAT      O45316   2.753   2.602   8.526
15025WAT     H145317   2.685   2.603   8.454
15025WAT     H245318   2.714   2.561   8.609
15026WAT      O45319   4.988   6.528   2.502
15026WAT     H145320   4.926   6.507   2.427
15026WAT     H245321   5.083   6.512   2.472
15027WAT      O45322   2.448   2.346   7.516
15027WAT     H145323   2.522   2.319   7.577
15027WAT     H245324   2.379   2.275   7.514
15028WAT      O45325   6.604   4.863   9.160
15028WAT     H145326   6.692   4.839   9.199
15028WAT     H245327   6.556   4.924   9.223
15029WAT      O45328   9.527   4.978   9.780
15029WAT     H145329   9.460   5.051   9.787
15029WAT     H245330   9.481   4.889   9.784
15030WAT      O45331   7.757   2.617   2.894
15030WAT     H145332   7.707   2.608   2.808
15030WAT     H245333   7.825   2.544   2.900
15031WAT      O45334   5.051   7.968   8.392
15031WAT     H145335   5.133   7.912   8.380
15031WAT     H245336   4.987   7.949   8.318
15032WAT      O45337   0.048   9.690   1.449
15032WAT     H145338   0.051   9.637   1.364
15032WAT     H245339  -0.022   9.761   1.440
15033WAT      O45340   2.883   2.726   9.037
15033WAT     H145341   2.864   2.744   9.134
15033WAT     H245342   2.805   2.676   8.998
15034WAT      O45343   6.061   6.949   8.563
15034WAT     H145344   6.033   7.043   8.541
15034WAT     H245345   6.095   6.904   8.481
15035WAT      O45346   7.212   1.208   9.018
15035WAT     H145347   7.177   1.215   8.925
15035WAT     H245348   7.220   1.111   9.043
15036WAT      O45349   2.997   5.888   8.064
15036WAT     H145350   3.035   5.849   8.148
15036WAT     H245351   2.961   5.815   8.006
15037WAT      O45352   1.056   2.532   7.311
15037WAT     H145353   0.972   2.512   7.362
15037WAT     H245354   1.102   2.446   7.289
15038WAT      O45355   8.215   1.999   2.793
15038WAT     H145356   8.204   1.984   2.891
15038WAT     H245357   8.312   2.004   2.771
15039WAT      O45358   8.678   7.093   8.718
15039WAT     H145359   8.694   7.120   8.623
15039WAT     H245360   8.665   7.175   8.774
15040WAT      O45361   1.708   6.322   2.071
15040WAT     H145362   1.787   6.383   2.081
15040WAT     H245363   1.700   6.294   1.975
15041WAT      O45364   0.296   4.469   7.210
15041WAT     H145365   0.333   4.531   7.140
15041WAT     H245366   0.336   4.378   7.198
15042WAT      O45367   9.891   7.174   6.056
15042WAT     H145368   9.815   7.140   6.001
15042WAT     H245369   9.856   7.219   6.138
15043WAT      O45370   0.309   8.720   8.640
15043WAT     H145371   0.314   8.819   8.652
15043WAT     H245372   0.250   8.699   8.562
15044WAT      O45373   4.787   6.197   7.052
15044WAT     H145374   4.770   6.100   7.037
15044WAT     H245375   4.705   6.240   7.091
15045WAT      O45376   5.718   2.709   0.626
15045WAT     H145377   5.643   2.775   0.633
15045WAT     H245378   5.791   2.747   0.569
15046WAT      O45379   2.784   0.815   3.534
15046WAT     H145380   2.871   0.824   3.581
15046WAT     H245381   2.788   0.736   3.472
15047WAT      O45382   5.102   2.059   9.323
15047WAT     H145383   5.185   2.053   9.267
15047WAT     H245384   5.030   2.106   9.271
15048WAT      O45385   4.615   7.681   7.987
15048WAT     H145386   4.537   7.717   7.935
15048WAT     H245387   4.696   7.680   7.929
15049WAT      O45388   4.392   1.806   0.972
15049WAT     H145389   4.297   1.815   1.001
15049WAT     H245390   4.397   1.814   0.872
15050WAT      O45391   7.364   0.284   7.643
15050WAT     H145392   7.309   0.312   7.564
15050WAT     H245393   7.318   0.209   7.690
15051WAT      O45394   4.498   6.251   0.045
15051WAT     H145395   4.492   6.344   0.008
15051WAT     H245396   4.429   6.240   0.117
15052WAT      O45397   2.926   5.536   7.044
15052WAT     H145398   2.859   5.462   7.048
15052WAT     H245399   3.017   5.499   7.032
15053WAT      O45400   6.202   6.653   2.144
15053WAT     H145401   6.195   6.569   2.090
15053WAT     H245402   6.298   6.669   2.168
15054WAT      O45403   9.510   9.462   6.171
15054WAT     H145404   9.586   9.409   6.207
15054WAT     H245405   9.544   9.547   6.131
15055WAT      O45406   7.647   9.208   5.868
15055WAT     H145407   7.590   9.266   5.809
15055WAT     H245408   7.673   9.125   5.819
15056WAT      O45409   7.580   3.459   0.793
15056WAT     H145410   7.636   3.540   0.779
15056WAT     H245411   7.508   3.479   0.860
15057WAT      O45412   6.012   8.667   1.222
15057WAT     H145413   6.093   8.699   1.271
15057WAT     H245414   5.947   8.743   1.210
15058WAT      O45415   2.058   5.406   0.663
15058WAT     H145416   2.056   5.484   0.601
15058WAT     H245417   2.047   5.321   0.612
15059WAT      O45418   8.897   2.291   6.954
15059WAT     H145419   8.975   2.354   6.943
15059WAT     H245420   8.813   2.344   6.961
15060WAT      O45421   9.561   9.025   2.503
15060WAT     H145422   9.530   9.036   2.408
15060WAT     H245423   9.542   8.932   2.534
15061WAT      O45424   8.962   0.015   7.322
15061WAT     H145425   9.049  -0.029   7.298
15061WAT     H245426   8.980   0.094   7.381
15062WAT      O45427   6.558   8.571   9.789
15062WAT     H145428   6.489   8.536   9.852
15062WAT     H245429   6.527   8.556   9.695
15063WAT      O45430   8.632   1.767   1.241
15063WAT     H145431   8.634   1.823   1.324
15063WAT     H245432   8.582   1.817   1.170
15064WAT      O45433   4.627   8.702   0.225
15064WAT     H145434   4.658   8.611   0.251
15064WAT     H245435   4.599   8.753   0.307
15065WAT      O45436   2.346   0.331   6.554
15065WAT     H145437   2.415   0.355   6.623
15065WAT     H245438   2.270   0.284   6.599
15066WAT      O45439   8.168   0.842   7.316
15066WAT     H145440   8.085   0.806   7.272
15066WAT     H245441   8.233   0.871   7.245
15067WAT      O45442   8.376   0.491   7.131
15067WAT     H145443   8.320   0.535   7.060
15067WAT     H245444   8.370   0.391   7.122
15068WAT      O45445   1.299   5.155   0.346
15068WAT     H145446   1.372   5.139   0.280
15068WAT     H245447   1.243   5.233   0.317
15069WAT      O45448   6.874   3.148   7.821
15069WAT     H145449   6.849   3.052   7.810
15069WAT     H245450   6.799   3.197   7.866
15070WAT      O45451   4.602   9.703   0.421
15070WAT     H145452   4.591   9.720   0.519
15070WAT     H245453   4.678   9.758   0.386
15071WAT      O45454   9.753   4.680   1.588
15071WAT     H145455   9.654   4.698   1.586
15071WAT     H245456   9.802   4.767   1.594
15072WAT      O45457   1.491   9.627   9.792
15072WAT     H145458   1.393   9.613   9.807
15072WAT     H245459   1.505   9.693   9.719
15073WAT      O45460   0.013   1.311   4.592
15073WAT     H145461  -0.082   1.285   4.573
15073WAT     H245462   0.015   1.373   4.671
15074WAT      O45463   8.724   2.998   1.074
15074WAT     H145464   8.723   3.098   1.067
15074WAT     H245465   8.819   2.966   1.074
15075WAT      O45466   7.023   0.353   2.766
15075WAT     H145467   7.044   0.428   2.829
15075WAT     H245468   7.109   0.308   2.739
15076WAT      O45469   3.502   5.989   5.045
15076WAT     H145470   3.406   5.970   5.068
15076WAT     H245471   3.548   6.029   5.124
15077WAT      O45472   0.485   7.409   1.250
15077WAT     H145473   0.399   7.364   1.225
15077WAT     H245474   0.493   7.412   1.350
15078WAT      O45475   3.978   8.260   3.732
15078WAT     H145476   4.036   8.336   3.762
15078WAT     H245477   4.035   8.190   3.690
15079WAT      O45478   7.435   2.222   0.804
15079WAT     H145479   7.355   2.195   0.858
15079WAT     H245480   7.444   2.161   0.725
15080WAT      O45481   9.006   1.411   4.719
15080WAT     H145482   8.920   1.378   4.757
15080WAT     H245483   9.032   1.354   4.641
15081WAT      O45484   9.420   6.391   6.054
15081WAT     H145485   9.347   6.334   6.016
15081WAT     H245486   9.406   6.402   6.153
15082WAT      O45487   5.285   8.671   3.820
15082WAT     H145488   5.355   8.707   3.759
15082WAT     H245489   5.267   8.737   3.894
15083WAT      O45490   6.002   9.439   3.995
15083WAT     H145491   6.012   9.390   3.908
15083WAT     H245492   6.083   9.496   4.010
15084WAT      O45493   0.422   6.414   5.615
15084WAT     H145494   0.363   6.478   5.565
15084WAT     H245495   0.404   6.421   5.713
15085WAT      O45496   6.639   4.044   5.235
15085WAT     H145497   6.638   4.122   5.172
15085WAT     H245498   6.670   3.963   5.186
15086WAT      O45499   3.031   6.166   6.669
15086WAT     H145500   2.931   6.167   6.658
15086WAT     H245501   3.071   6.234   6.608
15087WAT      O45502   9.050   8.608   3.633
15087WAT     H145503   9.134   8.606   3.688
15087WAT     H245504   8.972   8.630   3.691
15088WAT      O45505   1.318   6.409   7.117
15088WAT     H145506   1.313   6.506   7.093
15088WAT     H245507   1.413   6.383   7.133
15089WAT      O45508   6.857   1.994   7.592
15089WAT     H145509   6.782   1.937   7.626
15089WAT     H245510   6.942   1.942   7.591
15090WAT      O45511   5.346   2.003   6.317
15090WAT     H145512   5.338   1.904   6.301
15090WAT     H245513   5.260   2.047   6.290
15091WAT      O45514   8.570   1.331   8.290
15091WAT     H145515   8.474   1.303   8.295
15091WAT     H245516   8.594   1.352   8.195
15092WAT      O45517   9.396   0.709   8.592
15092WAT     H145518   9.431   0.744   8.679
15092WAT     H245519   9.327   0.639   8.609
15093WAT      O45520   2.496   8.888   7.497
15093WAT     H145521   2.540   8.968   7.457
15093WAT     H245522   2.427   8.852   7.434
15094WAT      O45523   7.704   0.258   9.864
15094WAT     H145524   7.610   0.280   9.841
15094WAT     H245525   7.766   0.316   9.811
15095WAT      O45526   7.830   4.823   2.563
15095WAT     H145527   7.799   4.778   2.479
15095WAT     H245528   7.843   4.754   2.635
15096WAT      O45529   6.836   1.120   2.871
15096WAT     H145530   6.800   1.037   2.914
15096WAT     H245531   6.801   1.200   2.919
15097WAT      O45532   7.760   5.712   2.275
15097WAT     H145533   7.848   5.667   2.259
15097WAT     H245534   7.764   5.806   2.240
15098WAT      O45535   6.036   0.078   8.923
15098WAT     H145536   6.126   0.120   8.919
15098WAT     H245537   5.988   0.112   9.004
15099WAT      O45538   3.411   7.334   8.651
15099WAT     H145539   3.487   7.276   8.622
15099WAT     H245540   3.400   7.330   8.750
15100WAT      O45541   6.679   4.112   4.903
15100WAT     H145542   6.747   4.185   4.909
15100WAT     H245543   6.725   4.024   4.892
15101WAT      O45544   4.444   2.979   7.806
15101WAT     H145545   4.473   2.974   7.902
15101WAT     H245546   4.350   2.944   7.798
15102WAT      O45547   2.051   7.088   0.497
15102WAT     H145548   2.128   7.026   0.511
15102WAT     H245549   2.041   7.107   0.399
15103WAT      O45550   3.934   3.611   6.686
15103WAT     H145551   3.941   3.587   6.783
15103WAT     H245552   3.840   3.640   6.666
15104WAT      O45553   7.990   1.600   3.288
15104WAT     H145554   7.943   1.684   3.260
15104WAT     H245555   7.926   1.540   3.335
15105WAT      O45556   8.246   7.271   4.916
15105WAT     H145557   8.254   7.370   4.930
15105WAT     H245558   8.312   7.242   4.847
15106WAT      O45559   1.571   8.820   1.261
15106WAT     H145560   1.572   8.726   1.294
15106WAT     H245561   1.506   8.828   1.186
15107WAT      O45562   1.449   6.608   1.002
15107WAT     H145563   1.404   6.585   1.088
15107WAT     H245564   1.398   6.680   0.956
15108WAT      O45565   8.233   0.371   4.114
15108WAT     H145566   8.280   0.450   4.075
15108WAT     H245567   8.134   0.383   4.106
15109WAT      O45568   8.652   5.023   8.826
15109WAT     H145569   8.617   4.965   8.753
15109WAT     H245570   8.751   5.011   8.834
15110WAT      O45571   2.059   3.571   8.490
15110WAT     H145572   2.090   3.659   8.455
15110WAT     H245573   2.098   3.497   8.435
15111WAT      O45574   9.041   8.766   5.297
15111WAT     H145575   9.052   8.729   5.205
15111WAT     H245576   9.131   8.784   5.337
15112WAT      O45577   5.638   3.997   5.842
15112WAT     H145578   5.737   3.994   5.835
15112WAT     H245579   5.604   4.084   5.804
15113WAT      O45580   4.584   4.994   1.585
15113WAT     H145581   4.574   4.919   1.519
15113WAT     H245582   4.658   5.054   1.554
15114WAT      O45583   6.822   1.297   7.333
15114WAT     H145584   6.738   1.262   7.376
15114WAT     H245585   6.841   1.389   7.367
15115WAT      O45586   7.286   2.434   0.188
15115WAT     H145587   7.273   2.434   0.287
15115WAT     H245588   7.384   2.434   0.168
15116WAT      O45589   4.893   1.281   9.320
15116WAT     H145590   4.850   1.192   9.303
15116WAT     H245591   4.912   1.326   9.232
15117WAT      O45592   4.315   7.256   8.430
15117WAT     H145593   4.374   7.176   8.442
15117WAT     H245594   4.360   7.337   8.467
15118WAT      O45595   5.108   6.387   4.212
15118WAT     H145596   5.015   6.421   4.201
15118WAT     H245597   5.155   6.441   4.282
15119WAT      O45598   9.678   2.221   9.481
15119WAT     H145599   9.599   2.230   9.421
15119WAT     H245600   9.659   2.153   9.552
15120WAT      O45601   5.778   9.635   3.592
15120WAT     H145602   5.741   9.554   3.545
15120WAT     H245603   5.851   9.674   3.536
15121WAT      O45604   4.750   9.046   0.123
15121WAT     H145605   4.793   9.101   0.051
15121WAT     H245606   4.678   9.100   0.168
15122WAT      O45607   4.136   5.026   1.819
15122WAT     H145608   4.232   5.000   1.831
15122WAT     H245609   4.108   5.086   1.894
15123WAT      O45610   9.523   8.455   2.479
15123WAT     H145611   9.547   8.396   2.402
15123WAT     H245612   9.424   8.453   2.494
15124WAT      O45613   7.168   8.938   1.992
15124WAT     H145614   7.204   8.952   1.899
15124WAT     H245615   7.134   8.844   2.000
15125WAT      O45616   6.368   4.830   4.990
15125WAT     H145617   6.421   4.906   5.028
15125WAT     H245618   6.284   4.819   5.043
15126WAT      O45619   9.413   8.119   7.208
15126WAT     H145620   9.418   8.203   7.262
15126WAT     H245621   9.492   8.114   7.147
15127WAT      O45622   2.581   4.544   0.618
15127WAT     H145623   2.496   4.535   0.565
15127WAT     H245624   2.615   4.453   0.642
15128WAT      O45625   1.026   0.954   3.465
15128WAT     H145626   1.072   0.985   3.548
15128WAT     H245627   0.944   0.902   3.489
15129WAT      O45628   9.399   5.876   6.784
15129WAT     H145629   9.475   5.835   6.733
15129WAT     H245630   9.313   5.836   6.754
15130WAT      O45631   6.306   8.157   1.470
15130WAT     H145632   6.308   8.209   1.385
15130WAT     H245633   6.306   8.220   1.548
15131WAT      O45634   8.079   8.386   5.692
15131WAT     H145635   8.096   8.399   5.790
15131WAT     H245636   8.113   8.296   5.664
15132WAT      O45637   8.281   1.953   4.326
15132WAT     H145638   8.302   2.051   4.327
15132WAT     H245639   8.221   1.933   4.248
15133WAT      O45640   3.899   3.992   1.577
15133WAT     H145641   3.943   4.078   1.603
15133WAT     H245642   3.831   3.968   1.646
15134WAT      O45643   7.184   5.928   3.344
15134WAT     H145644   7.209   5.838   3.309
15134WAT     H245645   7.241   5.949   3.424
15135WAT      O45646   4.967   6.124   0.970
15135WAT     H145647   4.988   6.134   1.067
15135WAT     H245648   4.991   6.032   0.939
15136WAT      O45649   9.606   7.277   6.479
15136WAT     H145650   9.515   7.243   6.456
15136WAT     H245651   9.606   7.310   6.574
15137WAT      O45652   5.783   2.145   1.722
15137WAT     H145653   5.790   2.154   1.821
15137WAT     H245654   5.839   2.068   1.691
15138WAT      O45655   6.553   4.844   8.561
15138WAT     H145656   6.625   4.874   8.624
15138WAT     H245657   6.472   4.903   8.572
15139WAT      O45658   3.449   0.965   2.167
15139WAT     H145659   3.381   1.011   2.225
15139WAT     H245660   3.515   0.918   2.225
15140WAT      O45661   0.045   4.462   7.127
15140WAT     H145662   0.139   4.453   7.159
15140WAT     H245663   0.043   4.520   7.045
15141WAT      O45664   3.468   8.885   4.608
15141WAT     H145665   3.388   8.939   4.581
15141WAT     H245666   3.551   8.926   4.569
15142WAT      O45667   8.758   4.805   7.088
15142WAT     H145668   8.803   4.779   7.173
15142WAT     H245669   8.700   4.730   7.056
15143WAT      O45670   7.057   5.235   6.300
15143WAT     H145671   7.060   5.154   6.241
15143WAT     H245672   6.962   5.265   6.311
15144WAT      O45673   8.303   2.171   7.997
15144WAT     H145674   8.261   2.225   7.924
15144WAT     H245675   8.231   2.128   8.052
15145WAT      O45676   8.632   7.641   6.713
15145WAT     H145677   8.542   7.647   6.669
15145WAT     H245678   8.645   7.549   6.750
15146WAT      O45679   0.773   9.265   6.990
15146WAT     H145680   0.866   9.291   7.015
15146WAT     H245681   0.708   9.309   7.052
15147WAT      O45682   9.213   2.018   8.396
15147WAT     H145683   9.292   1.957   8.397
15147WAT     H245684   9.130   1.967   8.420
15148WAT      O45685   0.971   1.014   5.708
15148WAT     H145686   1.060   1.013   5.662
15148WAT     H245687   0.928   1.103   5.696
15149WAT      O45688   6.906   1.564   6.233
15149WAT     H145689   6.842   1.499   6.273
15149WAT     H245690   6.979   1.583   6.299
15150WAT      O45691   3.213   8.951   4.528
15150WAT     H145692   3.225   8.855   4.504
15150WAT     H245693   3.122   8.982   4.498
15151WAT      O45694   8.145   6.601   7.740
15151WAT     H145695   8.157   6.652   7.825
15151WAT     H245696   8.227   6.610   7.684
15152WAT      O45697   1.537   4.956   4.821
15152WAT     H145698   1.513   4.866   4.857
15152WAT     H245699   1.567   4.946   4.726
15153WAT      O45700   0.022   8.719   7.579
15153WAT     H145701  -0.042   8.794   7.591
15153WAT     H245702   0.024   8.663   7.662
15154WAT      O45703   6.404   9.268   7.980
15154WAT     H145704   6.342   9.258   7.902
15154WAT     H245705   6.413   9.180   8.027
15155WAT      O45706   0.373   9.569   2.183
15155WAT     H145707   0.401   9.636   2.114
15155WAT     H245708   0.273   9.566   2.188
15156WAT      O45709   6.397   6.527   9.693
15156WAT     H145710   6.387   6.460   9.620
15156WAT     H245711   6.434   6.482   9.774
15157WAT      O45712   3.303   4.430   9.172
15157WAT     H145713   3.311   4.528   9.189
15157WAT     H245714   3.272   4.384   9.256
15158WAT      O45715   4.381   8.107   7.663
15158WAT     H145716   4.306   8.151   7.614
15158WAT     H245717   4.357   8.012   7.683
15159WAT      O45718   7.258   1.532   9.457
15159WAT     H145719   7.347   1.579   9.460
15159WAT     H245720   7.268   1.446   9.406
15160WAT      O45721   3.986   9.164   6.999
15160WAT     H145722   3.964   9.247   7.051
15160WAT     H245723   3.940   9.167   6.910
15161WAT      O45724   0.750   0.946   0.358
15161WAT     H145725   0.660   0.912   0.386
15161WAT     H245726   0.821   0.903   0.415
15162WAT      O45727   2.932   2.682   3.130
15162WAT     H145728   2.892   2.694   3.221
15162WAT     H245729   2.978   2.594   3.125
15163WAT      O45730   1.775   1.235   8.882
15163WAT     H145731   1.810   1.269   8.795
15163WAT     H245732   1.692   1.182   8.867
15164WAT      O45733   3.690   2.143   6.308
15164WAT     H145734   3.592   2.124   6.311
15164WAT     H245735   3.713   2.214   6.374
15165WAT      O45736   5.522   6.083   1.313
15165WAT     H145737   5.482   6.112   1.400
15165WAT     H245738   5.449   6.064   1.248
15166WAT      O45739   7.608   3.212   2.839
15166WAT     H145740   7.575   3.252   2.753
15166WAT     H245741   7.580   3.270   2.915
15167WAT      O45742   8.825   8.980   9.395
15167WAT     H145743   8.852   9.073   9.371
15167WAT     H245744   8.728   8.979   9.420
15168WAT      O45745   7.005   9.562   2.964
15168WAT     H145746   6.918   9.555   3.013
15168WAT     H245747   7.009   9.490   2.894
15169WAT      O45748   8.361   8.931   0.524
15169WAT     H145749   8.271   8.887   0.519
15169WAT     H245750   8.427   8.877   0.473
15170WAT      O45751   0.218   0.153   3.097
15170WAT     H145752   0.193   0.063   3.060
15170WAT     H245753   0.135   0.207   3.112
15171WAT      O45754   8.102   8.728   7.988
15171WAT     H145755   8.130   8.633   7.973
15171WAT     H245756   8.106   8.778   7.902
15172WAT      O45757   9.447   3.245   7.911
15172WAT     H145758   9.455   3.253   7.811
15172WAT     H245759   9.358   3.205   7.934
15173WAT      O45760   5.240   4.033   5.666
15173WAT     H145761   5.280   4.071   5.749
15173WAT     H245762   5.147   4.001   5.685
15174WAT      O45763   2.242   6.570   2.281
15174WAT     H145764   2.164   6.514   2.252
15174WAT     H245765   2.251   6.649   2.221
15175WAT      O45766   7.875   8.983   9.099
15175WAT     H145767   7.906   9.077   9.116
15175WAT     H245768   7.779   8.985   9.069
15176WAT      O45769   1.888   8.648   8.630
15176WAT     H145770   1.867   8.657   8.728
15176WAT     H245771   1.854   8.729   8.582
15177WAT      O45772   3.697   1.577   3.065
15177WAT     H145773   3.776   1.518   3.046
15177WAT     H245774   3.640   1.584   2.983
15178WAT      O45775   4.319   6.855   9.612
15178WAT     H145776   4.378   6.869   9.692
15178WAT     H245777   4.339   6.926   9.544
15179WAT      O45778   9.523   2.790   0.851
15179WAT     H145779   9.440   2.736   0.865
15179WAT     H245780   9.574   2.796   0.937
15180WAT      O45781   6.855   7.227   5.297
15180WAT     H145782   6.841   7.324   5.318
15180WAT     H245783   6.930   7.192   5.352
15181WAT      O45784   5.877   4.191   8.820
15181WAT     H145785   5.798   4.247   8.844
15181WAT     H245786   5.847   4.115   8.762
15182WAT      O45787   3.895   0.549   5.234
15182WAT     H145788   3.874   0.525   5.139
15182WAT     H245789   3.986   0.590   5.238
15183WAT      O45790   6.878   7.666   8.438
15183WAT     H145791   6.931   7.600   8.492
15183WAT     H245792   6.790   7.681   8.483
15184WAT      O45793   9.716   3.544   5.342
15184WAT     H145794   9.678   3.545   5.435
15184WAT     H245795   9.766   3.458   5.328
15185WAT      O45796   9.478   0.740   3.145
15185WAT     H145797   9.387   0.748   3.187
15185WAT     H245798   9.480   0.793   3.060
15186WAT      O45799   4.630   7.386   9.253
15186WAT     H145800   4.658   7.481   9.269
15186WAT     H245801   4.599   7.376   9.159
15187WAT      O45802   1.834   5.722   5.530
15187WAT     H145803   1.811   5.798   5.469
15187WAT     H245804   1.780   5.642   5.505
15188WAT      O45805   9.073   9.208   2.956
15188WAT     H145806   9.111   9.209   3.048
15188WAT     H245807   9.141   9.242   2.891
15189WAT      O45808   2.500   0.826   9.799
15189WAT     H145809   2.491   0.828   9.898
15189WAT     H245810   2.589   0.864   9.773
15190WAT      O45811   6.920   4.891   8.356
15190WAT     H145812   6.848   4.913   8.291
15190WAT     H245813   6.882   4.879   8.447
15191WAT      O45814   6.259   6.624   6.218
15191WAT     H145815   6.333   6.681   6.184
15191WAT     H245816   6.171   6.661   6.186
15192WAT      O45817   6.630   2.297   7.694
15192WAT     H145818   6.622   2.198   7.711
15192WAT     H245819   6.540   2.339   7.701
15193WAT      O45820   7.979   6.736   1.181
15193WAT     H145821   7.935   6.765   1.266
15193WAT     H245822   8.054   6.674   1.202
15194WAT      O45823   4.093   3.249   6.853
15194WAT     H145824   4.064   3.182   6.784
15194WAT     H245825   4.025   3.321   6.860
15195WAT      O45826   4.439   9.430   5.444
15195WAT     H145827   4.388   9.476   5.371
15195WAT     H245828   4.397   9.450   5.532
15196WAT      O45829   8.868   0.512   8.138
15196WAT     H145830   8.944   0.485   8.079
15196WAT     H245831   8.783   0.474   8.101
15197WAT      O45832   6.855   1.306   1.564
15197WAT     H145833   6.825   1.225   1.513
15197WAT     H245834   6.873   1.381   1.501
15198WAT      O45835   4.842   7.807   0.480
15198WAT     H145836   4.786   7.874   0.432
15198WAT     H245837   4.919   7.779   0.422
15199WAT      O45838   5.227   6.899   7.302
15199WAT     H145839   5.237   6.827   7.370
15199WAT     H245840   5.179   6.977   7.343
15200WAT      O45841   8.415   2.995   3.900
15200WAT     H145842   8.436   3.092   3.889
15200WAT     H245843   8.398   2.976   3.997
15201WAT      O45844   0.563   1.268   4.434
15201WAT     H145845   0.558   1.174   4.399
15201WAT     H245846   0.513   1.329   4.373
15202WAT      O45847   2.687   4.482   9.171
15202WAT     H145848   2.721   4.388   9.172
15202WAT     H245849   2.596   4.484   9.213
15203WAT      O45850   8.672   8.513   1.191
15203WAT     H145851   8.676   8.445   1.118
15203WAT     H245852   8.648   8.468   1.277
15204WAT      O45853   0.086   4.810   9.295
15204WAT     H145854   0.064   4.882   9.361
15204WAT     H245855   0.044   4.831   9.207
15205WAT      O45856   9.392   3.493   8.933
15205WAT     H145857   9.306   3.442   8.935
15205WAT     H245858   9.415   3.515   8.838
15206WAT      O45859   9.245   5.360   9.177
15206WAT     H145860   9.225   5.419   9.099
15206WAT     H245861   9.226   5.409   9.262
15207WAT      O45862   7.032   2.907   7.457
15207WAT     H145863   7.074   2.972   7.393
15207WAT     H245864   7.096   2.889   7.532
15208WAT      O45865   8.025   5.605   1.221
15208WAT     H145866   8.080   5.523   1.207
15208WAT     H245867   8.047   5.646   1.310
15209WAT      O45868   5.109   0.210   3.484
15209WAT     H145869   5.052   0.271   3.539
15209WAT     H245870   5.177   0.263   3.434
15210WAT      O45871   4.655   6.110   4.144
15210WAT     H145872   4.711   6.186   4.111
15210WAT     H245873   4.622   6.056   4.067
15211WAT      O45874   6.266   3.164   6.295
15211WAT     H145875   6.173   3.129   6.286
15211WAT     H245876   6.322   3.131   6.219
15212WAT      O45877   8.112   6.375   4.288
15212WAT     H145878   8.018   6.370   4.254
15212WAT     H245879   8.129   6.465   4.328
15213WAT      O45880   2.063   3.659   0.256
15213WAT     H145881   2.143   3.713   0.283
15213WAT     H245882   2.027   3.693   0.169
15214WAT      O45883   3.624   4.577   2.501
15214WAT     H145884   3.597   4.491   2.459
15214WAT     H245885   3.618   4.570   2.601
15215WAT      O45886   5.307   4.506   1.057
15215WAT     H145887   5.288   4.535   0.964
15215WAT     H245888   5.252   4.560   1.121
15216WAT      O45889   0.509   4.563   8.658
15216WAT     H145890   0.456   4.567   8.573
15216WAT     H245891   0.486   4.641   8.716
15217WAT      O45892   2.103   5.901   4.316
15217WAT     H145893   2.101   6.001   4.327
15217WAT     H245894   2.010   5.865   4.323
15218WAT      O45895   6.354   0.377   4.769
15218WAT     H145896   6.376   0.313   4.696
15218WAT     H245897   6.417   0.454   4.766
15219WAT      O45898   1.566   6.680   7.262
15219WAT     H145899   1.542   6.776   7.274
15219WAT     H245900   1.662   6.666   7.286
15220WAT      O45901   7.760   3.902   6.470
15220WAT     H145902   7.821   3.866   6.540
15220WAT     H245903   7.803   3.892   6.380
15221WAT      O45904   4.405   1.377   1.609
15221WAT     H145905   4.424   1.313   1.683
15221WAT     H245906   4.318   1.424   1.626
15222WAT      O45907   9.676   3.836   0.301
15222WAT     H145908   9.631   3.756   0.340
15222WAT     H245909   9.732   3.808   0.223
15223WAT      O45910   3.290   8.562   9.725
15223WAT     H145911   3.359   8.564   9.653
15223WAT     H245912   3.326   8.514   9.805
15224WAT      O45913   5.028   5.842   0.878
15224WAT     H145914   5.037   5.760   0.822
15224WAT     H245915   4.961   5.825   0.950
15225WAT      O45916   5.776   2.008   2.797
15225WAT     H145917   5.862   2.049   2.766
15225WAT     H245918   5.708   2.014   2.725
15226WAT      O45919   7.601   7.381   6.059
15226WAT     H145920   7.550   7.296   6.043
15226WAT     H245921   7.686   7.379   6.006
15227WAT      O45922   7.644   5.159   1.697
15227WAT     H145923   7.593   5.129   1.617
15227WAT     H245924   7.617   5.252   1.722
15228WAT      O45925   3.796   4.512   8.515
15228WAT     H145926   3.831   4.496   8.423
15228WAT     H245927   3.696   4.518   8.513
15229WAT      O45928   5.326   6.340   8.437
15229WAT     H145929   5.358   6.248   8.462
15229WAT     H245930   5.324   6.397   8.519
15230WAT      O45931   7.301   4.761   0.808
15230WAT     H145932   7.284   4.851   0.847
15230WAT     H245933   7.370   4.768   0.736
15231WAT      O45934   6.165   6.199   7.683
15231WAT     H145935   6.181   6.298   7.691
15231WAT     H245936   6.078   6.176   7.727
15232WAT      O45937   4.400   2.446   3.759
15232WAT     H145938   4.402   2.357   3.803
15232WAT     H245939   4.348   2.511   3.816
15233WAT      O45940   8.780   1.229   9.559
15233WAT     H145941   8.855   1.169   9.532
15233WAT     H245942   8.749   1.282   9.480
15234WAT      O45943   0.562   0.722   5.152
15234WAT     H145944   0.508   0.801   5.182
15234WAT     H245945   0.552   0.647   5.217
15235WAT      O45946   6.983   8.887   5.942
15235WAT     H145947   7.000   8.977   5.982
15235WAT     H245948   7.061   8.827   5.962
15236WAT      O45949   5.355   7.954   1.249
15236WAT     H145950   5.264   7.989   1.229
15236WAT     H245951   5.384   7.892   1.176
15237WAT      O45952   9.644   9.646   2.093
15237WAT     H145953   9.599   9.621   2.178
15237WAT     H245954   9.609   9.735   2.061
15238WAT      O45955   1.204   9.519   9.846
15238WAT     H145956   1.104   9.511   9.849
15238WAT     H245957   1.239   9.523   9.940
15239WAT      O45958   7.235   2.232   6.019
15239WAT     H145959   7.182   2.148   6.027
15239WAT     H245960   7.265   2.262   6.109
15240WAT      O45961   5.251   5.813   1.643
15240WAT     H145962   5.204   5.842   1.726
15240WAT     H245963   5.201   5.845   1.563
15241WAT      O45964   5.073   7.478   7.034
15241WAT     H145965   5.045   7.558   7.087
15241WAT     H245966   5.025   7.478   6.946
15242WAT      O45967   5.060   7.423   0.778
15242WAT     H145968   5.052   7.395   0.873
15242WAT     H245969   5.110   7.509   0.772
15243WAT      O45970   7.455   1.690   0.551
15243WAT     H145971   7.375   1.749   0.555
15243WAT     H245972   7.428   1.599   0.517
15244WAT      O45973   3.864   2.138   0.439
15244WAT     H145974   3.861   2.116   0.537
15244WAT     H245975   3.800   2.213   0.420
15245WAT      O45976   5.282   3.608   7.643
15245WAT     H145977   5.235   3.523   7.622
15245WAT     H245978   5.261   3.637   7.736
15246WAT      O45979   7.858   7.405   4.951
15246WAT     H145980   7.910   7.460   5.017
15246WAT     H245981   7.870   7.443   4.859
15247WAT      O45982   4.782   7.469   7.451
15247WAT     H145983   4.804   7.566   7.465
15247WAT     H245984   4.773   7.451   7.353
15248WAT      O45985   1.117   7.768   1.312
15248WAT     H145986   1.035   7.722   1.345
15248WAT     H245987   1.185   7.701   1.284
15249WAT      O45988   1.205   7.771   8.871
15249WAT     H145989   1.254   7.855   8.850
15249WAT     H245990   1.119   7.793   8.916
15250WAT      O45991   8.402   1.530   6.903
15250WAT     H145992   8.430   1.494   6.814
15250WAT     H245993   8.359   1.620   6.890
15251WAT      O45994   7.428   8.326   4.084
15251WAT     H145995   7.377   8.243   4.064
15251WAT     H245996   7.515   8.303   4.126
15252WAT      O45997   0.869   0.030   7.945
15252WAT     H145998   0.885   0.052   8.041
15252WAT     H245999   0.770   0.028   7.927
15253WAT      O46000   3.539   6.862   3.675
15253WAT     H146001   3.608   6.814   3.621
15253WAT     H246002   3.501   6.937   3.621
15254WAT      O46003   7.633   9.092   2.890
15254WAT     H146004   7.617   9.170   2.951
15254WAT     H246005   7.547   9.043   2.875
15255WAT      O46006   7.976   2.307   3.036
15255WAT     H146007   7.936   2.219   3.010
15255WAT     H246008   7.946   2.331   3.128
15256WAT      O46009   9.510   5.900   3.758
15256WAT     H146010   9.508   5.902   3.658
15256WAT     H246011   9.586   5.844   3.789
15257WAT      O46012   7.994   4.664   6.990
15257WAT     H146013   8.035   4.664   6.899
15257WAT     H246014   7.898   4.691   6.985
15258WAT      O46015   9.567   9.072   1.862
15258WAT     H146016   9.619   9.000   1.817
15258WAT     H246017   9.628   9.145   1.891
15259WAT      O46018   1.622   5.411   3.293
15259WAT     H146019   1.645   5.385   3.387
15259WAT     H246020   1.629   5.330   3.234
15260WAT      O46021   2.875   6.075   8.184
15260WAT     H146022   2.911   5.997   8.133
15260WAT     H246023   2.833   6.140   8.119
15261WAT      O46024   2.423   7.072   7.875
15261WAT     H146025   2.478   7.151   7.902
15261WAT     H246026   2.409   7.073   7.776
15262WAT      O46027   7.774   5.480   5.132
15262WAT     H146028   7.777   5.575   5.103
15262WAT     H246029   7.835   5.467   5.210
15263WAT      O46030   0.019   3.603   8.659
15263WAT     H146031  -0.016   3.645   8.575
15263WAT     H246032   0.059   3.514   8.637
15264WAT      O46033   8.361   2.079   8.742
15264WAT     H146034   8.441   2.099   8.685
15264WAT     H246035   8.388   2.018   8.816
15265WAT      O46036   9.749   7.282   9.794
15265WAT     H146037   9.754   7.377   9.825
15265WAT     H246038   9.799   7.224   9.858
15266WAT      O46039   3.824   9.369   2.657
15266WAT     H146040   3.824   9.446   2.720
15266WAT     H246041   3.736   9.362   2.611
15267WAT      O46042   8.217   1.076   6.145
15267WAT     H146043   8.128   1.035   6.125
15267WAT     H246044   8.204   1.158   6.201
15268WAT      O46045   1.765   2.357   2.556
15268WAT     H146046   1.784   2.454   2.544
15268WAT     H246047   1.755   2.336   2.654
15269WAT      O46048   0.640   2.005   4.010
15269WAT     H146049   0.673   1.921   3.965
15269WAT     H246050   0.584   2.057   3.945
15270WAT      O46051   7.859   0.329   3.800
15270WAT     H146052   7.808   0.260   3.748
15270WAT     H246053   7.813   0.417   3.793
15271WAT      O46054   9.666   1.530   2.846
15271WAT     H146055   9.628   1.559   2.758
15271WAT     H246056   9.617   1.448   2.878
15272WAT      O46057   2.110   2.411   9.142
15272WAT     H146058   2.161   2.424   9.227
15272WAT     H246059   2.174   2.397   9.067
15273WAT      O46060   0.899   7.693   1.628
15273WAT     H146061   0.995   7.670   1.612
15273WAT     H246062   0.848   7.682   1.542
15274WAT      O46063   5.034   7.741   3.769
15274WAT     H146064   4.975   7.694   3.834
15274WAT     H246065   5.072   7.823   3.811
15275WAT      O46066   2.445   4.979   0.688
15275WAT     H146067   2.466   4.951   0.594
15275WAT     H246068   2.423   4.898   0.742
15276WAT      O46069   8.422   3.015   2.956
15276WAT     H146070   8.441   2.923   2.921
15276WAT     H246071   8.501   3.048   3.008
15277WAT      O46072   7.874   3.879   2.949
15277WAT     H146073   7.929   3.953   2.988
15277WAT     H246074   7.934   3.808   2.913
15278WAT      O46075   0.389   5.483   5.729
15278WAT     H146076   0.397   5.532   5.642
15278WAT     H246077   0.445   5.528   5.798
15279WAT      O46078   4.917   0.940   5.387
15279WAT     H146079   5.009   0.903   5.388
15279WAT     H246080   4.851   0.867   5.410
15280WAT      O46081   4.040   1.300   3.518
15280WAT     H146082   3.977   1.339   3.586
15280WAT     H246083   4.022   1.202   3.509
15281WAT      O46084   1.139   3.115   6.148
15281WAT     H146085   1.130   3.042   6.081
15281WAT     H246086   1.230   3.113   6.189
15282WAT      O46087   6.735   7.249   9.033
15282WAT     H146088   6.741   7.237   8.934
15282WAT     H246089   6.766   7.342   9.057
15283WAT      O46090   7.299   1.161   8.658
15283WAT     H146091   7.300   1.188   8.561
15283WAT     H246092   7.289   1.243   8.714
15284WAT      O46093   0.620   5.097   2.430
15284WAT     H146094   0.630   5.116   2.528
15284WAT     H246095   0.709   5.070   2.392
15285WAT      O46096   4.100   8.910   9.868
15285WAT     H146097   4.018   8.948   9.910
15285WAT     H246098   4.181   8.954   9.908
15286WAT      O46099   8.659   1.650   2.152
15286WAT     H146100   8.560   1.663   2.159
15286WAT     H246101   8.683   1.624   2.058
15287WAT      O46102   5.945   8.123   4.046
15287WAT     H146103   6.041   8.152   4.051
15287WAT     H246104   5.905   8.155   3.961
15288WAT      O46105   7.128   7.327   3.411
15288WAT     H146106   7.190   7.293   3.482
15288WAT     H246107   7.181   7.346   3.328
15289WAT      O46108   9.840   7.483   8.798
15289WAT     H146109   9.924   7.462   8.848
15289WAT     H246110   9.788   7.553   8.848
15290WAT      O46111   8.566   7.296   7.617
15290WAT     H146112   8.498   7.322   7.685
15290WAT     H246113   8.528   7.223   7.559
15291WAT      O46114   7.919   0.551   9.320
15291WAT     H146115   7.842   0.531   9.380
15291WAT     H246116   7.936   0.473   9.259
15292WAT      O46117   1.398   6.029   2.225
15292WAT     H146118   1.397   5.962   2.300
15292WAT     H246119   1.488   6.071   2.219
15293WAT      O46120   7.287   7.376   0.547
15293WAT     H146121   7.292   7.421   0.636
15293WAT     H246122   7.361   7.309   0.539
15294WAT      O46123   5.238   3.078   9.102
15294WAT     H146124   5.225   3.002   9.166
15294WAT     H246125   5.335   3.084   9.078
15295WAT      O46126   4.790   7.288   5.658
15295WAT     H146127   4.875   7.246   5.624
15295WAT     H246128   4.713   7.257   5.602
15296WAT      O46129   5.503   2.283   3.076
15296WAT     H146130   5.425   2.342   3.056
15296WAT     H246131   5.493   2.197   3.026
15297WAT      O46132   0.026   3.368   0.522
15297WAT     H146133  -0.027   3.327   0.596
15297WAT     H246134   0.070   3.297   0.468
15298WAT      O46135   4.102   2.070   8.895
15298WAT     H146136   4.118   2.025   8.807
15298WAT     H246137   4.091   2.000   8.966
15299WAT      O46138   3.127   3.001   8.066
15299WAT     H146139   3.130   3.101   8.075
15299WAT     H246140   3.155   2.975   7.973
15300WAT      O46141   1.402   0.919   3.056
15300WAT     H146142   1.347   0.837   3.040
15300WAT     H246143   1.341   0.996   3.076
15301WAT      O46144   2.181   6.190   2.540
15301WAT     H146145   2.188   6.142   2.453
15301WAT     H246146   2.250   6.153   2.604
15302WAT      O46147   6.637   3.561   6.944
15302WAT     H146148   6.582   3.478   6.944
15302WAT     H246149   6.720   3.547   6.890
15303WAT      O46150   8.711   7.613   4.341
15303WAT     H146151   8.741   7.699   4.302
15303WAT     H246152   8.654   7.630   4.421
15304WAT      O46153   0.451   3.588   9.517
15304WAT     H146154   0.485   3.529   9.591
15304WAT     H246155   0.376   3.644   9.552
15305WAT      O46156   1.518   6.823   6.791
15305WAT     H146157   1.426   6.815   6.752
15305WAT     H246158   1.556   6.913   6.769
15306WAT      O46159   7.244   6.343   3.316
15306WAT     H146160   7.315   6.388   3.370
15306WAT     H246161   7.157   6.346   3.365
15307WAT      O46162   6.221   9.226   7.697
15307WAT     H146163   6.132   9.271   7.708
15307WAT     H246164   6.274   9.273   7.627
15308WAT      O46165   2.927   5.849   9.518
15308WAT     H146166   2.942   5.818   9.612
15308WAT     H246167   3.004   5.819   9.461
15309WAT      O46168   8.681   8.749   8.863
15309WAT     H146169   8.633   8.773   8.947
15309WAT     H246170   8.753   8.683   8.884
15310WAT      O46171   5.067   3.742   3.009
15310WAT     H146172   5.017   3.669   2.963
15310WAT     H246173   5.003   3.808   3.048
15311WAT      O46174   5.488   0.950   4.471
15311WAT     H146175   5.400   0.978   4.434
15311WAT     H246176   5.478   0.862   4.519
15312WAT      O46177   5.240   6.948   8.489
15312WAT     H146178   5.151   6.992   8.481
15312WAT     H246179   5.238   6.882   8.564
15313WAT      O46180   9.603   6.718   3.811
15313WAT     H146181   9.573   6.658   3.886
15313WAT     H246182   9.582   6.813   3.834
15314WAT      O46183   6.718   3.020   3.870
15314WAT     H146184   6.721   3.051   3.775
15314WAT     H246185   6.698   3.097   3.930
15315WAT      O46186   3.543   4.434   2.130
15315WAT     H146187   3.486   4.483   2.064
15315WAT     H246188   3.640   4.453   2.111
15316WAT      O46189   7.223   7.002   0.572
15316WAT     H146190   7.278   6.946   0.635
15316WAT     H246191   7.226   7.097   0.602
15317WAT      O46192   8.162   2.754   2.296
15317WAT     H146193   8.072   2.719   2.323
15317WAT     H246194   8.210   2.790   2.375
15318WAT      O46195   2.454   1.751   9.421
15318WAT     H146196   2.529   1.695   9.387
15318WAT     H246197   2.483   1.846   9.428
15319WAT      O46198   1.022   6.198   5.697
15319WAT     H146199   1.075   6.218   5.614
15319WAT     H246200   0.974   6.281   5.726
15320WAT      O46201   5.800   1.734   5.342
15320WAT     H146202   5.753   1.822   5.344
15320WAT     H246203   5.888   1.742   5.389
15321WAT      O46204   1.037   9.535   1.972
15321WAT     H146205   0.942   9.563   1.983
15321WAT     H246206   1.083   9.537   2.061
15322WAT      O46207   6.501   2.611   1.017
15322WAT     H146208   6.525   2.621   1.113
15322WAT     H246209   6.470   2.699   0.981
15323WAT      O46210   2.127   0.742   7.695
15323WAT     H146211   2.191   0.679   7.650
15323WAT     H246212   2.117   0.716   7.791
15324WAT      O46213   3.224   7.236   5.853
15324WAT     H146214   3.229   7.296   5.773
15324WAT     H246215   3.165   7.158   5.833
15325WAT      O46216   0.425   1.635   5.207
15325WAT     H146217   0.470   1.683   5.282
15325WAT     H246218   0.335   1.602   5.236
15326WAT      O46219   9.007   9.164   1.066
15326WAT     H146220   9.017   9.178   0.968
15326WAT     H246221   8.970   9.073   1.084
15327WAT      O46222   3.703   7.624   4.020
15327WAT     H146223   3.623   7.571   4.049
15327WAT     H246224   3.765   7.565   3.968
15328WAT      O46225   3.808   0.101   2.455
15328WAT     H146226   3.813   0.050   2.541
15328WAT     H246227   3.895   0.091   2.406
15329WAT      O46228   6.336   1.677   0.378
15329WAT     H146229   6.365   1.773   0.379
15329WAT     H246230   6.237   1.672   0.386
15330WAT      O46231   7.368   2.218   0.411
15330WAT     H146232   7.325   2.300   0.448
15330WAT     H246233   7.343   2.139   0.467
15331WAT      O46234   7.756   9.247   0.470
15331WAT     H146235   7.770   9.318   0.401
15331WAT     H246236   7.696   9.176   0.434
15332WAT      O46237   5.140   0.580   4.702
15332WAT     H146238   5.063   0.518   4.718
15332WAT     H246239   5.116   0.646   4.632
15333WAT      O46240   2.021   8.602   9.799
15333WAT     H146241   1.990   8.690   9.764
15333WAT     H246242   1.996   8.593   9.895
15334WAT      O46243   4.036   8.200   0.296
15334WAT     H146244   4.119   8.171   0.344
15334WAT     H246245   3.968   8.127   0.299
15335WAT      O46246   9.570   8.424   7.651
15335WAT     H146247   9.563   8.339   7.600
15335WAT     H246248   9.555   8.406   7.748
15336WAT      O46249   1.869   6.967   8.492
15336WAT     H146250   1.943   6.995   8.553
15336WAT     H246251   1.904   6.897   8.429
15337WAT      O46252   2.266   2.065   9.312
15337WAT     H146253   2.211   2.001   9.365
15337WAT     H246254   2.259   2.042   9.215
15338WAT      O46255   1.907   8.155   7.988
15338WAT     H146256   1.833   8.089   8.001
15338WAT     H246257   1.892   8.206   7.903
15339WAT      O46258   4.834   3.917   5.944
15339WAT     H146259   4.756   3.859   5.968
15339WAT     H246260   4.914   3.859   5.927
15340WAT      O46261   3.898   5.676   3.609
15340WAT     H146262   3.867   5.736   3.536
15340WAT     H246263   3.932   5.731   3.685
15341WAT      O46264   8.703   1.052   3.621
15341WAT     H146265   8.724   1.092   3.532
15341WAT     H246266   8.788   1.037   3.671
15342WAT      O46267   0.660   4.213   6.779
15342WAT     H146268   0.564   4.223   6.806
15342WAT     H246269   0.665   4.162   6.693
15343WAT      O46270   9.776   2.621   5.099
15343WAT     H146271   9.713   2.561   5.050
15343WAT     H246272   9.846   2.656   5.037
15344WAT      O46273   2.091   0.764   3.011
15344WAT     H146274   2.053   0.672   3.025
15344WAT     H246275   2.016   0.828   2.991
15345WAT      O46276   4.837   2.545   0.182
15345WAT     H146277   4.885   2.458   0.197
15345WAT     H246278   4.756   2.548   0.240
15346WAT      O46279   1.690   2.731   6.536
15346WAT     H146280   1.652   2.648   6.497
15346WAT     H246281   1.620   2.777   6.591
15347WAT      O46282   4.315   2.945   8.438
15347WAT     H146283   4.331   3.020   8.373
15347WAT     H246284   4.299   2.984   8.529
15348WAT      O46285   7.616   0.200   7.582
15348WAT     H146286   7.519   0.224   7.587
15348WAT     H246287   7.670   0.268   7.632
15349WAT      O46288   5.969   5.443   7.344
15349WAT     H146289   5.872   5.453   7.324
15349WAT     H246290   6.016   5.530   7.329
15350WAT      O46291   4.161   1.378   7.915
15350WAT     H146292   4.201   1.294   7.951
15350WAT     H246293   4.068   1.359   7.884
15351WAT      O46294   2.182   0.399   4.840
15351WAT     H146295   2.124   0.327   4.876
15351WAT     H246296   2.130   0.484   4.834
15352WAT      O46297   0.883   5.253   2.020
15352WAT     H146298   0.832   5.336   2.042
15352WAT     H246299   0.978   5.264   2.047
15353WAT      O46300   8.938   7.357   3.627
15353WAT     H146301   8.965   7.271   3.670
15353WAT     H246302   8.853   7.343   3.575
15354WAT      O46303   7.639   2.730   4.438
15354WAT     H146304   7.662   2.824   4.461
15354WAT     H246305   7.574   2.695   4.505
15355WAT      O46306   2.947   2.168   1.673
15355WAT     H146307   2.950   2.075   1.711
15355WAT     H246308   2.853   2.201   1.675
15356WAT      O46309   6.351   4.451   1.645
15356WAT     H146310   6.428   4.409   1.598
15356WAT     H246311   6.385   4.505   1.722
15357WAT      O46312   5.282   8.836   4.781
15357WAT     H146313   5.361   8.821   4.841
15357WAT     H246314   5.314   8.865   4.691
15358WAT      O46315   6.207   4.214   8.012
15358WAT     H146316   6.206   4.190   8.109
15358WAT     H246317   6.281   4.279   7.995
15359WAT      O46318   6.578   8.314   5.232
15359WAT     H146319   6.594   8.381   5.304
15359WAT     H246320   6.628   8.230   5.253
15360WAT      O46321   2.946   1.527   8.768
15360WAT     H146322   2.905   1.519   8.859
15360WAT     H246323   3.034   1.480   8.767
15361WAT      O46324   2.868   9.467   0.268
15361WAT     H146325   2.803   9.395   0.243
15361WAT     H246326   2.961   9.434   0.255
15362WAT      O46327   9.397   2.912   6.900
15362WAT     H146328   9.328   2.857   6.852
15362WAT     H246329   9.355   2.954   6.981
15363WAT      O46330   0.183   9.580   6.750
15363WAT     H146331   0.209   9.583   6.846
15363WAT     H246332   0.227   9.657   6.702
15364WAT      O46333   3.798   6.242   9.131
15364WAT     H146334   3.714   6.203   9.091
15364WAT     H246335   3.816   6.331   9.090
15365WAT      O46336   7.337   3.759   8.639
15365WAT     H146337   7.238   3.760   8.653
15365WAT     H246338   7.366   3.668   8.610
15366WAT      O46339   4.065   6.723   9.559
15366WAT     H146340   4.090   6.630   9.582
15366WAT     H246341   4.111   6.787   9.620
15367WAT      O46342   8.826   5.621   0.684
15367WAT     H146343   8.752   5.559   0.710
15367WAT     H246344   8.890   5.631   0.760
15368WAT      O46345   4.559   2.589   7.602
15368WAT     H146346   4.639   2.543   7.641
15368WAT     H246347   4.566   2.687   7.617
15369WAT      O46348   9.199   8.656   6.655
15369WAT     H146349   9.107   8.653   6.616
15369WAT     H246350   9.267   8.646   6.583
15370WAT      O46351   6.737   8.964   8.745
15370WAT     H146352   6.712   8.874   8.709
15370WAT     H246353   6.698   9.035   8.687
15371WAT      O46354   8.872   2.516   6.200
15371WAT     H146355   8.885   2.423   6.167
15371WAT     H246356   8.958   2.549   6.240
15372WAT      O46357   6.113   5.415   9.797
15372WAT     H146358   6.094   5.371   9.885
15372WAT     H246359   6.104   5.514   9.807
15373WAT      O46360   4.900   8.777   3.871
15373WAT     H146361   4.885   8.723   3.954
15373WAT     H246362   4.970   8.732   3.814
15374WAT      O46363   3.434   0.961   3.155
15374WAT     H146364   3.484   1.048   3.161
15374WAT     H246365   3.406   0.931   3.246
15375WAT      O46366   6.248   3.675   2.207
15375WAT     H146367   6.338   3.720   2.209
15375WAT     H246368   6.179   3.742   2.180
15376WAT      O46369   8.000   0.068   9.211
15376WAT     H146370   7.979   0.005   9.286
15376WAT     H246371   8.078   0.033   9.159
15377WAT      O46372   1.189   5.496   1.472
15377WAT     H146373   1.288   5.491   1.455
15377WAT     H246374   1.172   5.498   1.570
15378WAT      O46375   6.808   3.505   3.261
15378WAT     H146376   6.870   3.569   3.308
15378WAT     H246377   6.810   3.523   3.163
15379WAT      O46378   1.488   3.454   4.984
15379WAT     H146379   1.542   3.457   4.900
15379WAT     H246380   1.396   3.488   4.965
15380WAT      O46381   7.604   2.561   9.507
15380WAT     H146382   7.655   2.484   9.469
15380WAT     H246383   7.616   2.641   9.448
15381WAT      O46384   5.393   9.009   6.536
15381WAT     H146385   5.398   8.937   6.467
15381WAT     H246386   5.479   9.059   6.537
15382WAT      O46387   3.713   6.980   9.171
15382WAT     H146388   3.722   7.078   9.184
15382WAT     H246389   3.640   6.961   9.106
15383WAT      O46390   5.624   6.647   1.206
15383WAT     H146391   5.716   6.638   1.246
15383WAT     H246392   5.558   6.660   1.280
15384WAT      O46393   2.348   4.837   4.829
15384WAT     H146394   2.325   4.854   4.733
15384WAT     H246395   2.268   4.800   4.876
15385WAT      O46396   1.801   6.032   5.122
15385WAT     H146397   1.717   6.085   5.114
15385WAT     H246398   1.841   6.020   5.032
15386WAT      O46399   3.419   9.376   3.264
15386WAT     H146400   3.495   9.312   3.252
15386WAT     H246401   3.356   9.341   3.333
15387WAT      O46402   1.752   0.995   4.707
15387WAT     H146403   1.794   1.046   4.782
15387WAT     H246404   1.655   1.017   4.701
15388WAT      O46405   4.626   8.607   2.049
15388WAT     H146406   4.582   8.522   2.078
15388WAT     H246407   4.559   8.667   2.006
15389WAT      O46408   2.221   1.838   0.043
15389WAT     H146409   2.156   1.910   0.066
15389WAT     H246410   2.172   1.752   0.029
15390WAT      O46411   7.552   5.047   8.656
15390WAT     H146412   7.631   5.062   8.597
15390WAT     H246413   7.468   5.063   8.604
15391WAT      O46414   9.734   5.228   0.467
15391WAT     H146415   9.759   5.322   0.489
15391WAT     H246416   9.791   5.194   0.393
15392WAT      O46417   3.460   7.757   7.587
15392WAT     H146418   3.477   7.659   7.579
15392WAT     H246419   3.473   7.786   7.681
15393WAT      O46420   1.313   9.187   6.584
15393WAT     H146421   1.325   9.286   6.573
15393WAT     H246422   1.224   9.168   6.625
15394WAT      O46423   6.236   3.607   7.318
15394WAT     H146424   6.326   3.614   7.275
15394WAT     H246425   6.168   3.656   7.263
15395WAT      O46426   2.744   6.212   7.104
15395WAT     H146427   2.796   6.284   7.149
15395WAT     H246428   2.677   6.253   7.043
15396WAT      O46429   1.430   8.722   7.363
15396WAT     H146430   1.443   8.791   7.291
15396WAT     H246431   1.336   8.727   7.397
15397WAT      O46432   9.885   4.722   0.141
15397WAT     H146433   9.871   4.664   0.220
15397WAT     H246434   9.814   4.792   0.137
15398WAT      O46435   2.701   6.667   4.916
15398WAT     H146436   2.601   6.674   4.921
15398WAT     H246437   2.729   6.575   4.942
15399WAT      O46438   4.838   0.369   4.980
15399WAT     H146439   4.798   0.315   4.906
15399WAT     H246440   4.766   0.425   5.023
15400WAT      O46441   2.335   0.877   1.083
15400WAT     H146442   2.279   0.956   1.057
15400WAT     H246443   2.306   0.797   1.030
15401WAT      O46444   7.962   3.903   2.612
15401WAT     H146445   7.893   3.972   2.590
15401WAT     H246446   7.959   3.829   2.544
15402WAT      O46447   4.458   5.579   8.311
15402WAT     H146448   4.513   5.663   8.317
15402WAT     H246449   4.508   5.503   8.351
15403WAT      O46450   0.157   0.154   5.050
15403WAT     H146451   0.142   0.124   5.144
15403WAT     H246452   0.161   0.254   5.047
15404WAT      O46453   6.788   0.131   6.657
15404WAT     H146454   6.848   0.052   6.669
15404WAT     H246455   6.837   0.202   6.606
15405WAT      O46456   6.875   3.131   8.786
15405WAT     H146457   6.960   3.101   8.741
15405WAT     H246458   6.893   3.144   8.883
15406WAT      O46459   1.209   8.063   0.943
15406WAT     H146460   1.218   8.043   0.846
15406WAT     H246461   1.297   8.047   0.989
15407WAT      O46462   8.659   6.196   0.421
15407WAT     H146463   8.622   6.287   0.443
15407WAT     H246464   8.587   6.128   0.433
15408WAT      O46465   9.510   1.108   5.297
15408WAT     H146466   9.578   1.161   5.245
15408WAT     H246467   9.452   1.058   5.233
15409WAT      O46468   5.039   5.819   2.102
15409WAT     H146469   5.107   5.814   2.175
15409WAT     H246470   4.959   5.764   2.127
15410WAT      O46471   6.777   3.559   8.025
15410WAT     H146472   6.876   3.568   8.040
15410WAT     H246473   6.735   3.650   8.023
15411WAT      O46474   8.582   6.831   0.676
15411WAT     H146475   8.486   6.826   0.702
15411WAT     H246476   8.628   6.901   0.730
15412WAT      O46477   1.428   1.671   4.442
15412WAT     H146478   1.347   1.658   4.500
15412WAT     H246479   1.412   1.748   4.380
15413WAT      O46480   8.304   7.815   2.177
15413WAT     H146481   8.265   7.897   2.219
15413WAT     H246482   8.398   7.835   2.148
15414WAT      O46483   1.259   8.382   6.756
15414WAT     H146484   1.239   8.366   6.852
15414WAT     H246485   1.176   8.368   6.701
15415WAT      O46486   6.705   7.186   7.308
15415WAT     H146487   6.684   7.090   7.292
15415WAT     H246488   6.762   7.195   7.390
15416WAT      O46489   0.180   5.893   2.765
15416WAT     H146490   0.179   5.984   2.806
15416WAT     H246491   0.130   5.894   2.679
15417WAT      O46492   7.338   3.703   4.505
15417WAT     H146493   7.339   3.797   4.539
15417WAT     H246494   7.429   3.664   4.510
15418WAT      O46495   4.864   0.881   9.772
15418WAT     H146496   4.866   0.883   9.672
15418WAT     H246497   4.848   0.973   9.807
15419WAT      O46498   1.773   2.103   2.815
15419WAT     H146499   1.786   2.202   2.824
15419WAT     H246500   1.862   2.059   2.805
15420WAT      O46501   6.413   6.970   7.518
15420WAT     H146502   6.444   6.876   7.515
15420WAT     H246503   6.487   7.029   7.550
15421WAT      O46504   4.647   1.580   4.801
15421WAT     H146505   4.734   1.531   4.808
15421WAT     H246506   4.640   1.624   4.711
15422WAT      O46507   4.161   7.633   8.454
15422WAT     H146508   4.093   7.651   8.525
15422WAT     H246509   4.119   7.578   8.381
15423WAT      O46510   9.561   9.569   5.221
15423WAT     H146511   9.513   9.657   5.228
15423WAT     H246512   9.553   9.520   5.308
15424WAT      O46513   7.017   7.559   1.935
15424WAT     H146514   7.033   7.657   1.944
15424WAT     H246515   7.057   7.511   2.013
15425WAT      O46516   0.433   0.599   2.128
15425WAT     H146517   0.516   0.643   2.161
15425WAT     H246518   0.408   0.523   2.188
15426WAT      O46519   3.427   7.554   5.949
15426WAT     H146520   3.431   7.556   5.849
15426WAT     H246521   3.449   7.462   5.981
15427WAT      O46522   1.530   5.062   2.550
15427WAT     H146523   1.452   5.039   2.609
15427WAT     H246524   1.609   5.006   2.576
15428WAT      O46525   3.541   6.711   0.328
15428WAT     H146526   3.463   6.768   0.301
15428WAT     H246527   3.622   6.738   0.275
15429WAT      O46528   4.877   9.732   2.976
15429WAT     H146529   4.956   9.673   2.990
15429WAT     H246530   4.795   9.677   2.961
15430WAT      O46531   7.077   1.226   0.440
15430WAT     H146532   7.134   1.183   0.370
15430WAT     H246533   6.999   1.270   0.396
15431WAT      O46534   8.686   6.150   1.013
15431WAT     H146535   8.653   6.170   0.921
15431WAT     H246536   8.669   6.054   1.035
15432WAT      O46537   9.797   8.058   9.446
15432WAT     H146538   9.850   7.978   9.418
15432WAT     H246539   9.806   8.130   9.376
15433WAT      O46540   5.022   5.172   9.628
15433WAT     H146541   4.968   5.236   9.574
15433WAT     H246542   5.113   5.210   9.645
15434WAT      O46543   0.809   1.883   9.067
15434WAT     H146544   0.710   1.877   9.069
15434WAT     H246545   0.837   1.952   9.000
15435WAT      O46546   2.643   8.379   4.555
15435WAT     H146547   2.569   8.334   4.506
15435WAT     H246548   2.730   8.333   4.533
15436WAT      O46549   7.152   7.094   1.141
15436WAT     H146550   7.123   7.093   1.236
15436WAT     H246551   7.117   7.176   1.096
15437WAT      O46552   4.174   8.413   3.840
15437WAT     H146553   4.160   8.420   3.939
15437WAT     H246554   4.175   8.505   3.800
15438WAT      O46555   2.768   3.806   7.597
15438WAT     H146556   2.816   3.892   7.615
15438WAT     H246557   2.704   3.818   7.522
15439WAT      O46558   3.211   4.734   2.419
15439WAT     H146559   3.303   4.772   2.428
15439WAT     H246560   3.153   4.768   2.493
15440WAT      O46561   2.161   9.174   9.498
15440WAT     H146562   2.061   9.173   9.494
15440WAT     H246563   2.192   9.091   9.545
15441WAT      O46564   6.060   2.389   0.738
15441WAT     H146565   6.102   2.398   0.648
15441WAT     H246566   6.089   2.465   0.796
15442WAT      O46567   6.933   1.300   3.800
15442WAT     H146568   6.854   1.305   3.739
15442WAT     H246569   6.907   1.253   3.884
15443WAT      O46570   0.020   8.623   9.778
15443WAT     H146571  -0.011   8.570   9.857
15443WAT     H246572   0.104   8.672   9.801
15444WAT      O46573   6.641   0.091   6.899
15444WAT     H146574   6.704   0.120   6.827
15444WAT     H246575   6.560   0.150   6.900
15445WAT      O46576   0.837   2.394   3.976
15445WAT     H146577   0.862   2.468   4.039
15445WAT     H246578   0.865   2.307   4.016
15446WAT      O46579   7.594   1.186   5.769
15446WAT     H146580   7.591   1.169   5.670
15446WAT     H246581   7.541   1.268   5.791
15447WAT      O46582   9.027   9.557   9.335
15447WAT     H146583   9.048   9.538   9.239
15447WAT     H246584   9.098   9.517   9.393
15448WAT      O46585   6.055   6.831   8.034
15448WAT     H146586   6.148   6.860   8.054
15448WAT     H246587   6.044   6.734   8.055
15449WAT      O46588   1.205   3.251   1.070
15449WAT     H146589   1.146   3.287   1.142
15449WAT     H246590   1.272   3.188   1.109
15450WAT      O46591   2.403   4.834   3.083
15450WAT     H146592   2.360   4.773   3.017
15450WAT     H246593   2.501   4.813   3.089
15451WAT      O46594   0.537   3.394   5.160
15451WAT     H146595   0.483   3.446   5.227
15451WAT     H246596   0.632   3.423   5.165
15452WAT      O46597   3.079   3.576   9.567
15452WAT     H146598   3.097   3.556   9.471
15452WAT     H246599   3.156   3.545   9.623
15453WAT      O46600   4.552   6.621   2.553
15453WAT     H146601   4.579   6.684   2.480
15453WAT     H246602   4.462   6.648   2.587
15454WAT      O46603   9.067   6.574   1.980
15454WAT     H146604   9.079   6.673   1.985
15454WAT     H246605   8.976   6.555   1.943
15455WAT      O46606   0.595   6.982   8.210
15455WAT     H146607   0.585   6.994   8.309
15455WAT     H246608   0.651   7.055   8.173
15456WAT      O46609   4.763   5.757   2.097
15456WAT     H146610   4.748   5.667   2.138
15456WAT     H246611   4.731   5.757   2.002
15457WAT      O46612   5.284   3.473   5.493
15457WAT     H146613   5.250   3.379   5.494
15457WAT     H246614   5.209   3.536   5.510
15458WAT      O46615   6.843   6.853   3.741
15458WAT     H146616   6.828   6.786   3.813
15458WAT     H246617   6.912   6.820   3.677
15459WAT      O46618   8.774   1.896   7.269
15459WAT     H146619   8.816   1.940   7.190
15459WAT     H246620   8.844   1.859   7.329
15460WAT      O46621   2.493   1.337   0.589
15460WAT     H146622   2.523   1.418   0.538
15460WAT     H246623   2.467   1.265   0.524
15461WAT      O46624   1.033   8.850   9.123
15461WAT     H146625   1.047   8.949   9.116
15461WAT     H246626   0.962   8.831   9.192
15462WAT      O46627   9.243   7.398   5.300
15462WAT     H146628   9.226   7.334   5.376
15462WAT     H246629   9.269   7.347   5.218
15463WAT      O46630   3.773   9.202   1.530
15463WAT     H146631   3.683   9.195   1.486
15463WAT     H246632   3.797   9.114   1.572
15464WAT      O46633   5.740   8.995   1.955
15464WAT     H146634   5.687   8.988   1.870
15464WAT     H246635   5.678   8.995   2.033
15465WAT      O46636   7.480   2.834   2.240
15465WAT     H146637   7.505   2.738   2.228
15465WAT     H246638   7.559   2.892   2.221
15466WAT      O46639   1.616   0.351   6.230
15466WAT     H146640   1.579   0.425   6.175
15466WAT     H246641   1.627   0.382   6.325
15467WAT      O46642   3.285   3.504   7.348
15467WAT     H146643   3.218   3.514   7.274
15467WAT     H246644   3.364   3.452   7.315
15468WAT      O46645   8.445   7.976   2.434
15468WAT     H146646   8.386   8.019   2.365
15468WAT     H246647   8.394   7.906   2.483
15469WAT      O46648   1.177   0.253   1.136
15469WAT     H146649   1.078   0.250   1.146
15469WAT     H246650   1.217   0.304   1.211
15470WAT      O46651   7.914   7.400   1.531
15470WAT     H146652   7.937   7.336   1.458
15470WAT     H246653   7.976   7.388   1.607
15471WAT      O46654   9.402   6.286   3.606
15471WAT     H146655   9.370   6.249   3.519
15471WAT     H246656   9.485   6.237   3.634
15472WAT      O46657   9.549   4.555   5.479
15472WAT     H146658   9.515   4.604   5.559
15472WAT     H246659   9.478   4.549   5.410
15473WAT      O46660   1.773   2.603   4.620
15473WAT     H146661   1.696   2.637   4.673
15473WAT     H246662   1.753   2.613   4.522
15474WAT      O46663   3.155   0.868   9.548
15474WAT     H146664   3.198   0.778   9.558
15474WAT     H246665   3.129   0.882   9.452
15475WAT      O46666   7.019   5.749   6.380
15475WAT     H146667   6.946   5.771   6.315
15475WAT     H246668   7.041   5.830   6.434
15476WAT      O46669   5.550   4.969   6.202
15476WAT     H146670   5.455   4.992   6.223
15476WAT     H246671   5.593   4.926   6.281
15477WAT      O46672   8.318   8.073   4.027
15477WAT     H146673   8.383   8.130   3.975
15477WAT     H246674   8.277   8.128   4.100
15478WAT      O46675   5.358   5.185   3.378
15478WAT     H146676   5.371   5.284   3.381
15478WAT     H246677   5.356   5.150   3.472
15479WAT      O46678   2.094   2.095   9.663
15479WAT     H146679   2.031   2.048   9.600
15479WAT     H246680   2.072   2.192   9.664
15480WAT      O46681   9.527   5.969   0.688
15480WAT     H146682   9.431   5.996   0.696
15480WAT     H246683   9.545   5.943   0.593
15481WAT      O46684   6.917   4.855   2.319
15481WAT     H146685   6.878   4.908   2.244
15481WAT     H246686   7.016   4.870   2.323
15482WAT      O46687   5.647   4.411   7.291
15482WAT     H146688   5.665   4.396   7.388
15482WAT     H246689   5.702   4.487   7.257
15483WAT      O46690   3.692   8.460   0.866
15483WAT     H146691   3.773   8.482   0.811
15483WAT     H246692   3.612   8.506   0.826
15484WAT      O46693   1.705   1.523   2.335
15484WAT     H146694   1.708   1.622   2.325
15484WAT     H246695   1.763   1.495   2.411
15485WAT      O46696   0.162   7.155   4.908
15485WAT     H146697   0.157   7.079   4.844
15485WAT     H246698   0.076   7.207   4.906
15486WAT      O46699   5.205   3.387   4.894
15486WAT     H146700   5.194   3.291   4.867
15486WAT     H246701   5.302   3.411   4.893
15487WAT      O46702   9.383   6.614   8.459
15487WAT     H146703   9.312   6.544   8.449
15487WAT     H246704   9.473   6.572   8.449
15488WAT      O46705   8.123   0.638   2.876
15488WAT     H146706   8.046   0.582   2.844
15488WAT     H246707   8.208   0.589   2.861
15489WAT      O46708   8.360   6.249   3.378
15489WAT     H146709   8.336   6.345   3.388
15489WAT     H246710   8.405   6.217   3.462
15490WAT      O46711   8.213   6.363   7.301
15490WAT     H146712   8.231   6.323   7.211
15490WAT     H246713   8.163   6.297   7.357
15491WAT      O46714   6.366   0.058   7.600
15491WAT     H146715   6.418   0.026   7.521
15491WAT     H246716   6.417   0.131   7.646
15492WAT      O46717   6.019   3.583   4.770
15492WAT     H146718   6.042   3.614   4.678
15492WAT     H246719   6.097   3.534   4.809
15493WAT      O46720   7.722   9.628   1.209
15493WAT     H146721   7.810   9.669   1.235
15493WAT     H246722   7.653   9.651   1.277
15494WAT      O46723   3.463   2.140   0.502
15494WAT     H146724   3.460   2.181   0.593
15494WAT     H246725   3.523   2.060   0.504
15495WAT      O46726   0.068   8.028   3.459
15495WAT     H146727   0.046   8.104   3.521
15495WAT     H246728  -0.016   7.977   3.437
15496WAT      O46729   0.657   5.652   4.664
15496WAT     H146730   0.713   5.705   4.728
15496WAT     H246731   0.613   5.715   4.600
15497WAT      O46732   1.560   5.592   9.174
15497WAT     H146733   1.576   5.526   9.100
15497WAT     H246734   1.609   5.677   9.154
15498WAT      O46735   5.372   8.766   6.357
15498WAT     H146736   5.413   8.683   6.395
15498WAT     H246737   5.276   8.750   6.336
15499WAT      O46738   7.914   0.986   1.136
15499WAT     H146739   7.913   0.914   1.067
15499WAT     H246740   7.830   1.039   1.131
15500WAT      O46741   2.283   6.989   3.059
15500WAT     H146742   2.361   7.033   3.015
15500WAT     H246743   2.316   6.930   3.133
15501WAT      O46744   1.465   3.597   4.669
15501WAT     H146745   1.522   3.641   4.738
15501WAT     H246746   1.492   3.501   4.659
15502WAT      O46747   8.339   3.196   2.770
15502WAT     H146748   8.343   3.124   2.839
15502WAT     H246749   8.432   3.227   2.748
15503WAT      O46750   8.752   3.877   7.437
15503WAT     H146751   8.746   3.926   7.350
15503WAT     H246752   8.847   3.846   7.451
15504WAT      O46753   6.725   8.379   9.609
15504WAT     H146754   6.677   8.311   9.553
15504WAT     H246755   6.688   8.379   9.701
15505WAT      O46756   1.498   6.208   0.173
15505WAT     H146757   1.582   6.235   0.220
15505WAT     H246758   1.489   6.260   0.088
15506WAT      O46759   6.500   7.455   9.195
15506WAT     H146760   6.535   7.548   9.214
15506WAT     H246761   6.461   7.418   9.279
15507WAT      O46762   3.004   4.468   4.494
15507WAT     H146763   3.064   4.388   4.501
15507WAT     H246764   3.056   4.545   4.459
15508WAT      O46765   0.263   9.060   1.742
15508WAT     H146766   0.223   9.012   1.820
15508WAT     H246767   0.312   9.141   1.774
15509WAT      O46768   8.330   3.973   9.341
15509WAT     H146769   8.293   4.065   9.325
15509WAT     H246770   8.286   3.909   9.278
15510WAT      O46771   2.125   7.090   8.040
15510WAT     H146772   2.038   7.087   7.991
15510WAT     H246773   2.200   7.064   7.978
15511WAT      O46774   3.656   2.555   8.265
15511WAT     H146775   3.719   2.632   8.265
15511WAT     H246776   3.643   2.522   8.172
15512WAT      O46777   4.325   8.068   2.989
15512WAT     H146778   4.323   7.981   2.939
15512WAT     H246779   4.378   8.135   2.938
15513WAT      O46780   0.635   8.185   1.942
15513WAT     H146781   0.552   8.241   1.955
15513WAT     H246782   0.700   8.205   2.015
15514WAT      O46783   0.755   0.545   3.160
15514WAT     H146784   0.663   0.586   3.159
15514WAT     H246785   0.763   0.478   3.086
15515WAT      O46786   1.031   9.203   8.542
15515WAT     H146787   0.955   9.267   8.530
15515WAT     H246788   1.072   9.182   8.453
15516WAT      O46789   9.192   6.366   2.111
15516WAT     H146790   9.119   6.330   2.169
15516WAT     H246791   9.155   6.439   2.053
15517WAT      O46792   2.857   7.999   8.558
15517WAT     H146793   2.918   7.951   8.621
15517WAT     H246794   2.774   8.026   8.607
15518WAT      O46795   4.334   1.935   9.758
15518WAT     H146796   4.301   1.887   9.676
15518WAT     H246797   4.403   1.878   9.803
15519WAT      O46798   7.655   6.198   9.785
15519WAT     H146799   7.686   6.292   9.803
15519WAT     H246800   7.646   6.184   9.687
15520WAT      O46801   0.685   6.075   8.838
15520WAT     H146802   0.747   6.152   8.824
15520WAT     H246803   0.732   6.002   8.888
15521WAT      O46804   8.722   0.686   6.276
15521WAT     H146805   8.636   0.731   6.302
15521WAT     H246806   8.718   0.660   6.179
15522WAT      O46807   9.697   2.209   0.847
15522WAT     H146808   9.759   2.276   0.807
15522WAT     H246809   9.695   2.221   0.946
15523WAT      O46810   5.198   4.471   0.235
15523WAT     H146811   5.168   4.379   0.207
15523WAT     H246812   5.276   4.499   0.179
15524WAT      O46813   8.290   4.612   0.989
15524WAT     H146814   8.264   4.600   0.893
15524WAT     H246815   8.351   4.691   0.998
15525WAT      O46816   6.606   4.717   0.060
15525WAT     H146817   6.533   4.782   0.038
15525WAT     H246818   6.610   4.646  -0.009
15526WAT      O46819   2.149   6.427   3.759
15526WAT     H146820   2.173   6.350   3.700
15526WAT     H246821   2.063   6.408   3.805
15527WAT      O46822   4.573   7.541   2.748
15527WAT     H146823   4.653   7.481   2.742
15527WAT     H246824   4.548   7.554   2.844
15528WAT      O46825   3.796   2.617   1.530
15528WAT     H146826   3.789   2.634   1.628
15528WAT     H246827   3.856   2.685   1.489
15529WAT      O46828   3.365   5.698   4.093
15529WAT     H146829   3.408   5.740   4.014
15529WAT     H246830   3.331   5.607   4.068
15530WAT      O46831   5.053   0.149   5.814
15530WAT     H146832   5.011   0.206   5.744
15530WAT     H246833   5.014   0.170   5.903
15531WAT      O46834   6.077   6.726   2.374
15531WAT     H146835   5.990   6.682   2.351
15531WAT     H246836   6.132   6.737   2.291
15532WAT      O46837   6.858   7.689   6.904
15532WAT     H146838   6.764   7.660   6.924
15532WAT     H246839   6.869   7.785   6.931
15533WAT      O46840   1.015   1.107   6.519
15533WAT     H146841   1.059   1.018   6.506
15533WAT     H246842   0.958   1.128   6.439
15534WAT      O46843   5.041   0.907   9.529
15534WAT     H146844   5.034   0.808   9.532
15534WAT     H246845   5.011   0.940   9.439
15535WAT      O46846   9.376   1.431   3.333
15535WAT     H146847   9.440   1.493   3.377
15535WAT     H246848   9.359   1.461   3.239
15536WAT      O46849   2.182   6.685   8.179
15536WAT     H146850   2.243   6.742   8.124
15536WAT     H246851   2.175   6.594   8.137
15537WAT      O46852   4.129   2.614   6.419
15537WAT     H146853   4.212   2.665   6.442
15537WAT     H246854   4.110   2.625   6.321
15538WAT      O46855   7.445   2.306   3.849
15538WAT     H146856   7.420   2.238   3.918
15538WAT     H246857   7.373   2.375   3.842
15539WAT      O46858   7.853   1.793   7.848
15539WAT     H146859   7.925   1.723   7.841
15539WAT     H246860   7.877   1.871   7.791
15540WAT      O46861   7.397   1.694   7.574
15540WAT     H146862   7.425   1.617   7.631
15540WAT     H246863   7.302   1.718   7.594
15541WAT      O46864   2.564   0.624   0.541
15541WAT     H146865   2.534   0.528   0.533
15541WAT     H246866   2.657   0.633   0.506
15542WAT      O46867   9.577   2.690   7.142
15542WAT     H146868   9.514   2.630   7.093
15542WAT     H246869   9.526   2.748   7.205
15543WAT      O46870   3.302   6.889   6.231
15543WAT     H146871   3.287   6.793   6.208
15543WAT     H246872   3.216   6.939   6.219
15544WAT      O46873   1.713   8.061   8.403
15544WAT     H146874   1.680   8.014   8.321
15544WAT     H246875   1.801   8.105   8.384
15545WAT      O46876   0.429   0.860   9.437
15545WAT     H146877   0.513   0.808   9.453
15545WAT     H246878   0.444   0.924   9.361
15546WAT      O46879   8.093   8.923   1.386
15546WAT     H146880   8.029   8.987   1.429
15546WAT     H246881   8.148   8.879   1.456
15547WAT      O46882   4.048   7.329   7.863
15547WAT     H146883   4.118   7.387   7.822
15547WAT     H246884   3.985   7.385   7.916
15548WAT      O46885   7.920   9.756   5.087
15548WAT     H146886   7.868   9.836   5.060
15548WAT     H246887   7.868   9.702   5.153
15549WAT      O46888   1.239   0.494   1.757
15549WAT     H146889   1.302   0.455   1.824
15549WAT     H246890   1.264   0.590   1.740
15550WAT      O46891   8.495   8.624   2.002
15550WAT     H146892   8.479   8.535   2.044
15550WAT     H246893   8.594   8.640   1.995
15551WAT      O46894   8.117   3.291   2.881
15551WAT     H146895   8.037   3.261   2.829
15551WAT     H246896   8.200   3.254   2.840
15552WAT      O46897   4.204   9.293   5.192
15552WAT     H146898   4.131   9.258   5.250
15552WAT     H246899   4.222   9.388   5.217
15553WAT      O46900   8.182   2.206   1.139
15553WAT     H146901   8.169   2.156   1.054
15553WAT     H246902   8.163   2.145   1.217
15554WAT      O46903   6.222   3.421   4.838
15554WAT     H146904   6.218   3.410   4.739
15554WAT     H246905   6.316   3.440   4.866
15555WAT      O46906   7.978   1.824   3.815
15555WAT     H146907   7.913   1.825   3.739
15555WAT     H246908   8.065   1.786   3.784
15556WAT      O46909   6.993   5.958   7.325
15556WAT     H146910   7.067   5.971   7.258
15556WAT     H246911   6.913   5.918   7.279
15557WAT      O46912   1.040   5.139   6.497
15557WAT     H146913   0.967   5.197   6.533
15557WAT     H246914   1.046   5.151   6.398
15558WAT      O46915   7.239   4.102   1.401
15558WAT     H146916   7.170   4.118   1.472
15558WAT     H246917   7.240   4.179   1.337
15559WAT      O46918   0.004   2.096   4.828
15559WAT     H146919  -0.068   2.093   4.898
15559WAT     H246920   0.052   2.183   4.834
15560WAT      O46921   7.005   7.012   8.678
15560WAT     H146922   6.975   6.985   8.586
15560WAT     H246923   7.092   7.060   8.671
15561WAT      O46924   8.041   8.940   0.492
15561WAT     H146925   8.079   8.901   0.576
15561WAT     H246926   7.984   8.871   0.446
15562WAT      O46927   4.796   1.956   0.522
15562WAT     H146928   4.727   2.014   0.566
15562WAT     H246929   4.849   1.909   0.593
15563WAT      O46930   3.385   7.858   1.788
15563WAT     H146931   3.358   7.942   1.836
15563WAT     H246932   3.303   7.814   1.750
15564WAT      O46933   6.056   9.274   8.891
15564WAT     H146934   6.011   9.304   8.808
15564WAT     H246935   6.154   9.292   8.885
15565WAT      O46936   3.817   7.782   3.602
15565WAT     H146937   3.856   7.694   3.575
15565WAT     H246938   3.768   7.772   3.688
15566WAT      O46939   3.477   7.100   8.015
15566WAT     H146940   3.455   7.072   8.109
15566WAT     H246941   3.415   7.173   7.987
15567WAT      O46942   5.726   2.814   6.042
15567WAT     H146943   5.657   2.776   6.103
15567WAT     H246944   5.682   2.846   5.958
15568WAT      O46945   1.404   5.040   9.472
15568WAT     H146946   1.334   5.109   9.488
15568WAT     H246947   1.472   5.044   9.546
15569WAT      O46948   8.198   8.130   8.441
15569WAT     H146949   8.231   8.168   8.527
15569WAT     H246950   8.119   8.072   8.459
15570WAT      O46951   0.371   2.903   1.240
15570WAT     H146952   0.392   2.824   1.182
15570WAT     H246953   0.441   2.973   1.227
15571WAT      O46954   0.273   8.074   0.043
15571WAT     H146955   0.296   8.017   0.122
15571WAT     H246956   0.321   8.040  -0.038
15572WAT      O46957   9.572   7.632   1.597
15572WAT     H146958   9.476   7.651   1.615
15572WAT     H246959   9.611   7.580   1.672
15573WAT      O46960   3.401   8.433   6.258
15573WAT     H146961   3.478   8.482   6.218
15573WAT     H246962   3.376   8.356   6.198
15574WAT      O46963   9.780   3.979   3.473
15574WAT     H146964   9.842   3.902   3.487
15574WAT     H246965   9.821   4.043   3.409
15575WAT      O46966   7.555   8.010   0.807
15575WAT     H146967   7.561   7.945   0.731
15575WAT     H246968   7.646   8.025   0.845
15576WAT      O46969   5.974   9.348   2.088
15576WAT     H146970   5.881   9.350   2.050
15576WAT     H246971   6.011   9.256   2.079
15577WAT      O46972   5.701   3.163   7.905
15577WAT     H146973   5.778   3.159   7.969
15577WAT     H246974   5.684   3.258   7.879
15578WAT      O46975   4.887   9.275   0.339
15578WAT     H146976   4.799   9.323   0.346
15578WAT     H246977   4.916   9.273   0.243
15579WAT      O46978   2.417   6.711   4.221
15579WAT     H146979   2.337   6.653   4.210
15579WAT     H246980   2.395   6.805   4.193
15580WAT      O46981   5.587   5.336   4.161
15580WAT     H146982   5.558   5.339   4.257
15580WAT     H246983   5.648   5.413   4.142
15581WAT      O46984   8.426   4.551   5.731
15581WAT     H146985   8.466   4.463   5.754
15581WAT     H246986   8.391   4.549   5.637
15582WAT      O46987   5.252   9.790   9.119
15582WAT     H146988   5.326   9.726   9.139
15582WAT     H246989   5.211   9.822   9.204
15583WAT      O46990   4.255   1.328   3.667
15583WAT     H146991   4.195   1.324   3.588
15583WAT     H246992   4.344   1.366   3.641
15584WAT      O46993   5.240   3.224   3.455
15584WAT     H146994   5.281   3.213   3.364
15584WAT     H246995   5.305   3.192   3.524
15585WAT      O46996   8.782   4.055   4.667
15585WAT     H146997   8.718   4.005   4.726
15585WAT     H246998   8.779   4.152   4.689
15586WAT      O46999   4.513   5.345   5.761
15586WAT     H147000   4.568   5.303   5.689
15586WAT     H247001   4.449   5.410   5.721
15587WAT      O47002   7.774   7.118   2.407
15587WAT     H147003   7.815   7.197   2.452
15587WAT     H247004   7.756   7.047   2.475
15588WAT      O47005   7.032   8.658   8.001
15588WAT     H147006   7.021   8.634   8.097
15588WAT     H247007   7.085   8.742   7.993
15589WAT      O47008   9.780   7.005   9.700
15589WAT     H147009   9.853   6.978   9.637
15589WAT     H247010   9.816   7.070   9.767
15590WAT      O47011   3.445   2.414   1.113
15590WAT     H147012   3.434   2.493   1.173
15590WAT     H247013   3.539   2.412   1.077
15591WAT      O47014   9.074   2.389   7.190
15591WAT     H147015   9.115   2.399   7.099
15591WAT     H247016   8.990   2.443   7.195
15592WAT      O47017   8.222   8.887   5.538
15592WAT     H147018   8.137   8.840   5.564
15592WAT     H247019   8.208   8.986   5.541
15593WAT      O47020   9.148   2.394   7.936
15593WAT     H147021   9.230   2.386   7.991
15593WAT     H247022   9.103   2.481   7.955
15594WAT      O47023   5.909   2.878   5.308
15594WAT     H147024   5.954   2.957   5.348
15594WAT     H247025   5.842   2.841   5.372
15595WAT      O47026   3.772   0.426   5.657
15595WAT     H147027   3.688   0.378   5.631
15595WAT     H247028   3.841   0.413   5.586
15596WAT      O47029   9.370   1.324   6.221
15596WAT     H147030   9.397   1.231   6.196
15596WAT     H247031   9.447   1.371   6.264
15597WAT      O47032   5.683   1.450   7.304
15597WAT     H147033   5.617   1.451   7.229
15597WAT     H247034   5.764   1.398   7.276
15598WAT      O47035   8.865   6.312   8.006
15598WAT     H147036   8.770   6.299   8.035
15598WAT     H247037   8.867   6.358   7.917
15599WAT      O47038   5.019   0.331   2.320
15599WAT     H147039   4.936   0.367   2.364
15599WAT     H247040   5.099   0.354   2.375
15600WAT      O47041   4.367   4.006   2.285
15600WAT     H147042   4.274   3.991   2.318
15600WAT     H247043   4.413   4.073   2.344
15601WAT      O47044   9.500   4.306   7.465
15601WAT     H147045   9.593   4.278   7.491
15601WAT     H247046   9.494   4.405   7.463
15602WAT      O47047   2.065   2.379   0.704
15602WAT     H147048   2.148   2.426   0.672
15602WAT     H247049   2.060   2.288   0.663
15603WAT      O47050   0.237   1.770   9.276
15603WAT     H147051   0.262   1.842   9.211
15603WAT     H247052   0.169   1.711   9.235
15604WAT      O47053   4.004   6.451   8.815
15604WAT     H147054   3.941   6.511   8.863
15604WAT     H247055   4.079   6.425   8.877
15605WAT      O47056   5.437   7.501   8.460
15605WAT     H147057   5.492   7.417   8.460
15605WAT     H247058   5.351   7.485   8.413
15606WAT      O47059   3.809   2.933   7.813
15606WAT     H147060   3.863   2.970   7.888
15606WAT     H247061   3.826   2.987   7.730
15607WAT      O47062   3.326   2.110   4.221
15607WAT     H147063   3.382   2.185   4.187
15607WAT     H247064   3.348   2.026   4.170
15608WAT      O47065   3.190   9.645   4.545
15608WAT     H147066   3.187   9.601   4.635
15608WAT     H247067   3.098   9.670   4.517
15609WAT      O47068   0.930   0.943   7.460
15609WAT     H147069   1.020   0.900   7.459
15609WAT     H247070   0.933   1.026   7.517
15610WAT      O47071   6.677   7.313   3.186
15610WAT     H147072   6.772   7.302   3.154
15610WAT     H247073   6.668   7.399   3.236
15611WAT      O47074   5.653   9.033   5.326
15611WAT     H147075   5.723   8.999   5.389
15611WAT     H247076   5.595   9.099   5.373
15612WAT      O47077   0.002   9.550   3.845
15612WAT     H147078   0.012   9.537   3.944
15612WAT     H247079   0.093   9.549   3.803
15613WAT      O47080   3.444   5.916   2.369
15613WAT     H147081   3.502   5.863   2.307
15613WAT     H247082   3.438   5.869   2.457
15614WAT      O47083   0.763   5.014   1.999
15614WAT     H147084   0.741   4.994   1.904
15614WAT     H247085   0.795   5.108   2.007
15615WAT      O47086   4.119   4.766   2.274
15615WAT     H147087   4.023   4.745   2.255
15615WAT     H247088   4.175   4.683   2.262
15616WAT      O47089   4.915   6.207   1.516
15616WAT     H147090   4.848   6.136   1.535
15616WAT     H247091   4.869   6.296   1.512
15617WAT      O47092   5.435   6.766   2.749
15617WAT     H147093   5.490   6.839   2.708
15617WAT     H247094   5.340   6.776   2.720
15618WAT      O47095   4.024   0.987   1.186
15618WAT     H147096   4.120   0.959   1.182
15618WAT     H247097   3.981   0.950   1.268
15619WAT      O47098   9.031   0.658   8.530
15619WAT     H147099   8.974   0.578   8.551
15619WAT     H247100   9.012   0.730   8.596
15620WAT      O47101   8.171   7.720   8.504
15620WAT     H147102   8.121   7.803   8.526
15620WAT     H247103   8.109   7.642   8.504
15621WAT      O47104   3.698   8.512   5.755
15621WAT     H147105   3.758   8.544   5.681
15621WAT     H247106   3.611   8.482   5.718
15622WAT      O47107   2.702   0.416   1.343
15622WAT     H147108   2.731   0.480   1.272
15622WAT     H247109   2.782   0.373   1.384
15623WAT      O47110   5.227   1.725   2.463
15623WAT     H147111   5.306   1.682   2.506
15623WAT     H247112   5.191   1.797   2.523
15624WAT      O47113   0.600   4.056   7.141
15624WAT     H147114   0.698   4.072   7.153
15624WAT     H247115   0.585   3.994   7.064
15625WAT      O47116   9.112   3.667   8.999
15625WAT     H147117   9.177   3.677   9.074
15625WAT     H247118   9.038   3.734   9.009
15626WAT      O47119   7.428   5.438   0.182
15626WAT     H147120   7.336   5.474   0.194
15626WAT     H247121   7.447   5.369   0.251
15627WAT      O47122   1.665   8.729   6.973
15627WAT     H147123   1.592   8.764   6.915
15627WAT     H247124   1.717   8.805   7.012
15628WAT      O47125   0.668   2.270   9.057
15628WAT     H147126   0.657   2.212   9.137
15628WAT     H247127   0.579   2.285   9.013
15629WAT      O47128   6.946   8.326   7.903
15629WAT     H147129   6.892   8.379   7.838
15629WAT     H247130   6.908   8.233   7.909
15630WAT      O47131   6.685   1.109   3.201
15630WAT     H147132   6.684   1.009   3.202
15630WAT     H247133   6.767   1.142   3.249
15631WAT      O47134   1.822   8.655   5.050
15631WAT     H147135   1.737   8.707   5.039
15631WAT     H247136   1.896   8.701   5.001
15632WAT      O47137   6.410   9.840   2.342
15632WAT     H147138   6.353   9.772   2.388
15632WAT     H247139   6.429   9.916   2.405
15633WAT      O47140   9.801   7.731   8.415
15633WAT     H147141   9.703   7.715   8.429
15633WAT     H247142   9.820   7.829   8.419
15634WAT      O47143   8.433   2.674   1.727
15634WAT     H147144   8.498   2.749   1.738
15634WAT     H247145   8.470   2.591   1.767
15635WAT      O47146   8.536   4.459   4.768
15635WAT     H147147   8.472   4.438   4.694
15635WAT     H247148   8.577   4.549   4.751
15636WAT      O47149   2.496   3.118   8.317
15636WAT     H147150   2.473   3.215   8.304
15636WAT     H247151   2.534   3.105   8.408
15637WAT      O47152   4.205   1.152   6.591
15637WAT     H147153   4.158   1.198   6.516
15637WAT     H247154   4.236   1.062   6.562
15638WAT      O47155   1.332   2.268   1.079
15638WAT     H147156   1.381   2.280   0.992
15638WAT     H247157   1.319   2.171   1.096
15639WAT      O47158   1.849   5.294   2.235
15639WAT     H147159   1.904   5.307   2.318
15639WAT     H247160   1.824   5.384   2.198
15640WAT      O47161   6.240   2.961   1.643
15640WAT     H147162   6.319   3.003   1.598
15640WAT     H247163   6.233   2.994   1.737
15641WAT      O47164   6.818   1.845   6.343
15641WAT     H147165   6.817   1.818   6.247
15641WAT     H247166   6.731   1.888   6.367
15642WAT      O47167   0.464   2.909   4.727
15642WAT     H147168   0.439   2.841   4.795
15642WAT     H247169   0.507   2.864   4.649
15643WAT      O47170   9.043   2.301   0.750
15643WAT     H147171   9.055   2.371   0.679
15643WAT     H247172   8.947   2.273   0.754
15644WAT      O47173   3.341   5.752   7.020
15644WAT     H147174   3.326   5.767   6.922
15644WAT     H247175   3.428   5.707   7.034
15645WAT      O47176   7.033   0.549   1.074
15645WAT     H147177   6.941   0.587   1.077
15645WAT     H247178   7.054   0.520   0.981
15646WAT      O47179   2.626   2.905   3.270
15646WAT     H147180   2.611   2.994   3.226
15646WAT     H247181   2.707   2.862   3.231
15647WAT      O47182   0.829   7.224   7.290
15647WAT     H147183   0.801   7.135   7.254
15647WAT     H247184   0.879   7.274   7.219
15648WAT      O47185   1.819   8.432   5.544
15648WAT     H147186   1.794   8.352   5.599
15648WAT     H247187   1.875   8.403   5.467
15649WAT      O47188   5.923   7.514   1.305
15649WAT     H147189   5.849   7.581   1.294
15649WAT     H247190   5.901   7.431   1.254
15650WAT      O47191   1.128   5.761   6.600
15650WAT     H147192   1.048   5.773   6.659
15650WAT     H247193   1.211   5.774   6.653
15651WAT      O47194   3.164   5.890   7.757
15651WAT     H147195   3.129   5.798   7.772
15651WAT     H247196   3.212   5.922   7.839
15652WAT      O47197   3.384   6.618   2.154
15652WAT     H147198   3.317   6.548   2.131
15652WAT     H247199   3.474   6.591   2.120
15653WAT      O47200   1.210   1.739   9.208
15653WAT     H147201   1.242   1.820   9.159
15653WAT     H247202   1.172   1.766   9.296
15654WAT      O47203   1.921   7.673   2.735
15654WAT     H147204   1.955   7.731   2.809
15654WAT     H247205   1.826   7.696   2.715
15655WAT      O47206   1.320   7.848   7.943
15655WAT     H147207   1.338   7.944   7.918
15655WAT     H247208   1.352   7.788   7.870
15656WAT      O47209   9.676   4.439   2.487
15656WAT     H147210   9.644   4.449   2.393
15656WAT     H247211   9.640   4.354   2.525
15657WAT      O47212   6.261   9.586   1.072
15657WAT     H147213   6.334   9.523   1.045
15657WAT     H247214   6.274   9.613   1.168
15658WAT      O47215   3.922   7.474   5.348
15658WAT     H147216   3.839   7.419   5.340
15658WAT     H247217   3.968   7.478   5.260
15659WAT      O47218   3.381   6.180   7.824
15659WAT     H147219   3.475   6.204   7.849
15659WAT     H247220   3.358   6.222   7.736
15660WAT      O47221   6.215   0.803   6.652
15660WAT     H147222   6.269   0.768   6.729
15660WAT     H247223   6.275   0.821   6.574
15661WAT      O47224   0.688   1.545   8.380
15661WAT     H147225   0.635   1.629   8.391
15661WAT     H247226   0.655   1.476   8.445
15662WAT      O47227   3.969   3.826   7.331
15662WAT     H147228   4.045   3.781   7.284
15662WAT     H247229   3.889   3.766   7.329
15663WAT      O47230   8.092   2.488   0.868
15663WAT     H147231   8.136   2.573   0.841
15663WAT     H247232   8.067   2.436   0.786
15664WAT      O47233   0.156   6.224   7.156
15664WAT     H147234   0.097   6.271   7.090
15664WAT     H247235   0.131   6.127   7.158
15665WAT      O47236   5.741   5.465   9.741
15665WAT     H147237   5.718   5.369   9.725
15665WAT     H247238   5.734   5.485   9.839
15666WAT      O47239   2.786   9.721   5.398
15666WAT     H147240   2.835   9.644   5.438
15666WAT     H247241   2.806   9.727   5.301
15667WAT      O47242   6.404   7.284   1.803
15667WAT     H147243   6.430   7.269   1.707
15667WAT     H247244   6.390   7.196   1.848
15668WAT      O47245   5.564   3.888   0.724
15668WAT     H147246   5.642   3.951   0.730
15668WAT     H247247   5.596   3.798   0.697
15669WAT      O47248   5.320   5.106   0.460
15669WAT     H147249   5.318   5.192   0.408
15669WAT     H247250   5.399   5.106   0.521
15670WAT      O47251   8.396   5.345   4.588
15670WAT     H147252   8.443   5.256   4.588
15670WAT     H247253   8.304   5.334   4.627
15671WAT      O47254   1.587   5.086   7.021
15671WAT     H147255   1.667   5.135   6.985
15671WAT     H247256   1.614   4.993   7.045
15672WAT      O47257   3.821   6.773   9.696
15672WAT     H147258   3.785   6.848   9.751
15672WAT     H247259   3.866   6.810   9.614
15673WAT      O47260   1.123   9.101   5.792
15673WAT     H147261   1.023   9.092   5.788
15673WAT     H247262   1.164   9.057   5.712
15674WAT      O47263   6.248   7.259   7.943
15674WAT     H147264   6.258   7.189   7.872
15674WAT     H247265   6.327   7.320   7.942
15675WAT      O47266   8.300   1.210   0.581
15675WAT     H147267   8.243   1.170   0.652
15675WAT     H247268   8.394   1.177   0.591
15676WAT      O47269   7.105   7.839   1.301
15676WAT     H147270   7.172   7.908   1.327
15676WAT     H247271   7.107   7.825   1.202
15677WAT      O47272   2.845   6.873   6.882
15677WAT     H147273   2.797   6.880   6.795
15677WAT     H247274   2.921   6.808   6.872
15678WAT      O47275   0.772   4.643   8.596
15678WAT     H147276   0.852   4.583   8.593
15678WAT     H247277   0.693   4.591   8.630
15679WAT      O47278   8.020   0.878   7.830
15679WAT     H147279   8.079   0.812   7.783
15679WAT     H247280   8.003   0.847   7.923
15680WAT      O47281   1.136   8.540   3.396
15680WAT     H147282   1.161   8.557   3.491
15680WAT     H247283   1.063   8.471   3.393
15681WAT      O47284   5.040   2.091   7.615
15681WAT     H147285   5.051   2.039   7.699
15681WAT     H247286   5.049   2.030   7.536
15682WAT      O47287   1.571   1.092   8.810
15682WAT     H147288   1.522   1.020   8.860
15682WAT     H247289   1.546   1.088   8.713
15683WAT      O47290   3.269   1.478   9.649
15683WAT     H147291   3.317   1.406   9.599
15683WAT     H247292   3.334   1.550   9.673
15684WAT      O47293   2.127   2.957   6.732
15684WAT     H147294   2.048   2.899   6.713
15684WAT     H247295   2.168   2.931   6.819
15685WAT      O47296   5.800   4.090   6.670
15685WAT     H147297   5.798   4.167   6.605
15685WAT     H247298   5.847   4.013   6.628
15686WAT      O47299   3.341   1.928   3.770
15686WAT     H147300   3.393   1.983   3.705
15686WAT     H247301   3.295   1.854   3.721
15687WAT      O47302   0.479   0.737   0.911
15687WAT     H147303   0.489   0.655   0.968
15687WAT     H247304   0.521   0.721   0.822
15688WAT      O47305   8.019   2.151   2.679
15688WAT     H147306   7.932   2.103   2.681
15688WAT     H247307   8.089   2.097   2.726
15689WAT      O47308   2.348   8.120   9.079
15689WAT     H147309   2.335   8.211   9.038
15689WAT     H247310   2.441   8.088   9.060
15690WAT      O47311   9.888   2.140   6.352
15690WAT     H147312   9.945   2.154   6.433
15690WAT     H247313   9.822   2.067   6.370
15691WAT      O47314   3.784   0.967   8.831
15691WAT     H147315   3.695   0.982   8.788
15691WAT     H247316   3.815   1.052   8.874
15692WAT      O47317   6.980   8.279   7.455
15692WAT     H147318   7.012   8.303   7.363
15692WAT     H247319   6.948   8.362   7.501
15693WAT      O47320   7.368   0.400   5.490
15693WAT     H147321   7.393   0.349   5.573
15693WAT     H247322   7.270   0.387   5.472
15694WAT      O47323   8.665   6.610   4.137
15694WAT     H147324   8.651   6.661   4.222
15694WAT     H247325   8.707   6.669   4.069
15695WAT      O47326   9.827   2.412   3.576
15695WAT     H147327   9.803   2.494   3.523
15695WAT     H247328   9.779   2.333   3.538
15696WAT      O47329   3.699   9.191   0.094
15696WAT     H147330   3.779   9.131   0.105
15696WAT     H247331   3.631   9.146   0.035
15697WAT      O47332   5.612   2.061   9.025
15697WAT     H147333   5.643   2.071   9.120
15697WAT     H247334   5.652   2.134   8.969
15698WAT      O47335   9.645   0.123   2.323
15698WAT     H147336   9.742   0.102   2.307
15698WAT     H247337   9.633   0.222   2.326
15699WAT      O47338   4.095   7.586   2.575
15699WAT     H147339   4.075   7.532   2.493
15699WAT     H247340   4.176   7.549   2.621
15700WAT      O47341   2.436   1.381   5.120
15700WAT     H147342   2.475   1.325   5.048
15700WAT     H247343   2.495   1.461   5.136
15701WAT      O47344   1.895   0.398   4.171
15701WAT     H147345   1.961   0.469   4.146
15701WAT     H247346   1.802   0.433   4.162
15702WAT      O47347   1.531   3.097   2.273
15702WAT     H147348   1.487   3.070   2.187
15702WAT     H247349   1.469   3.157   2.324
15703WAT      O47350   4.988   6.431   2.983
15703WAT     H147351   4.960   6.486   2.903
15703WAT     H247352   5.056   6.364   2.955
15704WAT      O47353   4.655   6.110   1.039
15704WAT     H147354   4.719   6.154   1.102
15704WAT     H247355   4.706   6.062   0.968
15705WAT      O47356   5.944   5.399   7.004
15705WAT     H147357   5.979   5.332   6.939
15705WAT     H247358   5.880   5.356   7.067
15706WAT      O47359   2.615   5.182   6.071
15706WAT     H147360   2.676   5.248   6.115
15706WAT     H247361   2.580   5.117   6.139
15707WAT      O47362   1.609   1.545   2.729
15707WAT     H147363   1.539   1.477   2.707
15707WAT     H247364   1.630   1.541   2.827
15708WAT      O47365   9.675   0.348   8.611
15708WAT     H147366   9.727   0.375   8.530
15708WAT     H247367   9.612   0.275   8.587
15709WAT      O47368   3.655   5.583   4.655
15709WAT     H147369   3.607   5.659   4.612
15709WAT     H247370   3.595   5.538   4.721
15710WAT      O47371   2.119   8.718   2.260
15710WAT     H147372   2.123   8.790   2.190
15710WAT     H247373   2.106   8.760   2.350
15711WAT      O47374   4.705   3.713   6.324
15711WAT     H147375   4.663   3.742   6.238
15711WAT     H247376   4.779   3.648   6.305
15712WAT      O47377   9.649   6.896   9.177
15712WAT     H147378   9.582   6.836   9.220
15712WAT     H247379   9.624   6.991   9.193
15713WAT      O47380   3.784   3.635   2.357
15713WAT     H147381   3.786   3.715   2.418
15713WAT     H247382   3.814   3.554   2.408
15714WAT      O47383   5.711   9.769   3.179
15714WAT     H147384   5.667   9.795   3.093
15714WAT     H247385   5.662   9.693   3.221
15715WAT      O47386   4.376   1.434   9.670
15715WAT     H147387   4.399   1.530   9.689
15715WAT     H247388   4.300   1.406   9.728
15716WAT      O47389   7.055   7.210   9.329
15716WAT     H147390   7.076   7.153   9.250
15716WAT     H247391   7.139   7.245   9.369
15717WAT      O47392   0.327   6.922   7.395
15717WAT     H147393   0.395   6.994   7.387
15717WAT     H247394   0.367   6.843   7.442
15718WAT      O47395   2.094   8.460   4.002
15718WAT     H147396   2.049   8.519   3.935
15718WAT     H247397   2.148   8.391   3.954
15719WAT      O47398   4.497   4.829   2.283
15719WAT     H147399   4.484   4.793   2.375
15719WAT     H247400   4.530   4.756   2.223
15720WAT      O47401   1.704   4.737   9.587
15720WAT     H147402   1.653   4.815   9.621
15720WAT     H247403   1.802   4.759   9.584
15721WAT      O47404   5.265   8.395   0.015
15721WAT     H147405   5.191   8.420  -0.047
15721WAT     H247406   5.296   8.477   0.065
15722WAT      O47407   9.457   3.805   2.088
15722WAT     H147408   9.485   3.808   1.992
15722WAT     H247409   9.361   3.778   2.094
15723WAT      O47410   3.976   8.989   4.041
15723WAT     H147411   3.966   8.890   4.031
15723WAT     H247412   3.901   9.035   3.992
15724WAT      O47413   9.711   7.779   3.024
15724WAT     H147414   9.738   7.772   2.928
15724WAT     H247415   9.770   7.720   3.079
15725WAT      O47416   0.089   2.308   6.804
15725WAT     H147417   0.188   2.320   6.794
15725WAT     H247418   0.043   2.336   6.720
15726WAT      O47419   4.614   7.113   8.164
15726WAT     H147420   4.558   7.195   8.152
15726WAT     H247421   4.640   7.077   8.074
15727WAT      O47422   4.606   3.753   6.054
15727WAT     H147423   4.629   3.657   6.045
15727WAT     H247424   4.590   3.792   5.963
15728WAT      O47425   8.551   7.352   3.553
15728WAT     H147426   8.470   7.359   3.496
15728WAT     H247427   8.612   7.282   3.517
15729WAT      O47428   6.955   2.407   8.949
15729WAT     H147429   6.897   2.348   9.006
15729WAT     H247430   6.900   2.448   8.876
15730WAT      O47431   1.663   3.829   2.798
15730WAT     H147432   1.578   3.872   2.826
15730WAT     H247433   1.683   3.853   2.702
15731WAT      O47434   5.579   7.210   4.761
15731WAT     H147435   5.481   7.203   4.781
15731WAT     H247436   5.605   7.306   4.762
15732WAT      O47437   7.338   5.147   3.748
15732WAT     H147438   7.318   5.227   3.692
15732WAT     H247439   7.431   5.116   3.732
15733WAT      O47440   6.176   8.118   9.569
15733WAT     H147441   6.215   8.103   9.478
15733WAT     H247442   6.250   8.118   9.637
15734WAT      O47443   0.348   2.951   9.440
15734WAT     H147444   0.428   2.899   9.468
15734WAT     H247445   0.376   3.030   9.386
15735WAT      O47446   8.751   6.158   2.613
15735WAT     H147447   8.696   6.217   2.554
15735WAT     H247448   8.802   6.214   2.679
15736WAT      O47449   6.707   5.028   2.202
15736WAT     H147450   6.675   4.987   2.288
15736WAT     H247451   6.663   5.117   2.190
15737WAT      O47452   9.088   3.921   3.971
15737WAT     H147453   9.178   3.962   3.956
15737WAT     H247454   9.055   3.880   3.886
15738WAT      O47455   1.462   1.354   7.767
15738WAT     H147456   1.494   1.295   7.841
15738WAT     H247457   1.493   1.318   7.679
15739WAT      O47458   6.833   8.316   4.124
15739WAT     H147459   6.750   8.365   4.099
15739WAT     H247460   6.860   8.256   4.048
15740WAT      O47461   4.813   7.237   8.481
15740WAT     H147462   4.827   7.271   8.573
15740WAT     H247463   4.718   7.205   8.471
15741WAT      O47464   2.172   8.561   6.312
15741WAT     H147465   2.081   8.566   6.355
15741WAT     H247466   2.242   8.556   6.383
15742WAT      O47467   9.822   1.009   1.136
15742WAT     H147468   9.915   0.971   1.140
15742WAT     H247469   9.826   1.100   1.095
15743WAT      O47470   5.866   2.534   0.046
15743WAT     H147471   5.787   2.481   0.077
15743WAT     H247472   5.850   2.568  -0.047
15744WAT      O47473   5.738   0.851   0.669
15744WAT     H147474   5.771   0.784   0.603
15744WAT     H247475   5.651   0.888   0.638
15745WAT      O47476   6.105   4.890   5.734
15745WAT     H147477   6.128   4.950   5.658
15745WAT     H247478   6.013   4.910   5.767
15746WAT      O47479   1.428   3.973   7.869
15746WAT     H147480   1.422   3.876   7.893
15746WAT     H247481   1.427   3.984   7.770
15747WAT      O47482   5.995   9.374   7.688
15747WAT     H147483   5.916   9.357   7.747
15747WAT     H247484   5.992   9.467   7.654
15748WAT      O47485   8.382   9.187   8.130
15748WAT     H147486   8.355   9.279   8.158
15748WAT     H247487   8.335   9.163   8.045
15749WAT      O47488   9.805   6.321   9.682
15749WAT     H147489   9.802   6.403   9.738
15749WAT     H247490   9.818   6.240   9.740
15750WAT      O47491   0.486   5.809   4.366
15750WAT     H147492   0.401   5.758   4.359
15750WAT     H247493   0.485   5.864   4.449
15751WAT      O47494   8.346   3.432   2.971
15751WAT     H147495   8.346   3.494   3.049
15751WAT     H247496   8.253   3.426   2.933
15752WAT      O47497   7.407   2.857   3.014
15752WAT     H147498   7.325   2.908   2.989
15752WAT     H247499   7.382   2.779   3.071
15753WAT      O47500   4.811   0.694   5.495
15753WAT     H147501   4.881   0.622   5.497
15753WAT     H247502   4.783   0.714   5.589
15754WAT      O47503   9.229   8.799   6.166
15754WAT     H147504   9.265   8.760   6.251
15754WAT     H247505   9.299   8.792   6.095
15755WAT      O47506   9.307   8.580   5.434
15755WAT     H147507   9.290   8.678   5.422
15755WAT     H247508   9.304   8.535   5.345
15756WAT      O47509   5.226   5.098   5.466
15756WAT     H147510   5.161   5.173   5.477
15756WAT     H247511   5.243   5.054   5.554
15757WAT      O47512   2.290   0.226   6.850
15757WAT     H147513   2.370   0.179   6.888
15757WAT     H247514   2.211   0.210   6.910
15758WAT      O47515   0.387   6.380   8.444
15758WAT     H147516   0.445   6.452   8.484
15758WAT     H247517   0.317   6.422   8.386
15759WAT      O47518   1.358   5.913   1.474
15759WAT     H147519   1.298   5.842   1.438
15759WAT     H247520   1.351   5.914   1.574
15760WAT      O47521   5.648   3.569   1.913
15760WAT     H147522   5.565   3.519   1.889
15760WAT     H247523   5.726   3.526   1.868
15761WAT      O47524   3.589   8.189   4.389
15761WAT     H147525   3.502   8.238   4.387
15761WAT     H247526   3.665   8.255   4.390
15762WAT      O47527   4.041   5.015   6.664
15762WAT     H147528   4.021   4.957   6.585
15762WAT     H247529   4.122   4.979   6.711
15763WAT      O47530   4.764   1.416   7.850
15763WAT     H147531   4.769   1.399   7.949
15763WAT     H247532   4.790   1.333   7.801
15764WAT      O47533   8.718   8.569   3.524
15764WAT     H147534   8.690   8.644   3.583
15764WAT     H247535   8.709   8.597   3.428
15765WAT      O47536   3.648   2.209   2.207
15765WAT     H147537   3.593   2.129   2.229
15765WAT     H247538   3.717   2.184   2.139
15766WAT      O47539   1.223   5.981   0.525
15766WAT     H147540   1.141   6.005   0.475
15766WAT     H247541   1.198   5.950   0.617
15767WAT      O47542   2.014   7.035   3.048
15767WAT     H147543   1.977   7.122   3.082
15767WAT     H247544   2.107   7.023   3.083
15768WAT      O47545   8.169   2.444   8.878
15768WAT     H147546   8.240   2.476   8.941
15768WAT     H247547   8.157   2.346   8.887
15769WAT      O47548   2.568   7.297   9.111
15769WAT     H147549   2.484   7.271   9.159
15769WAT     H247550   2.620   7.362   9.167
15770WAT      O47551   2.132   8.863   3.726
15770WAT     H147552   2.089   8.883   3.638
15770WAT     H247553   2.197   8.935   3.749
15771WAT      O47554   1.895   4.432   4.454
15771WAT     H147555   1.799   4.460   4.449
15771WAT     H247556   1.919   4.413   4.549
15772WAT      O47557   6.976   0.442   2.449
15772WAT     H147558   7.053   0.402   2.499
15772WAT     H247559   6.952   0.382   2.372
15773WAT      O47560   5.839   9.072   8.555
15773WAT     H147561   5.934   9.092   8.577
15773WAT     H247562   5.797   9.153   8.513
15774WAT      O47563   0.120   0.448   5.067
15774WAT     H147564   0.135   0.522   5.133
15774WAT     H247565   0.067   0.482   4.990
15775WAT      O47566   9.644   8.117   7.870
15775WAT     H147567   9.690   8.050   7.929
15775WAT     H247568   9.546   8.095   7.866
15776WAT      O47569   7.667   5.940   7.977
15776WAT     H147570   7.645   5.847   7.947
15776WAT     H247571   7.587   5.999   7.965
15777WAT      O47572   6.473   9.103   1.014
15777WAT     H147573   6.419   9.158   1.077
15777WAT     H247574   6.479   9.149   0.925
15778WAT      O47575   9.791   0.146   8.164
15778WAT     H147576   9.800   0.211   8.239
15778WAT     H247577   9.779   0.197   8.078
15779WAT      O47578   0.873   0.560   7.735
15779WAT     H147579   0.835   0.582   7.645
15779WAT     H247580   0.861   0.463   7.753
15780WAT      O47581   7.690   9.592   4.802
15780WAT     H147582   7.745   9.564   4.880
15780WAT     H247583   7.727   9.552   4.718
15781WAT      O47584   5.342   9.690   8.347
15781WAT     H147585   5.408   9.746   8.297
15781WAT     H247586   5.255   9.740   8.355
15782WAT      O47587   7.904   0.993   6.934
15782WAT     H147588   7.818   1.043   6.941
15782WAT     H247589   7.914   0.933   7.014
15783WAT      O47590   3.138   6.241   3.171
15783WAT     H147591   3.079   6.163   3.191
15783WAT     H247592   3.191   6.223   3.089
15784WAT      O47593   6.662   7.782   0.894
15784WAT     H147594   6.587   7.839   0.860
15784WAT     H247595   6.739   7.841   0.918
15785WAT      O47596   3.688   5.389   3.842
15785WAT     H147597   3.607   5.330   3.844
15785WAT     H247598   3.666   5.474   3.794
15786WAT      O47599   0.211   8.759   4.686
15786WAT     H147600   0.210   8.695   4.609
15786WAT     H247601   0.256   8.844   4.659
15787WAT      O47602   8.284   4.468   5.481
15787WAT     H147603   8.188   4.496   5.489
15787WAT     H247604   8.294   4.374   5.514
15788WAT      O47605   0.535   5.641   1.085
15788WAT     H147606   0.536   5.545   1.056
15788WAT     H247607   0.498   5.697   1.011
15789WAT      O47608   8.295   0.307   6.590
15789WAT     H147609   8.378   0.314   6.646
15789WAT     H247610   8.306   0.234   6.523
15790WAT      O47611   7.128   3.845   2.213
15790WAT     H147612   7.080   3.806   2.292
15790WAT     H247613   7.192   3.777   2.176
15791WAT      O47614   5.333   1.728   9.759
15791WAT     H147615   5.319   1.714   9.661
15791WAT     H247616   5.247   1.708   9.808
15792WAT      O47617   0.775   4.842   0.552
15792WAT     H147618   0.690   4.789   0.555
15792WAT     H247619   0.754   4.937   0.531
15793WAT      O47620   5.848   7.168   3.381
15793WAT     H147621   5.761   7.137   3.420
15793WAT     H247622   5.888   7.094   3.325
15794WAT      O47623   8.507   0.541   2.586
15794WAT     H147624   8.467   0.454   2.559
15794WAT     H247625   8.465   0.615   2.534
15795WAT      O47626   1.518   7.173   4.085
15795WAT     H147627   1.569   7.214   4.009
15795WAT     H247628   1.424   7.154   4.055
15796WAT      O47629   4.569   4.403   2.900
15796WAT     H147630   4.628   4.481   2.916
15796WAT     H247631   4.473   4.431   2.910
15797WAT      O47632   6.399   6.442   6.325
15797WAT     H147633   6.360   6.523   6.281
15797WAT     H247634   6.328   6.392   6.374
15798WAT      O47635   6.940   7.274   3.154
15798WAT     H147636   6.958   7.352   3.214
15798WAT     H247637   7.025   7.245   3.110
15799WAT      O47638   3.731   5.052   3.380
15799WAT     H147639   3.825   5.051   3.344
15799WAT     H247640   3.721   5.130   3.442
15800WAT      O47641   9.727   3.763   4.035
15800WAT     H147642   9.742   3.690   3.968
15800WAT     H247643   9.632   3.760   4.065
15801WAT      O47644   7.562   8.825   7.942
15801WAT     H147645   7.499   8.893   7.904
15801WAT     H247646   7.542   8.736   7.902
15802WAT      O47647   4.344   5.218   9.766
15802WAT     H147648   4.410   5.165   9.819
15802WAT     H247649   4.304   5.160   9.695
15803WAT      O47650   5.572   4.339   8.285
15803WAT     H147651   5.496   4.304   8.339
15803WAT     H247652   5.654   4.287   8.305
15804WAT      O47653   2.550   0.265   2.652
15804WAT     H147654   2.613   0.301   2.583
15804WAT     H247655   2.458   0.260   2.613
15805WAT      O47656   2.777   2.090   7.986
15805WAT     H147657   2.733   2.077   8.075
15805WAT     H247658   2.861   2.035   7.982
15806WAT      O47659   9.361   9.494   5.644
15806WAT     H147660   9.286   9.557   5.623
15806WAT     H247661   9.330   9.428   5.712
15807WAT      O47662   2.058   9.602   3.992
15807WAT     H147663   2.049   9.603   3.892
15807WAT     H247664   2.018   9.685   4.030
15808WAT      O47665   0.841   7.052   8.414
15808WAT     H147666   0.866   7.023   8.322
15808WAT     H247667   0.784   7.134   8.410
15809WAT      O47668   0.565   8.915   8.785
15809WAT     H147669   0.633   8.988   8.775
15809WAT     H247670   0.557   8.865   8.698
15810WAT      O47671   1.241   4.274   2.724
15810WAT     H147672   1.194   4.303   2.808
15810WAT     H247673   1.284   4.185   2.740
15811WAT      O47674   1.702   6.421   2.808
15811WAT     H147675   1.763   6.477   2.752
15811WAT     H247676   1.753   6.381   2.884
15812WAT      O47677   7.783   7.046   5.110
15812WAT     H147678   7.821   7.101   5.036
15812WAT     H247679   7.691   7.079   5.132
15813WAT      O47680   3.510   9.394   7.137
15813WAT     H147681   3.594   9.346   7.161
15813WAT     H247682   3.456   9.338   7.074
15814WAT      O47683   0.883   5.148   7.639
15814WAT     H147684   0.850   5.119   7.729
15814WAT     H247685   0.843   5.089   7.569
15815WAT      O47686   5.501   5.687   3.332
15815WAT     H147687   5.516   5.742   3.250
15815WAT     H247688   5.586   5.640   3.357
15816WAT      O47689   4.002   9.210   8.528
15816WAT     H147690   3.938   9.163   8.468
15816WAT     H247691   4.042   9.288   8.481
15817WAT      O47692   7.922   4.734   3.274
15817WAT     H147693   7.875   4.821   3.277
15817WAT     H247694   8.020   4.749   3.263
15818WAT      O47695   0.938   4.515   6.620
15818WAT     H147696   0.991   4.593   6.654
15818WAT     H247697   0.841   4.538   6.621
15819WAT      O47698   1.234   5.328   2.280
15819WAT     H147699   1.208   5.237   2.246
15819WAT     H247700   1.186   5.398   2.227
15820WAT      O47701   4.606   0.292   6.419
15820WAT     H147702   4.639   0.198   6.428
15820WAT     H247703   4.676   0.347   6.374
15821WAT      O47704   8.607   4.687   2.896
15821WAT     H147705   8.698   4.662   2.862
15821WAT     H247706   8.604   4.785   2.913
15822WAT      O47707   3.333   2.618   2.136
15822WAT     H147708   3.412   2.558   2.152
15822WAT     H247709   3.276   2.620   2.219
15823WAT      O47710   6.727   2.983   2.852
15823WAT     H147711   6.648   3.015   2.799
15823WAT     H247712   6.699   2.909   2.913
15824WAT      O47713   8.181   2.253   4.008
15824WAT     H147714   8.124   2.172   4.024
15824WAT     H247715   8.152   2.298   3.924
15825WAT      O47716   5.761   7.048   4.920
15825WAT     H147717   5.759   7.082   5.013
15825WAT     H247718   5.702   7.104   4.862
15826WAT      O47719   5.871   4.652   6.913
15826WAT     H147720   5.903   4.558   6.906
15826WAT     H247721   5.782   4.654   6.958
15827WAT      O47722   5.788   5.227   0.211
15827WAT     H147723   5.885   5.247   0.226
15827WAT     H247724   5.737   5.313   0.205
15828WAT      O47725   0.948   0.181   7.083
15828WAT     H147726   1.012   0.148   7.152
15828WAT     H247727   0.995   0.188   6.995
15829WAT      O47728   3.980   1.390   2.717
15829WAT     H147729   4.008   1.473   2.669
15829WAT     H247730   3.887   1.366   2.691
15830WAT      O47731   6.095   1.548   8.163
15830WAT     H147732   6.068   1.641   8.188
15830WAT     H247733   6.014   1.491   8.151
15831WAT      O47734   8.821   3.490   1.176
15831WAT     H147735   8.740   3.512   1.231
15831WAT     H247736   8.820   3.545   1.092
15832WAT      O47737   2.713   4.796   6.572
15832WAT     H147738   2.717   4.837   6.663
15832WAT     H247739   2.639   4.728   6.569
15833WAT      O47740   4.855   5.327   5.882
15833WAT     H147741   4.953   5.313   5.893
15833WAT     H247742   4.836   5.368   5.793
15834WAT      O47743   2.705   0.691   9.211
15834WAT     H147744   2.776   0.650   9.270
15834WAT     H247745   2.684   0.783   9.243
15835WAT      O47746   0.666   2.650   4.444
15835WAT     H147747   0.567   2.646   4.455
15835WAT     H247748   0.700   2.562   4.411
15836WAT      O47749   7.016   6.937   3.977
15836WAT     H147750   6.972   6.904   3.894
15836WAT     H247751   6.978   6.889   4.057
15837WAT      O47752   7.476   8.476   0.520
15837WAT     H147753   7.425   8.407   0.470
15837WAT     H247754   7.547   8.432   0.575
15838WAT      O47755   3.755   4.901   7.661
15838WAT     H147756   3.802   4.978   7.617
15838WAT     H247757   3.662   4.894   7.625
15839WAT      O47758   5.277   6.508   4.398
15839WAT     H147759   5.201   6.541   4.454
15839WAT     H247760   5.364   6.538   4.437
15840WAT      O47761   1.487   2.205   6.355
15840WAT     H147762   1.586   2.188   6.352
15840WAT     H247763   1.461   2.233   6.447
15841WAT      O47764   0.932   5.779   4.268
15841WAT     H147765   0.945   5.681   4.248
15841WAT     H247766   1.021   5.822   4.279
15842WAT      O47767   1.480   1.369   2.397
15842WAT     H147768   1.558   1.309   2.385
15842WAT     H247769   1.505   1.462   2.369
15843WAT      O47770   5.003   4.371   9.844
15843WAT     H147771   4.997   4.391   9.746
15843WAT     H247772   4.974   4.451   9.896
15844WAT      O47773   3.412   4.124   2.773
15844WAT     H147774   3.489   4.186   2.790
15844WAT     H247775   3.360   4.112   2.857
15845WAT      O47776   7.573   7.606   3.039
15845WAT     H147777   7.598   7.587   3.134
15845WAT     H247778   7.474   7.615   3.031
15846WAT      O47779   2.045   7.479   2.314
15846WAT     H147780   2.086   7.395   2.349
15846WAT     H247781   2.036   7.546   2.388
15847WAT      O47782   4.902   5.531   6.359
15847WAT     H147783   4.927   5.436   6.337
15847WAT     H247784   4.984   5.580   6.389
15848WAT      O47785   4.787   7.573   2.420
15848WAT     H147786   4.830   7.617   2.499
15848WAT     H247787   4.854   7.564   2.347
15849WAT      O47788   4.271   9.044   3.159
15849WAT     H147789   4.220   9.067   3.241
15849WAT     H247790   4.368   9.031   3.182
15850WAT      O47791   7.760   2.923   0.747
15850WAT     H147792   7.787   2.826   0.745
15850WAT     H247793   7.813   2.971   0.817
15851WAT      O47794   2.302   2.707   1.215
15851WAT     H147795   2.365   2.683   1.141
15851WAT     H247796   2.216   2.742   1.176
15852WAT      O47797   1.494   8.522   3.436
15852WAT     H147798   1.407   8.567   3.455
15852WAT     H247799   1.569   8.586   3.451
15853WAT      O47800   3.961   5.534   3.178
15853WAT     H147801   3.864   5.551   3.190
15853WAT     H247802   3.977   5.489   3.090
15854WAT      O47803   1.132   4.895   1.408
15854WAT     H147804   1.194   4.856   1.476
15854WAT     H247805   1.037   4.879   1.435
15855WAT      O47806   1.629   0.698   1.997
15855WAT     H147807   1.676   0.610   1.984
15855WAT     H247808   1.552   0.703   1.933
15856WAT      O47809   1.579   3.311   1.076
15856WAT     H147810   1.660   3.351   1.118
15856WAT     H247811   1.547   3.234   1.131
15857WAT      O47812   5.211   2.239   3.255
15857WAT     H147813   5.252   2.317   3.208
15857WAT     H247814   5.229   2.156   3.202
15858WAT      O47815   4.752   7.041   4.690
15858WAT     H147816   4.755   7.035   4.590
15858WAT     H247817   4.841   7.015   4.727
15859WAT      O47818   2.129   1.382   8.053
15859WAT     H147819   2.036   1.349   8.034
15859WAT     H247820   2.145   1.467   8.003
15860WAT      O47821   0.151   5.218   1.504
15860WAT     H147822   0.136   5.119   1.504
15860WAT     H247823   0.187   5.246   1.415
15861WAT      O47824   7.522   9.798   2.648
15861WAT     H147825   7.446   9.740   2.678
15861WAT     H247826   7.594   9.740   2.609
15862WAT      O47827   7.390   6.488   8.386
15862WAT     H147828   7.376   6.447   8.476
15862WAT     H247829   7.322   6.454   8.322
15863WAT      O47830   5.161   8.218   4.092
15863WAT     H147831   5.193   8.252   4.180
15863WAT     H247832   5.149   8.295   4.029
15864WAT      O47833   1.785   6.450   1.781
15864WAT     H147834   1.700   6.410   1.746
15864WAT     H247835   1.763   6.534   1.831
15865WAT      O47836   1.925   9.235   7.781
15865WAT     H147837   1.903   9.332   7.777
15865WAT     H247838   1.934   9.199   7.688
15866WAT      O47839   6.505   6.061   6.432
15866WAT     H147840   6.600   6.051   6.459
15866WAT     H247841   6.451   6.090   6.511
15867WAT      O47842   8.191   7.334   5.390
15867WAT     H147843   8.221   7.366   5.480
15867WAT     H247844   8.258   7.271   5.352
15868WAT      O47845   2.876   8.027   1.286
15868WAT     H147846   2.826   7.993   1.207
15868WAT     H247847   2.964   8.064   1.257
15869WAT      O47848   0.398   6.435   2.623
15869WAT     H147849   0.452   6.495   2.565
15869WAT     H247850   0.301   6.445   2.600
15870WAT      O47851   9.862   5.445   0.824
15870WAT     H147852   9.941   5.438   0.885
15870WAT     H247853   9.778   5.444   0.877
15871WAT      O47854   8.415   8.757   1.292
15871WAT     H147855   8.323   8.748   1.255
15871WAT     H247856   8.453   8.846   1.266
15872WAT      O47857   5.356   1.079   1.319
15872WAT     H147858   5.257   1.069   1.315
15872WAT     H247859   5.398   0.989   1.324
15873WAT      O47860   1.728   7.031   1.101
15873WAT     H147861   1.825   7.052   1.107
15873WAT     H247862   1.677   7.114   1.079
15874WAT      O47863   2.603   6.294   2.605
15874WAT     H147864   2.693   6.312   2.646
15874WAT     H247865   2.583   6.363   2.536
15875WAT      O47866   6.462   0.318   7.703
15875WAT     H147867   6.472   0.349   7.608
15875WAT     H247868   6.370   0.337   7.735
15876WAT      O47869   6.496   0.634   3.967
15876WAT     H147870   6.408   0.587   3.974
15876WAT     H247871   6.530   0.654   4.059
15877WAT      O47872   1.648   3.843   5.419
15877WAT     H147873   1.720   3.811   5.358
15877WAT     H247874   1.671   3.935   5.452
15878WAT      O47875   1.584   7.195   3.262
15878WAT     H147876   1.487   7.200   3.288
15878WAT     H247877   1.633   7.137   3.327
15879WAT      O47878   9.550   9.521   4.761
15879WAT     H147879   9.467   9.576   4.767
15879WAT     H247880   9.590   9.511   4.853
15880WAT      O47881   2.765   6.386   3.150
15880WAT     H147882   2.758   6.482   3.177
15880WAT     H247883   2.801   6.332   3.226
15881WAT      O47884   4.333   0.951   6.135
15881WAT     H147885   4.340   1.050   6.152
15881WAT     H247886   4.376   0.901   6.209
15882WAT      O47887   7.934   9.239   2.779
15882WAT     H147888   7.839   9.207   2.784
15882WAT     H247889   7.940   9.332   2.814
15883WAT      O47890   5.053   5.841   3.383
15883WAT     H147891   5.025   5.875   3.293
15883WAT     H247892   5.021   5.747   3.395
15884WAT      O47893   1.489   1.036   0.775
15884WAT     H147894   1.553   1.076   0.710
15884WAT     H247895   1.492   1.088   0.861
15885WAT      O47896   1.965   5.065   5.575
15885WAT     H147897   1.938   4.988   5.518
15885WAT     H247898   1.901   5.074   5.651
15886WAT      O47899   6.512   9.645   8.262
15886WAT     H147900   6.495   9.726   8.317
15886WAT     H247901   6.524   9.566   8.321
15887WAT      O47902   9.026   2.638   4.193
15887WAT     H147903   9.001   2.545   4.166
15887WAT     H247904   9.115   2.661   4.153
15888WAT      O47905   1.794   1.955   6.893
15888WAT     H147906   1.763   1.872   6.847
15888WAT     H247907   1.810   2.027   6.825
15889WAT      O47908   5.731   3.750   3.859
15889WAT     H147909   5.825   3.779   3.877
15889WAT     H247910   5.680   3.825   3.815
15890WAT      O47911   4.037   0.883   3.265
15890WAT     H147912   3.938   0.877   3.254
15890WAT     H247913   4.064   0.828   3.345
15891WAT      O47914   4.768   4.796   3.348
15891WAT     H147915   4.700   4.839   3.407
15891WAT     H247916   4.729   4.712   3.309
15892WAT      O47917   3.658   8.283   0.211
15892WAT     H147918   3.737   8.341   0.231
15892WAT     H247919   3.684   8.211   0.146
15893WAT      O47920   4.623   8.761   2.402
15893WAT     H147921   4.674   8.712   2.331
15893WAT     H247922   4.540   8.710   2.424
15894WAT      O47923   4.581   5.015   3.779
15894WAT     H147924   4.534   4.946   3.835
15894WAT     H247925   4.519   5.090   3.758
15895WAT      O47926   8.308   4.700   9.878
15895WAT     H147927   8.318   4.748   9.966
15895WAT     H247928   8.393   4.708   9.826
15896WAT      O47929   3.722   8.147   7.385
15896WAT     H147930   3.636   8.130   7.433
15896WAT     H247931   3.775   8.062   7.380
15897WAT      O47932   4.991   8.659   5.702
15897WAT     H147933   5.041   8.727   5.649
15897WAT     H247934   4.896   8.688   5.712
15898WAT      O47935   9.369   3.673   8.237
15898WAT     H147936   9.307   3.694   8.313
15898WAT     H247937   9.415   3.756   8.207
15899WAT      O47938   3.529   6.679   5.965
15899WAT     H147939   3.593   6.751   5.989
15899WAT     H247940   3.486   6.699   5.877
15900WAT      O47941   7.718   1.431   7.022
15900WAT     H147942   7.787   1.501   7.002
15900WAT     H247943   7.733   1.395   7.115
15901WAT      O47944   1.708   3.890   0.507
15901WAT     H147945   1.780   3.917   0.443
15901WAT     H247946   1.619   3.892   0.461
15902WAT      O47947   7.639   2.359   7.651
15902WAT     H147948   7.638   2.297   7.730
15902WAT     H247949   7.670   2.310   7.570
15903WAT      O47950   7.780   6.276   4.608
15903WAT     H147951   7.862   6.268   4.665
15903WAT     H247952   7.779   6.365   4.563
15904WAT      O47953   6.873   2.290   5.251
15904WAT     H147954   6.890   2.208   5.196
15904WAT     H247955   6.803   2.270   5.320
15905WAT      O47956   5.945   9.438   0.314
15905WAT     H147957   6.010   9.476   0.380
15905WAT     H247958   5.932   9.340   0.333
15906WAT      O47959   7.409   4.969   5.717
15906WAT     H147960   7.456   4.967   5.805
15906WAT     H247961   7.440   4.891   5.662
15907WAT      O47962   3.019   4.032   2.811
15907WAT     H147963   3.077   3.967   2.762
15907WAT     H247964   3.074   4.083   2.877
15908WAT      O47965   8.796   4.245   5.266
15908WAT     H147966   8.793   4.345   5.276
15908WAT     H247967   8.883   4.211   5.302
15909WAT      O47968   3.665   8.068   5.013
15909WAT     H147969   3.673   8.157   5.058
15909WAT     H247970   3.715   8.069   4.926
15910WAT      O47971   4.620   9.777   4.127
15910WAT     H147972   4.697   9.714   4.133
15910WAT     H247973   4.536   9.729   4.151
15911WAT      O47974   7.962   0.823   7.145
15911WAT     H147975   7.934   0.748   7.084
15911WAT     H247976   7.896   0.831   7.219
15912WAT      O47977   5.724   9.677   1.590
15912WAT     H147978   5.700   9.728   1.507
15912WAT     H247979   5.647   9.621   1.619
15913WAT      O47980   8.125   4.040   5.771
15913WAT     H147981   8.094   3.990   5.690
15913WAT     H247982   8.070   4.122   5.782
15914WAT      O47983   9.590   3.700   9.867
15914WAT     H147984   9.573   3.762   9.790
15914WAT     H247985   9.517   3.709   9.934
15915WAT      O47986   5.561   1.176   0.877
15915WAT     H147987   5.509   1.255   0.845
15915WAT     H247988   5.550   1.167   0.976
15916WAT      O47989   9.355   0.037   0.689
15916WAT     H147990   9.260   0.039   0.656
15916WAT     H247991   9.416   0.020   0.612
15917WAT      O47992   4.933   8.190   5.901
15917WAT     H147993   4.850   8.186   5.957
15917WAT     H247994   4.924   8.264   5.835
15918WAT      O47995   1.572   4.952   3.681
15918WAT     H147996   1.577   4.908   3.592
15918WAT     H247997   1.631   5.033   3.682
15919WAT      O47998   0.946   4.966   6.967
15919WAT     H147999   0.994   5.007   6.890
15919WAT     H248000   0.976   5.008   7.052
15920WAT      O48001   6.542   5.676   8.180
15920WAT     H148002   6.500   5.643   8.095
15920WAT     H248003   6.603   5.752   8.159
15921WAT      O48004   0.103   2.708   1.823
15921WAT     H148005   0.065   2.724   1.914
15921WAT     H248006   0.080   2.785   1.763
15922WAT      O48007   2.651   4.817   7.681
15922WAT     H148008   2.624   4.739   7.625
15922WAT     H248009   2.578   4.841   7.744
15923WAT      O48010   4.573   0.463   0.448
15923WAT     H148011   4.607   0.546   0.491
15923WAT     H248012   4.641   0.390   0.457
15924WAT      O48013   3.452   7.328   1.503
15924WAT     H148014   3.541   7.346   1.543
15924WAT     H248015   3.462   7.262   1.428
15925WAT      O48016   6.258   3.815   5.852
15925WAT     H148017   6.174   3.816   5.908
15925WAT     H248018   6.245   3.756   5.773
15926WAT      O48019   5.545   7.363   6.191
15926WAT     H148020   5.604   7.283   6.187
15926WAT     H248021   5.469   7.353   6.127
15927WAT      O48022   1.467   0.486   4.629
15927WAT     H148023   1.485   0.476   4.531
15927WAT     H248024   1.444   0.581   4.649
15928WAT      O48025   2.962   5.794   9.772
15928WAT     H148026   3.036   5.772   9.835
15928WAT     H248027   2.915   5.876   9.802
15929WAT      O48028   3.018   1.964   9.273
15929WAT     H148029   3.000   1.898   9.200
15929WAT     H248030   2.990   2.055   9.243
15930WAT      O48031   6.343   8.429   2.030
15930WAT     H148032   6.442   8.444   2.024
15930WAT     H248033   6.326   8.330   2.039
15931WAT      O48034   3.505   4.185   3.306
15931WAT     H148035   3.567   4.248   3.353
15931WAT     H248036   3.555   4.135   3.236
15932WAT      O48037   2.834   4.952   8.323
15932WAT     H148038   2.849   5.018   8.250
15932WAT     H248039   2.921   4.910   8.349
15933WAT      O48040   8.347   6.403   1.845
15933WAT     H148041   8.430   6.351   1.868
15933WAT     H248042   8.317   6.378   1.752
15934WAT      O48043   4.778   9.384   8.137
15934WAT     H148044   4.774   9.316   8.064
15934WAT     H248045   4.774   9.337   8.226
15935WAT      O48046   6.805   6.421   9.519
15935WAT     H148047   6.759   6.333   9.531
15935WAT     H248048   6.806   6.445   9.422
15936WAT      O48049   5.953   1.482   4.035
15936WAT     H148050   5.908   1.463   4.122
15936WAT     H248051   5.939   1.578   4.010
15937WAT      O48052   2.744   7.104   6.984
15937WAT     H148053   2.775   7.018   6.943
15937WAT     H248054   2.810   7.133   7.053
15938WAT      O48055   2.233   0.413   8.030
15938WAT     H148056   2.192   0.463   8.106
15938WAT     H248057   2.165   0.354   7.988
15939WAT      O48058   3.163   5.727   9.403
15939WAT     H148059   3.188   5.721   9.307
15939WAT     H248060   3.197   5.647   9.452
15940WAT      O48061   4.972   8.893   0.282
15940WAT     H148062   4.916   8.916   0.203
15940WAT     H248063   4.949   8.954   0.358
15941WAT      O48064   2.024   0.045   2.911
15941WAT     H148065   2.026   0.101   2.828
15941WAT     H248066   2.097  -0.023   2.906
15942WAT      O48067   3.543   6.432   6.298
15942WAT     H148068   3.540   6.340   6.337
15942WAT     H248069   3.557   6.499   6.371
15943WAT      O48070   3.189   6.942   3.513
15943WAT     H148071   3.170   6.966   3.418
15943WAT     H248072   3.175   6.844   3.527
15944WAT      O48073   7.642   1.836   1.782
15944WAT     H148074   7.707   1.843   1.858
15944WAT     H248075   7.691   1.815   1.698
15945WAT      O48076   4.455   9.661   7.829
15945WAT     H148077   4.358   9.678   7.810
15945WAT     H248078   4.495   9.740   7.875
15946WAT      O48079   2.143   4.277   7.240
15946WAT     H148080   2.065   4.219   7.264
15946WAT     H248081   2.151   4.351   7.307
15947WAT      O48082   0.863   4.384   3.733
15947WAT     H148083   0.803   4.324   3.681
15947WAT     H248084   0.957   4.350   3.730
15948WAT      O48085   6.967   1.121   6.024
15948WAT     H148086   7.057   1.164   6.031
15948WAT     H248087   6.969   1.049   5.954
15949WAT      O48088   3.305   4.869   4.318
15949WAT     H148089   3.403   4.889   4.328
15949WAT     H248090   3.264   4.935   4.256
15950WAT      O48091   2.510   6.034   3.753
15950WAT     H148092   2.428   5.990   3.718
15950WAT     H248093   2.551   5.977   3.824
15951WAT      O48094   3.138   5.827   8.318
15951WAT     H148095   3.190   5.747   8.347
15951WAT     H248096   3.092   5.868   8.397
15952WAT      O48097   3.197   0.771   5.971
15952WAT     H148098   3.149   0.854   5.999
15952WAT     H248099   3.136   0.692   5.981
15953WAT      O48100   0.788   8.010   0.243
15953WAT     H148101   0.851   7.932   0.242
15953WAT     H248102   0.840   8.095   0.240
15954WAT      O48103   3.308   0.888   5.165
15954WAT     H148104   3.261   0.923   5.083
15954WAT     H248105   3.369   0.814   5.139
15955WAT      O48106   2.389   3.424   3.267
15955WAT     H148107   2.339   3.365   3.204
15955WAT     H248108   2.433   3.498   3.216
15956WAT      O48109   3.372   7.061   1.962
15956WAT     H148110   3.331   7.040   2.051
15956WAT     H248111   3.411   7.153   1.965
15957WAT      O48112   0.442   3.203   8.845
15957WAT     H148113   0.492   3.261   8.910
15957WAT     H248114   0.479   3.217   8.753
15958WAT      O48115   4.132   3.811   7.572
15958WAT     H148116   4.140   3.896   7.624
15958WAT     H248117   4.075   3.826   7.491
15959WAT      O48118   2.602   3.801   7.347
15959WAT     H148119   2.573   3.712   7.383
15959WAT     H248120   2.584   3.804   7.248
15960WAT      O48121   2.058   9.568   3.151
15960WAT     H148122   2.064   9.544   3.248
15960WAT     H248123   1.966   9.602   3.131
15961WAT      O48124   9.028   2.022   1.075
15961WAT     H148125   9.029   2.111   1.121
15961WAT     H248126   9.016   1.949   1.142
15962WAT      O48127   2.317   1.298   1.057
15962WAT     H148128   2.401   1.265   1.099
15962WAT     H248129   2.328   1.301   0.958
15963WAT      O48130   0.524   4.879   7.430
15963WAT     H148131   0.466   4.844   7.504
15963WAT     H248132   0.469   4.933   7.367
15964WAT      O48133   2.343   3.980   1.746
15964WAT     H148134   2.380   4.072   1.761
15964WAT     H248135   2.385   3.917   1.811
15965WAT      O48136   2.331   4.874   6.908
15965WAT     H148137   2.262   4.932   6.951
15965WAT     H248138   2.422   4.911   6.926
15966WAT      O48139   9.594   1.010   3.322
15966WAT     H148140   9.622   0.914   3.321
15966WAT     H248141   9.603   1.046   3.415
15967WAT      O48142   2.053   7.748   0.813
15967WAT     H148143   2.094   7.839   0.821
15967WAT     H248144   2.048   7.722   0.717
15968WAT      O48145   6.309   7.422   9.879
15968WAT     H148146   6.307   7.454   9.974
15968WAT     H248147   6.285   7.497   9.818
15969WAT      O48148   6.254   8.556   9.828
15969WAT     H148149   6.269   8.654   9.814
15969WAT     H248150   6.230   8.512   9.741
15970WAT      O48151   0.991   4.582   4.227
15970WAT     H148152   1.033   4.581   4.136
15970WAT     H248153   1.002   4.673   4.268
15971WAT      O48154   6.957   6.748   3.493
15971WAT     H148155   7.039   6.799   3.466
15971WAT     H248156   6.890   6.751   3.418
15972WAT      O48157   5.230   0.871   8.940
15972WAT     H148158   5.319   0.843   8.906
15972WAT     H248159   5.191   0.940   8.880
15973WAT      O48160   9.243   9.552   6.581
15973WAT     H148161   9.217   9.457   6.562
15973WAT     H248162   9.338   9.554   6.612
15974WAT      O48163   1.646   0.640   3.295
15974WAT     H148164   1.625   0.644   3.197
15974WAT     H248165   1.587   0.704   3.344
15975WAT      O48166   6.919   1.394   0.265
15975WAT     H148167   6.820   1.402   0.254
15975WAT     H248168   6.964   1.423   0.180
15976WAT      O48169   1.608   0.234   5.110
15976WAT     H148170   1.675   0.277   5.050
15976WAT     H248171   1.645   0.228   5.203
15977WAT      O48172   4.518   8.218   1.122
15977WAT     H148173   4.466   8.297   1.089
15977WAT     H248174   4.496   8.202   1.218
15978WAT      O48175   4.271   8.022   0.355
15978WAT     H148176   4.315   8.037   0.444
15978WAT     H248177   4.340   7.995   0.288
15979WAT      O48178   3.045   9.188   1.435
15979WAT     H148179   2.996   9.155   1.516
15979WAT     H248180   3.066   9.111   1.374
15980WAT      O48181   3.059   7.862   4.887
15980WAT     H148182   3.159   7.859   4.886
15980WAT     H248183   3.024   7.801   4.817
15981WAT      O48184   7.902   7.589   6.884
15981WAT     H148185   7.846   7.670   6.871
15981WAT     H248186   7.889   7.553   6.976
15982WAT      O48187   0.542   2.471   6.661
15982WAT     H148188   0.521   2.535   6.587
15982WAT     H248189   0.627   2.424   6.641
15983WAT      O48190   8.674   3.667   3.818
15983WAT     H148191   8.637   3.598   3.881
15983WAT     H248192   8.603   3.693   3.752
15984WAT      O48193   0.425   4.729   1.161
15984WAT     H148194   0.356   4.664   1.193
15984WAT     H248195   0.380   4.813   1.131
15985WAT      O48196   1.600   7.126   0.740
15985WAT     H148197   1.542   7.156   0.664
15985WAT     H248198   1.686   7.090   0.703
15986WAT      O48199   7.566   6.801   7.449
15986WAT     H148200   7.599   6.844   7.364
15986WAT     H248201   7.480   6.844   7.476
15987WAT      O48202   4.515   6.625   6.437
15987WAT     H148203   4.480   6.591   6.350
15987WAT     H248204   4.615   6.632   6.432
15988WAT      O48205   1.323   2.663   3.855
15988WAT     H148206   1.367   2.575   3.869
15988WAT     H248207   1.270   2.661   3.771
15989WAT      O48208   7.260   9.075   8.788
15989WAT     H148209   7.258   8.977   8.767
15989WAT     H248210   7.332   9.119   8.735
15990WAT      O48211   3.279   3.993   6.911
15990WAT     H148212   3.193   4.038   6.934
15990WAT     H248213   3.329   3.970   6.995
15991WAT      O48214   1.482   5.815   2.413
15991WAT     H148215   1.442   5.736   2.460
15991WAT     H248216   1.581   5.816   2.428
15992WAT      O48217   3.855   0.604   4.970
15992WAT     H148218   3.842   0.683   5.030
15992WAT     H248219   3.895   0.634   4.883
15993WAT      O48220   0.578   4.391   5.031
15993WAT     H148221   0.565   4.489   5.044
15993WAT     H248222   0.594   4.347   5.120
15994WAT      O48223   0.960   5.204   6.249
15994WAT     H148224   1.026   5.187   6.176
15994WAT     H248225   0.873   5.158   6.227
15995WAT      O48226   6.295   9.166   2.539
15995WAT     H148227   6.244   9.084   2.565
15995WAT     H248228   6.267   9.196   2.448
15996WAT      O48229   3.099   2.615   1.972
15996WAT     H148230   3.060   2.523   1.962
15996WAT     H248231   3.188   2.609   2.018
15997WAT      O48232   9.859   0.532   0.516
15997WAT     H148233   9.793   0.467   0.556
15997WAT     H248234   9.907   0.580   0.590
15998WAT      O48235   2.354   0.718   3.330
15998WAT     H148236   2.418   0.791   3.352
15998WAT     H248237   2.359   0.697   3.233
15999WAT      O48238   2.871   9.586   0.018
15999WAT     H148239   2.893   9.684   0.022
15999WAT     H248240   2.834   9.557   0.106
16000WAT      O48241   4.622   7.485   8.156
16000WAT     H148242   4.686   7.505   8.230
16000WAT     H248243   4.620   7.563   8.093
16001WAT      O48244   8.559   3.817   7.796
16001WAT     H148245   8.507   3.770   7.866
16001WAT     H248246   8.601   3.899   7.835
16002WAT      O48247   0.019   2.418   2.672
16002WAT     H148248  -0.011   2.449   2.762
16002WAT     H248249   0.106   2.370   2.681
16003WAT      O48250   0.058   0.517   5.708
16003WAT     H148251   0.010   0.579   5.771
16003WAT     H248252   0.157   0.528   5.719
16004WAT      O48253   7.618   7.400   1.762
16004WAT     H148254   7.614   7.300   1.758
16004WAT     H248255   7.678   7.428   1.837
16005WAT      O48256   8.889   6.378   5.736
16005WAT     H148257   8.922   6.289   5.766
16005WAT     H248258   8.823   6.366   5.662
16006WAT      O48259   0.182   6.989   4.681
16006WAT     H148260   0.245   7.041   4.623
16006WAT     H248261   0.207   6.892   4.677
16007WAT      O48262   0.396   2.611   4.436
16007WAT     H148263   0.366   2.531   4.489
16007WAT     H248264   0.318   2.669   4.416
16008WAT      O48265   7.519   8.610   1.610
16008WAT     H148266   7.593   8.664   1.571
16008WAT     H248267   7.490   8.650   1.696
16009WAT      O48268   7.034   1.792   6.502
16009WAT     H148269   6.942   1.806   6.467
16009WAT     H248270   7.041   1.829   6.595
16010WAT      O48271   3.890   3.661   1.841
16010WAT     H148272   3.961   3.593   1.821
16010WAT     H248273   3.933   3.744   1.877
16011WAT      O48274   1.587   1.909   0.825
16011WAT     H148275   1.563   1.839   0.892
16011WAT     H248276   1.504   1.958   0.797
16012WAT      O48277   3.581   3.317   4.394
16012WAT     H148278   3.650   3.293   4.325
16012WAT     H248279   3.615   3.293   4.485
16013WAT      O48280   3.891   1.469   4.297
16013WAT     H148281   3.956   1.458   4.222
16013WAT     H248282   3.927   1.537   4.362
16014WAT      O48283   3.211   4.599   1.722
16014WAT     H148284   3.136   4.558   1.670
16014WAT     H248285   3.260   4.665   1.664
16015WAT      O48286   9.567   8.199   7.488
16015WAT     H148287   9.497   8.132   7.515
16015WAT     H248288   9.658   8.160   7.505
16016WAT      O48289   1.247   6.706   1.927
16016WAT     H148290   1.345   6.708   1.947
16016WAT     H248291   1.221   6.788   1.876
16017WAT      O48292   6.966   2.151   5.023
16017WAT     H148293   7.008   2.061   5.035
16017WAT     H248294   6.986   2.184   4.930
16018WAT      O48295   1.291   4.594   2.852
16018WAT     H148296   1.316   4.577   2.756
16018WAT     H248297   1.241   4.515   2.888
16019WAT      O48298   3.048   8.727   3.971
16019WAT     H148299   3.090   8.767   4.053
16019WAT     H248300   3.089   8.767   3.889
16020WAT      O48301   0.941   3.267   5.295
16020WAT     H148302   1.003   3.199   5.255
16020WAT     H248303   0.879   3.302   5.225
16021WAT      O48304   5.932   0.262   0.293
16021WAT     H148305   5.909   0.177   0.245
16021WAT     H248306   5.848   0.304   0.328
16022WAT      O48307   5.837   4.109   5.099
16022WAT     H148308   5.849   4.076   5.005
16022WAT     H248309   5.844   4.209   5.101
16023WAT      O48310   6.241   5.809   6.181
16023WAT     H148311   6.304   5.811   6.104
16023WAT     H248312   6.153   5.848   6.153
16024WAT      O48313   8.600   2.215   5.690
16024WAT     H148314   8.686   2.193   5.734
16024WAT     H248315   8.588   2.315   5.688
16025WAT      O48316   1.872   2.291   7.563
16025WAT     H148317   1.928   2.294   7.480
16025WAT     H248318   1.838   2.198   7.577
16026WAT      O48319   3.204   2.985   3.229
16026WAT     H148320   3.141   3.059   3.203
16026WAT     H248321   3.162   2.930   3.301
16027WAT      O48322   2.105   1.675   2.902
16027WAT     H148323   2.054   1.761   2.892
16027WAT     H248324   2.202   1.691   2.883
16028WAT      O48325   3.193   7.998   0.071
16028WAT     H148326   3.152   8.003   0.162
16028WAT     H248327   3.200   8.091   0.033
16029WAT      O48328   5.011   5.179   3.832
16029WAT     H148329   4.977   5.268   3.861
16029WAT     H248330   4.945   5.108   3.857
16030WAT      O48331   5.609   2.787   4.977
16030WAT     H148332   5.691   2.834   5.011
16030WAT     H248333   5.557   2.849   4.919
16031WAT      O48334   2.146   0.550   8.244
16031WAT     H148335   2.205   0.554   8.324
16031WAT     H248336   2.057   0.513   8.270
16032WAT      O48337   7.519   0.342   5.061
16032WAT     H148338   7.595   0.357   4.998
16032WAT     H248339   7.495   0.245   5.062
16033WAT      O48340   4.698   5.425   1.361
16033WAT     H148341   4.638   5.505   1.349
16033WAT     H248342   4.707   5.405   1.459
16034WAT      O48343   0.360   2.235   6.729
16034WAT     H148344   0.418   2.314   6.712
16034WAT     H248345   0.415   2.162   6.770
16035WAT      O48346   7.542   6.012   1.470
16035WAT     H148347   7.579   6.006   1.563
16035WAT     H248348   7.586   5.943   1.412
16036WAT      O48349   5.553   5.159   2.052
16036WAT     H148350   5.535   5.253   2.024
16036WAT     H248351   5.468   5.106   2.052
16037WAT      O48352   2.051   0.192   5.323
16037WAT     H148353   2.005   0.109   5.293
16037WAT     H248354   2.091   0.179   5.413
16038WAT      O48355   7.348   5.132   8.489
16038WAT     H148356   7.387   5.211   8.441
16038WAT     H248357   7.288   5.081   8.427
16039WAT      O48358   6.259   9.555   1.349
16039WAT     H148359   6.259   9.654   1.339
16039WAT     H248360   6.322   9.529   1.422
16040WAT      O48361   1.238   2.810   8.975
16040WAT     H148362   1.240   2.872   9.053
16040WAT     H248363   1.156   2.753   8.980
16041WAT      O48364   7.065   8.676   0.495
16041WAT     H148365   6.998   8.740   0.531
16041WAT     H248366   7.136   8.660   0.564
16042WAT      O48367   2.189   5.932   5.660
16042WAT     H148368   2.207   5.840   5.694
16042WAT     H248369   2.131   5.981   5.725
16043WAT      O48370   2.591   7.488   9.523
16043WAT     H148371   2.550   7.517   9.610
16043WAT     H248372   2.621   7.393   9.531
16044WAT      O48373   8.454   3.370   8.635
16044WAT     H148374   8.546   3.397   8.664
16044WAT     H248375   8.387   3.408   8.699
16045WAT      O48376   5.310   3.891   8.049
16045WAT     H148377   5.380   3.942   7.998
16045WAT     H248378   5.353   3.848   8.128
16046WAT      O48379   4.254   2.948   0.659
16046WAT     H148380   4.183   2.982   0.722
16046WAT     H248381   4.344   2.958   0.702
16047WAT      O48382   4.567   5.624   1.273
16047WAT     H148383   4.558   5.617   1.174
16047WAT     H248384   4.611   5.711   1.296
16048WAT      O48385   0.480   2.297   2.693
16048WAT     H148386   0.426   2.339   2.766
16048WAT     H248387   0.435   2.314   2.605
16049WAT      O48388   7.531   9.776   3.628
16049WAT     H148389   7.547   9.738   3.719
16049WAT     H248390   7.611   9.759   3.570
16050WAT      O48391   8.591   5.572   6.378
16050WAT     H148392   8.591   5.671   6.385
16050WAT     H248393   8.508   5.535   6.420
16051WAT      O48394   9.412   6.690   7.263
16051WAT     H148395   9.394   6.700   7.165
16051WAT     H248396   9.327   6.669   7.311
16052WAT      O48397   7.164   1.253   0.010
16052WAT     H148398   7.097   1.291  -0.054
16052WAT     H248399   7.234   1.322   0.029
16053WAT      O48400   1.458   8.099   1.307
16053WAT     H148401   1.451   8.016   1.252
16053WAT     H248402   1.388   8.097   1.379
16054WAT      O48403   1.503   2.620   1.310
16054WAT     H148404   1.498   2.653   1.404
16054WAT     H248405   1.598   2.610   1.283
16055WAT      O48406   1.466   6.480   3.647
16055WAT     H148407   1.390   6.420   3.624
16055WAT     H248408   1.446   6.573   3.617
16056WAT      O48409   3.711   0.104   6.071
16056WAT     H148410   3.778   0.162   6.025
16056WAT     H248411   3.731   0.008   6.052
16057WAT      O48412   4.847   1.665   8.066
16057WAT     H148413   4.851   1.669   8.166
16057WAT     H248414   4.810   1.577   8.037
16058WAT      O48415   1.784   9.148   4.402
16058WAT     H148416   1.782   9.248   4.407
16058WAT     H248417   1.870   9.114   4.440
16059WAT      O48418   0.296   0.324   6.189
16059WAT     H148419   0.395   0.313   6.174
16059WAT     H248420   0.249   0.321   6.101
16060WAT      O48421   0.286   8.498   0.431
16060WAT     H148422   0.300   8.404   0.461
16060WAT     H248423   0.355   8.522   0.363
16061WAT      O48424   7.549   7.769   2.391
16061WAT     H148425   7.583   7.680   2.361
16061WAT     H248426   7.521   7.763   2.487
16062WAT      O48427   4.305   6.405   2.103
16062WAT     H148428   4.326   6.365   2.014
16062WAT     H248429   4.207   6.427   2.107
16063WAT      O48430   0.485   6.397   7.347
16063WAT     H148431   0.428   6.317   7.366
16063WAT     H248432   0.429   6.468   7.303
16064WAT      O48433   4.319   5.583   8.768
16064WAT     H148434   4.222   5.582   8.790
16064WAT     H248435   4.332   5.560   8.672
16065WAT      O48436   4.074   5.814   6.600
16065WAT     H148437   4.086   5.834   6.503
16065WAT     H248438   4.018   5.885   6.642
16066WAT      O48439   9.310   0.020   4.981
16066WAT     H148440   9.348  -0.005   4.893
16066WAT     H248441   9.361  -0.026   5.054
16067WAT      O48442   6.688   3.649   3.659
16067WAT     H148443   6.653   3.742   3.671
16067WAT     H248444   6.756   3.649   3.586
16068WAT      O48445   3.918   8.299   8.492
16068WAT     H148446   3.854   8.360   8.444
16068WAT     H248447   3.871   8.213   8.514
16069WAT      O48448   9.782   4.106   4.987
16069WAT     H148449   9.860   4.122   5.049
16069WAT     H248450   9.710   4.057   5.037
16070WAT      O48451   3.107   3.257   4.556
16070WAT     H148452   3.140   3.276   4.463
16070WAT     H248453   3.042   3.181   4.554
16071WAT      O48454   0.122   3.360   7.902
16071WAT     H148455   0.162   3.290   7.842
16071WAT     H248456   0.050   3.409   7.853
16072WAT      O48457   8.014   2.746   3.320
16072WAT     H148458   8.091   2.810   3.329
16072WAT     H248459   8.013   2.707   3.228
16073WAT      O48460   6.951   2.774   2.715
16073WAT     H148461   6.975   2.867   2.743
16073WAT     H248462   6.944   2.715   2.795
16074WAT      O48463   1.429   5.134   0.997
16074WAT     H148464   1.446   5.041   0.965
16074WAT     H248465   1.358   5.176   0.940
16075WAT      O48466   4.723   8.673   4.624
16075WAT     H148467   4.717   8.735   4.702
16075WAT     H248468   4.631   8.654   4.590
16076WAT      O48469   0.913   3.175   1.037
16076WAT     H148470   0.908   3.117   1.118
16076WAT     H248471   1.001   3.222   1.034
16077WAT      O48472   3.226   0.687   4.357
16077WAT     H148473   3.270   0.772   4.389
16077WAT     H248474   3.179   0.643   4.433
16078WAT      O48475   6.105   5.810   7.629
16078WAT     H148476   6.082   5.783   7.723
16078WAT     H248477   6.166   5.741   7.589
16079WAT      O48478   3.788   3.237   4.266
16079WAT     H148479   3.794   3.261   4.169
16079WAT     H248480   3.875   3.198   4.296
16080WAT      O48481   4.901   7.263   2.176
16080WAT     H148482   4.991   7.289   2.140
16080WAT     H248483   4.830   7.314   2.128
16081WAT      O48484   1.544   7.504   2.069
16081WAT     H148485   1.447   7.507   2.043
16081WAT     H248486   1.595   7.570   2.015
16082WAT      O48487   0.289   6.781   3.244
16082WAT     H148488   0.348   6.829   3.179
16082WAT     H248489   0.193   6.798   3.221
16083WAT      O48490   8.467   1.797   8.099
16083WAT     H148491   8.491   1.797   8.002
16083WAT     H248492   8.511   1.874   8.144
16084WAT      O48493   7.764   6.536   3.740
16084WAT     H148494   7.844   6.594   3.729
16084WAT     H248495   7.701   6.577   3.805
16085WAT      O48496   7.183   7.307   6.851
16085WAT     H148497   7.198   7.338   6.758
16085WAT     H248498   7.104   7.355   6.890
16086WAT      O48499   4.909   4.562   0.572
16086WAT     H148500   4.817   4.582   0.539
16086WAT     H248501   4.914   4.466   0.600
16087WAT      O48502   1.663   8.575   1.265
16087WAT     H148503   1.696   8.541   1.353
16087WAT     H248504   1.740   8.606   1.210
16088WAT      O48505   1.503   4.099   7.075
16088WAT     H148506   1.490   4.032   7.002
16088WAT     H248507   1.594   4.139   7.068
16089WAT      O48508   7.013   8.360   1.921
16089WAT     H148509   7.090   8.338   1.981
16089WAT     H248510   6.966   8.276   1.895
16090WAT      O48511   2.914   5.796   6.858
16090WAT     H148512   2.936   5.703   6.888
16090WAT     H248513   2.992   5.835   6.810
16091WAT      O48514   2.862   6.877   2.364
16091WAT     H148515   2.947   6.858   2.413
16091WAT     H248516   2.864   6.970   2.327
16092WAT      O48517   6.980   7.440   6.589
16092WAT     H148518   6.933   7.364   6.636
16092WAT     H248519   7.000   7.414   6.495
16093WAT      O48520   6.187   3.659   6.255
16093WAT     H148521   6.174   3.626   6.348
16093WAT     H248522   6.283   3.682   6.240
16094WAT      O48523   2.421   0.892   6.233
16094WAT     H148524   2.499   0.950   6.257
16094WAT     H248525   2.374   0.931   6.154
16095WAT      O48526   0.679   4.716   9.201
16095WAT     H148527   0.750   4.646   9.198
16095WAT     H248528   0.720   4.805   9.224
16096WAT      O48529   2.119   8.888   7.598
16096WAT     H148530   2.032   8.923   7.563
16096WAT     H248531   2.157   8.955   7.663
16097WAT      O48532   2.638   2.837   2.786
16097WAT     H148533   2.554   2.886   2.762
16097WAT     H248534   2.662   2.775   2.712
16098WAT      O48535   1.112   4.312   5.200
16098WAT     H148536   1.036   4.377   5.201
16098WAT     H248537   1.083   4.226   5.243
16099WAT      O48538   3.613   0.656   0.065
16099WAT     H148539   3.711   0.674   0.062
16099WAT     H248540   3.564   0.732   0.023
16100WAT      O48541   9.053   0.983   1.480
16100WAT     H148542   8.970   0.931   1.502
16100WAT     H248543   9.103   0.937   1.406
16101WAT      O48544   2.329   5.490   2.795
16101WAT     H148545   2.268   5.420   2.832
16101WAT     H248546   2.286   5.580   2.803
16102WAT      O48547   4.966   7.372   7.771
16102WAT     H148548   5.035   7.397   7.703
16102WAT     H248549   4.993   7.287   7.817
16103WAT      O48550   4.548   2.309   4.335
16103WAT     H148551   4.466   2.337   4.385
16103WAT     H248552   4.621   2.288   4.401
16104WAT      O48553   5.548   8.316   3.376
16104WAT     H148554   5.567   8.224   3.410
16104WAT     H248555   5.517   8.311   3.282
16105WAT      O48556   7.976   9.448   7.879
16105WAT     H148557   8.032   9.531   7.868
16105WAT     H248558   7.943   9.442   7.973
16106WAT      O48559   6.741   0.237   4.595
16106WAT     H148560   6.644   0.213   4.589
16106WAT     H248561   6.750   0.331   4.626
16107WAT      O48562   2.724   5.419   4.808
16107WAT     H148563   2.670   5.410   4.892
16107WAT     H248564   2.781   5.501   4.814
16108WAT      O48565   6.708   4.103   0.987
16108WAT     H148566   6.747   4.175   0.929
16108WAT     H248567   6.753   4.016   0.968
16109WAT      O48568   4.171   2.896   5.652
16109WAT     H148569   4.134   2.925   5.564
16109WAT     H248570   4.192   2.798   5.648
16110WAT      O48571   9.369   8.790   1.649
16110WAT     H148572   9.356   8.860   1.580
16110WAT     H248573   9.293   8.792   1.714
16111WAT      O48574   6.594   1.525   5.054
16111WAT     H148575   6.558   1.440   5.016
16111WAT     H248576   6.648   1.504   5.136
16112WAT      O48577   6.280   6.469   3.211
16112WAT     H148578   6.380   6.471   3.207
16112WAT     H248579   6.243   6.540   3.151
16113WAT      O48580   3.077   2.875   6.929
16113WAT     H148581   3.164   2.921   6.916
16113WAT     H248582   3.084   2.809   7.004
16114WAT      O48583   0.076   8.459   9.385
16114WAT     H148584   0.011   8.504   9.446
16114WAT     H248585   0.092   8.365   9.416
16115WAT      O48586   7.642   5.113   4.326
16115WAT     H148587   7.667   5.028   4.279
16115WAT     H248588   7.543   5.122   4.326
16116WAT      O48589   5.895   2.621   1.518
16116WAT     H148590   5.853   2.570   1.442
16116WAT     H248591   5.940   2.557   1.580
16117WAT      O48592   6.307   0.641   0.116
16117WAT     H148593   6.355   0.553   0.115
16117WAT     H248594   6.320   0.685   0.205
16118WAT      O48595   8.333   8.301   6.511
16118WAT     H148596   8.318   8.354   6.595
16118WAT     H248597   8.263   8.326   6.444
16119WAT      O48598   7.435   9.568   8.696
16119WAT     H148599   7.398   9.499   8.634
16119WAT     H248600   7.501   9.625   8.647
16120WAT      O48601   6.195   6.449   0.422
16120WAT     H148602   6.184   6.422   0.518
16120WAT     H248603   6.110   6.430   0.373
16121WAT      O48604   0.192   6.243   5.406
16121WAT     H148605   0.223   6.190   5.485
16121WAT     H248606   0.164   6.181   5.333
16122WAT      O48607   5.306   9.091   8.002
16122WAT     H148608   5.223   9.037   7.986
16122WAT     H248609   5.378   9.061   7.941
16123WAT      O48610   5.053   2.453   7.079
16123WAT     H148611   5.017   2.366   7.112
16123WAT     H248612   5.013   2.528   7.131
16124WAT      O48613   9.667   2.737   3.599
16124WAT     H148614   9.571   2.751   3.573
16124WAT     H248615   9.679   2.762   3.695
16125WAT      O48616   8.096   0.299   7.018
16125WAT     H148617   8.075   0.343   6.931
16125WAT     H248618   8.038   0.338   7.090
16126WAT      O48619   3.225   4.604   8.567
16126WAT     H148620   3.258   4.688   8.611
16126WAT     H248621   3.150   4.566   8.620
16127WAT      O48622   2.296   0.205   4.207
16127WAT     H148623   2.298   0.201   4.107
16127WAT     H248624   2.203   0.190   4.239
16128WAT      O48625   6.811   7.875   9.253
16128WAT     H148626   6.887   7.851   9.314
16128WAT     H248627   6.798   7.802   9.186
16129WAT      O48628   8.649   9.576   9.741
16129WAT     H148629   8.684   9.544   9.829
16129WAT     H248630   8.653   9.502   9.674
16130WAT      O48631   0.591   0.896   6.421
16130WAT     H148632   0.589   0.917   6.519
16130WAT     H248633   0.543   0.810   6.405
16131WAT      O48634   6.314   2.532   6.355
16131WAT     H148635   6.305   2.628   6.380
16131WAT     H248636   6.336   2.524   6.258
16132WAT      O48637   9.372   3.331   4.885
16132WAT     H148638   9.344   3.243   4.923
16132WAT     H248639   9.472   3.336   4.884
16133WAT      O48640   1.604   4.224   2.766
16133WAT     H148641   1.556   4.148   2.811
16133WAT     H248642   1.562   4.310   2.795
16134WAT      O48643   9.421   4.215   3.543
16134WAT     H148644   9.327   4.195   3.570
16134WAT     H248645   9.476   4.132   3.549
16135WAT      O48646   3.393   6.680   5.096
16135WAT     H148647   3.332   6.604   5.074
16135WAT     H248648   3.466   6.685   5.028
16136WAT      O48649   7.630   7.247   6.993
16136WAT     H148650   7.702   7.287   6.936
16136WAT     H248651   7.561   7.316   7.014
16137WAT      O48652   0.324   1.626   4.490
16137WAT     H148653   0.269   1.709   4.502
16137WAT     H248654   0.421   1.650   4.492
16138WAT      O48655   2.885   1.736   7.890
16138WAT     H148656   2.907   1.767   7.798
16138WAT     H248657   2.927   1.798   7.957
16139WAT      O48658   9.393   6.834   6.648
16139WAT     H148659   9.315   6.833   6.711
16139WAT     H248660   9.471   6.788   6.692
16140WAT      O48661   2.409   5.276   7.107
16140WAT     H148662   2.437   5.189   7.147
16140WAT     H248663   2.370   5.260   7.016
16141WAT      O48664   2.180   1.897   4.574
16141WAT     H148665   2.201   1.935   4.483
16141WAT     H248666   2.213   1.803   4.580
16142WAT      O48667   5.646   9.224   0.547
16142WAT     H148668   5.622   9.140   0.595
16142WAT     H248669   5.643   9.301   0.610
16143WAT      O48670   4.000   9.769   0.812
16143WAT     H148671   3.937   9.835   0.771
16143WAT     H248672   4.090   9.778   0.770
16144WAT      O48673   2.959   8.628   4.274
16144WAT     H148674   2.966   8.627   4.374
16144WAT     H248675   3.045   8.597   4.234
16145WAT      O48676   0.259   5.822   7.361
16145WAT     H148677   0.257   5.842   7.459
16145WAT     H248678   0.288   5.728   7.347
16146WAT      O48679   3.640   2.984   1.701
16146WAT     H148680   3.599   2.902   1.741
16146WAT     H248681   3.739   2.983   1.717
16147WAT      O48682   2.501   2.329   0.534
16147WAT     H148683   2.440   2.371   0.601
16147WAT     H248684   2.542   2.246   0.574
16148WAT      O48685   5.301   5.087   5.793
16148WAT     H148686   5.392   5.127   5.788
16148WAT     H248687   5.301   4.999   5.747
16149WAT      O48688   3.467   0.422   2.383
16149WAT     H148689   3.478   0.365   2.302
16149WAT     H248690   3.370   0.427   2.408
16150WAT      O48691   9.541   3.118   3.003
16150WAT     H148692   9.612   3.187   2.986
16150WAT     H248693   9.584   3.030   3.025
16151WAT      O48694   0.576   9.205   9.878
16151WAT     H148695   0.517   9.131   9.845
16151WAT     H248696   0.601   9.265   9.802
16152WAT      O48697   3.452   3.513   0.903
16152WAT     H148698   3.440   3.612   0.898
16152WAT     H248699   3.515   3.483   0.831
16153WAT      O48700   1.150   3.427   6.498
16153WAT     H148701   1.070   3.417   6.557
16153WAT     H248702   1.221   3.362   6.526
16154WAT      O48703   7.757   6.446   8.166
16154WAT     H148704   7.848   6.486   8.176
16154WAT     H248705   7.696   6.512   8.122
16155WAT      O48706   9.792   2.856   5.465
16155WAT     H148707   9.748   2.797   5.533
16155WAT     H248708   9.891   2.851   5.475
16156WAT      O48709   8.401   5.413   3.760
16156WAT     H148710   8.301   5.417   3.764
16156WAT     H248711   8.430   5.321   3.736
16157WAT      O48712   7.986   5.321   2.086
16157WAT     H148713   7.923   5.322   2.164
16157WAT     H248714   7.938   5.348   2.003
16158WAT      O48715   9.434   6.366   8.139
16158WAT     H148716   9.414   6.271   8.161
16158WAT     H248717   9.351   6.411   8.107
16159WAT      O48718   9.533   2.670   4.809
16159WAT     H148719   9.560   2.749   4.863
16159WAT     H248720   9.580   2.588   4.843
16160WAT      O48721   4.684   7.151   7.323
16160WAT     H148722   4.727   7.093   7.254
16160WAT     H248723   4.659   7.095   7.402
16161WAT      O48724   2.643   1.484   0.144
16161WAT     H148725   2.692   1.460   0.060
16161WAT     H248726   2.655   1.582   0.162
16162WAT      O48727   4.845   5.377   9.554
16162WAT     H148728   4.746   5.368   9.559
16162WAT     H248729   4.876   5.446   9.620
16163WAT      O48730   9.580   5.789   8.042
16163WAT     H148731   9.537   5.879   8.033
16163WAT     H248732   9.578   5.742   7.954
16164WAT      O48733   1.924   7.000   9.294
16164WAT     H148734   1.867   6.935   9.345
16164WAT     H248735   1.991   6.949   9.240
16165WAT      O48736   0.602   6.562   4.097
16165WAT     H148737   0.623   6.501   4.021
16165WAT     H248738   0.550   6.641   4.064
16166WAT      O48739   1.305   3.211   8.158
16166WAT     H148740   1.237   3.264   8.208
16166WAT     H248741   1.277   3.202   8.062
16167WAT      O48742   2.333   3.888   7.881
16167WAT     H148743   2.255   3.880   7.819
16167WAT     H248744   2.307   3.942   7.961
16168WAT      O48745   0.500   1.353   1.923
16168WAT     H148746   0.518   1.260   1.955
16168WAT     H248747   0.485   1.351   1.824
16169WAT      O48748   7.185   2.133   6.314
16169WAT     H148749   7.141   2.140   6.404
16169WAT     H248750   7.279   2.102   6.325
16170WAT      O48751   2.996   7.760   9.143
16170WAT     H148752   2.940   7.793   9.218
16170WAT     H248753   3.037   7.838   9.096
16171WAT      O48754   3.908   9.282   8.933
16171WAT     H148755   3.840   9.250   8.867
16171WAT     H248756   3.998   9.247   8.908
16172WAT      O48757   9.669   5.063   8.712
16172WAT     H148758   9.643   5.076   8.616
16172WAT     H248759   9.626   4.981   8.748
16173WAT      O48760   1.098   4.127   5.976
16173WAT     H148761   1.111   4.032   6.005
16173WAT     H248762   1.179   4.181   6.000
16174WAT      O48763   5.622   0.822   5.838
16174WAT     H148764   5.524   0.830   5.820
16174WAT     H248765   5.657   0.909   5.872
16175WAT      O48766   8.282   2.217   4.319
16175WAT     H148767   8.302   2.264   4.233
16175WAT     H248768   8.192   2.243   4.352
16176WAT      O48769   1.893   6.385   3.807
16176WAT     H148770   1.844   6.461   3.766
16176WAT     H248771   1.879   6.386   3.906
16177WAT      O48772   4.002   1.044   3.522
16177WAT     H148773   3.950   1.008   3.599
16177WAT     H248774   4.096   1.008   3.526
16178WAT      O48775   1.002   2.278   6.509
16178WAT     H148776   1.013   2.195   6.454
16178WAT     H248777   0.930   2.264   6.576
16179WAT      O48778   6.234   4.310   2.531
16179WAT     H148779   6.319   4.265   2.557
16179WAT     H248780   6.254   4.387   2.470
16180WAT      O48781   9.414   5.067   1.237
16180WAT     H148782   9.372   4.982   1.271
16180WAT     H248783   9.353   5.112   1.173
16181WAT      O48784   1.027   9.073   3.813
16181WAT     H148785   1.117   9.118   3.806
16181WAT     H248786   0.967   9.129   3.871
16182WAT      O48787   5.466   9.285   5.033
16182WAT     H148788   5.382   9.239   5.064
16182WAT     H248789   5.542   9.221   5.036
16183WAT      O48790   1.846   6.383   3.493
16183WAT     H148791   1.863   6.321   3.416
16183WAT     H248792   1.933   6.402   3.540
16184WAT      O48793   2.652   4.373   5.508
16184WAT     H148794   2.714   4.338   5.578
16184WAT     H248795   2.705   4.408   5.431
16185WAT      O48796   4.912   4.393   6.730
16185WAT     H148797   4.955   4.303   6.725
16185WAT     H248798   4.920   4.439   6.642
16186WAT      O48799   8.149   8.408   6.345
16186WAT     H148800   8.145   8.480   6.415
16186WAT     H248801   8.056   8.378   6.324
16187WAT      O48802   8.949   7.889   5.671
16187WAT     H148803   8.997   7.964   5.716
16187WAT     H248804   8.858   7.919   5.643
16188WAT      O48805   7.560   2.440   4.624
16188WAT     H148806   7.531   2.534   4.606
16188WAT     H248807   7.660   2.435   4.622
16189WAT      O48808   2.741   1.228   5.003
16189WAT     H148809   2.720   1.326   5.006
16189WAT     H248810   2.832   1.212   5.041
16190WAT      O48811   6.690   8.455   7.812
16190WAT     H148812   6.626   8.449   7.736
16190WAT     H248813   6.756   8.528   7.794
16191WAT      O48814   1.258   6.882   2.720
16191WAT     H148815   1.243   6.835   2.807
16191WAT     H248816   1.183   6.947   2.704
16192WAT      O48817   5.882   5.356   1.611
16192WAT     H148818   5.809   5.425   1.610
16192WAT     H248819   5.873   5.296   1.532
16193WAT      O48820   6.563   2.265   6.843
16193WAT     H148821   6.550   2.213   6.927
16193WAT     H248822   6.656   2.299   6.838
16194WAT      O48823   7.739   8.105   1.154
16194WAT     H148824   7.687   8.188   1.131
16194WAT     H248825   7.760   8.105   1.252
16195WAT      O48826   3.801   9.517   8.702
16195WAT     H148827   3.894   9.550   8.686
16195WAT     H248828   3.747   9.588   8.747
16196WAT      O48829   5.134   2.585   3.559
16196WAT     H148830   5.194   2.576   3.638
16196WAT     H248831   5.098   2.678   3.553
16197WAT      O48832   4.758   5.556   2.659
16197WAT     H148833   4.670   5.547   2.708
16197WAT     H248834   4.819   5.615   2.712
16198WAT      O48835   1.316   4.388   5.025
16198WAT     H148836   1.379   4.315   4.999
16198WAT     H248837   1.232   4.348   5.061
16199WAT      O48838   0.240   9.464   3.700
16199WAT     H148839   0.291   9.438   3.782
16199WAT     H248840   0.254   9.395   3.629
16200WAT      O48841   5.522   7.193   1.741
16200WAT     H148842   5.606   7.244   1.759
16200WAT     H248843   5.443   7.252   1.761
16201WAT      O48844   6.974   0.281   2.245
16201WAT     H148845   6.893   0.238   2.204
16201WAT     H248846   7.033   0.211   2.283
16202WAT      O48847   9.342   8.490   7.869
16202WAT     H148848   9.411   8.519   7.935
16202WAT     H248849   9.295   8.408   7.903
16203WAT      O48850   6.485   9.677   0.751
16203WAT     H148851   6.539   9.667   0.668
16203WAT     H248852   6.453   9.587   0.781
16204WAT      O48853   7.636   5.314   0.013
16204WAT     H148854   7.632   5.220  -0.021
16204WAT     H248855   7.555   5.332   0.070
16205WAT      O48856   3.110   4.849   0.470
16205WAT     H148857   3.077   4.763   0.509
16205WAT     H248858   3.169   4.830   0.392
16206WAT      O48859   9.682   3.349   6.941
16206WAT     H148860   9.648   3.378   6.852
16206WAT     H248861   9.621   3.280   6.980
16207WAT      O48862   0.218   7.704   4.192
16207WAT     H148863   0.137   7.664   4.235
16207WAT     H248864   0.297   7.694   4.253
16208WAT      O48865   1.051   2.445   9.841
16208WAT     H148866   1.052   2.535   9.885
16208WAT     H248867   1.025   2.455   9.745
16209WAT      O48868   1.782   1.410   7.541
16209WAT     H148869   1.794   1.465   7.623
16209WAT     H248870   1.782   1.313   7.566
16210WAT      O48871   8.943   3.837   3.757
16210WAT     H148872   8.882   3.870   3.685
16210WAT     H248873   8.925   3.740   3.773
16211WAT      O48874   2.905   7.851   9.574
16211WAT     H148875   2.949   7.854   9.664
16211WAT     H248876   2.857   7.938   9.558
16212WAT      O48877   9.288   8.425   5.813
16212WAT     H148878   9.224   8.430   5.736
16212WAT     H248879   9.376   8.464   5.785
16213WAT      O48880   2.318   5.355   3.628
16213WAT     H148881   2.387   5.419   3.593
16213WAT     H248882   2.233   5.404   3.647
16214WAT      O48883   4.500   1.414   6.524
16214WAT     H148884   4.564   1.337   6.522
16214WAT     H248885   4.549   1.499   6.543
16215WAT      O48886   1.338   3.270   7.204
16215WAT     H148887   1.429   3.252   7.241
16215WAT     H248888   1.299   3.186   7.167
16216WAT      O48889   8.270   8.730   7.749
16216WAT     H148890   8.218   8.661   7.699
16216WAT     H248891   8.216   8.814   7.756
16217WAT      O48892   1.595   0.725   8.163
16217WAT     H148893   1.525   0.796   8.157
16217WAT     H248894   1.630   0.705   8.071
16218WAT      O48895   7.222   0.567   8.428
16218WAT     H148896   7.135   0.518   8.419
16218WAT     H248897   7.272   0.533   8.507
16219WAT      O48898   1.742   3.279   2.170
16219WAT     H148899   1.696   3.194   2.145
16219WAT     H248900   1.683   3.334   2.228
16220WAT      O48901   0.891   5.636   0.912
16220WAT     H148902   0.881   5.557   0.973
16220WAT     H248903   0.806   5.651   0.863
16221WAT      O48904   3.405   1.165   4.046
16221WAT     H148905   3.490   1.112   4.052
16221WAT     H248906   3.418   1.253   4.092
16222WAT      O48907   4.697   4.201   0.413
16222WAT     H148908   4.681   4.234   0.320
16222WAT     H248909   4.788   4.230   0.444
16223WAT      O48910   5.955   6.309   6.718
16223WAT     H148911   5.900   6.249   6.660
16223WAT     H248912   5.895   6.356   6.783
16224WAT      O48913   1.569   5.412   0.079
16224WAT     H148914   1.627   5.386   0.156
16224WAT     H248915   1.589   5.352   0.001
16225WAT      O48916   2.032   9.778   0.332
16225WAT     H148917   2.128   9.792   0.355
16225WAT     H248918   1.995   9.703   0.388
16226WAT      O48919   1.510   1.195   5.426
16226WAT     H148920   1.522   1.237   5.336
16226WAT     H248921   1.412   1.194   5.449
16227WAT      O48922   6.125   8.555   3.279
16227WAT     H148923   6.132   8.546   3.378
16227WAT     H248924   6.149   8.648   3.253
16228WAT      O48925   8.928   1.208   9.108
16228WAT     H148926   8.918   1.108   9.108
16228WAT     H248927   9.025   1.231   9.106
16229WAT      O48928   8.193   0.604   6.925
16229WAT     H148929   8.157   0.540   6.857
16229WAT     H248930   8.120   0.630   6.988
16230WAT      O48931   1.839   2.312   5.080
16230WAT     H148932   1.876   2.365   5.003
16230WAT     H248933   1.753   2.269   5.053
16231WAT      O48934   6.851   7.216   8.436
16231WAT     H148935   6.837   7.119   8.458
16231WAT     H248936   6.927   7.225   8.372
16232WAT      O48937   8.118   6.688   0.058
16232WAT     H148938   8.089   6.781   0.082
16232WAT     H248939   8.211   6.690   0.023
16233WAT      O48940   3.932   4.094   3.795
16233WAT     H148941   3.865   4.168   3.791
16233WAT     H248942   3.988   4.103   3.877
16234WAT      O48943   5.592   3.018   2.024
16234WAT     H148944   5.661   3.084   2.056
16234WAT     H248945   5.637   2.936   1.990
16235WAT      O48946   4.197   4.706   6.279
16235WAT     H148947   4.281   4.655   6.260
16235WAT     H248948   4.125   4.641   6.305
16236WAT      O48949   5.383   6.730   2.200
16236WAT     H148950   5.327   6.767   2.274
16236WAT     H248951   5.341   6.751   2.112
16237WAT      O48952   3.453   9.285   4.875
16237WAT     H148953   3.510   9.353   4.921
16237WAT     H248954   3.390   9.244   4.941
16238WAT      O48955   7.313   3.257   5.373
16238WAT     H148956   7.344   3.274   5.280
16238WAT     H248957   7.348   3.169   5.405
16239WAT      O48958   5.850   6.972   2.344
16239WAT     H148959   5.850   7.018   2.256
16239WAT     H248960   5.900   6.886   2.337
16240WAT      O48961   9.705   5.877   6.998
16240WAT     H148962   9.683   5.955   6.939
16240WAT     H248963   9.677   5.897   7.092
16241WAT      O48964   4.635   1.190   1.774
16241WAT     H148965   4.680   1.185   1.684
16241WAT     H248966   4.704   1.179   1.846
16242WAT      O48967   0.583   7.148   9.499
16242WAT     H148968   0.543   7.236   9.525
16242WAT     H248969   0.660   7.163   9.436
16243WAT      O48970   6.575   3.768   3.019
16243WAT     H148971   6.477   3.771   3.034
16243WAT     H248972   6.608   3.859   2.992
16244WAT      O48973   8.096   7.286   8.448
16244WAT     H148974   8.175   7.270   8.508
16244WAT     H248975   8.041   7.203   8.444
16245WAT      O48976   8.466   0.668   4.439
16245WAT     H148977   8.496   0.701   4.349
16245WAT     H248978   8.472   0.568   4.441
16246WAT      O48979   9.066   3.098   5.299
16246WAT     H148980   8.971   3.070   5.306
16246WAT     H248981   9.071   3.189   5.259
16247WAT      O48982   6.600   8.400   8.930
16247WAT     H148983   6.658   8.385   9.010
16247WAT     H248984   6.623   8.488   8.888
16248WAT      O48985   4.108   1.572   5.863
16248WAT     H148986   4.062   1.490   5.830
16248WAT     H248987   4.152   1.552   5.951
16249WAT      O48988   2.653   3.264   7.356
16249WAT     H148989   2.729   3.213   7.315
16249WAT     H248990   2.606   3.316   7.285
16250WAT      O48991   4.761   7.807   1.279
16250WAT     H148992   4.733   7.760   1.363
16250WAT     H248993   4.680   7.840   1.231
16251WAT      O48994   9.808   8.210   9.234
16251WAT     H148995   9.717   8.217   9.192
16251WAT     H248996   9.872   8.174   9.167
16252WAT      O48997   3.880   1.394   6.387
16252WAT     H148998   3.883   1.310   6.442
16252WAT     H248999   3.851   1.372   6.294
16253WAT      O49000   7.526   4.230   1.007
16253WAT     H149001   7.453   4.178   0.962
16253WAT     H249002   7.605   4.171   1.021
16254WAT      O49003   8.957   2.193   3.902
16254WAT     H149004   8.930   2.111   3.953
16254WAT     H249005   9.016   2.167   3.826
16255WAT      O49006   9.052   7.664   9.349
16255WAT     H149007   9.105   7.641   9.267
16255WAT     H249008   8.973   7.603   9.355
16256WAT      O49009   0.136   1.232   5.835
16256WAT     H149010   0.155   1.318   5.883
16256WAT     H249011   0.044   1.234   5.797
16257WAT      O49012   4.318   3.245   8.794
16257WAT     H149013   4.228   3.256   8.835
16257WAT     H249014   4.343   3.149   8.791
16258WAT      O49015   0.196   1.667   2.881
16258WAT     H149016   0.264   1.645   2.951
16258WAT     H249017   0.155   1.582   2.846
16259WAT      O49018   6.338   1.775   4.110
16259WAT     H149019   6.303   1.683   4.088
16259WAT     H249020   6.404   1.768   4.185
16260WAT      O49021   2.601   2.011   4.388
16260WAT     H149022   2.590   2.104   4.424
16260WAT     H249023   2.671   1.963   4.441
16261WAT      O49024   3.710   6.611   1.694
16261WAT     H149025   3.699   6.671   1.615
16261WAT     H249026   3.718   6.516   1.662
16262WAT      O49027   2.190   4.683   5.248
16262WAT     H149028   2.170   4.626   5.169
16262WAT     H249029   2.199   4.627   5.329
16263WAT      O49030   7.700   0.348   2.842
16263WAT     H149031   7.637   0.389   2.908
16263WAT     H249032   7.694   0.249   2.848
16264WAT      O49033   6.531   8.886   2.802
16264WAT     H149034   6.611   8.946   2.798
16264WAT     H249035   6.530   8.828   2.720
16265WAT      O49036   5.808   3.899   7.597
16265WAT     H149037   5.834   3.841   7.675
16265WAT     H249038   5.884   3.904   7.533
16266WAT      O49039   2.982   7.943   6.803
16266WAT     H149040   2.972   8.012   6.874
16266WAT     H249041   2.996   7.853   6.845
16267WAT      O49042   0.050   4.871   2.543
16267WAT     H149043   0.114   4.846   2.471
16267WAT     H249044   0.076   4.960   2.581
16268WAT      O49045   4.060   0.920   8.640
16268WAT     H149046   3.989   0.860   8.605
16268WAT     H249047   4.033   0.956   8.729
16269WAT      O49048   5.725   8.740   7.021
16269WAT     H149049   5.777   8.727   6.936
16269WAT     H249050   5.680   8.829   7.019
16270WAT      O49051   1.919   8.074   4.641
16270WAT     H149052   1.928   8.155   4.583
16270WAT     H249053   1.824   8.063   4.671
16271WAT      O49054   6.827   7.364   1.895
16271WAT     H149055   6.849   7.349   1.799
16271WAT     H249056   6.899   7.417   1.938
16272WAT      O49057   8.472   0.767   8.833
16272WAT     H149058   8.445   0.797   8.741
16272WAT     H249059   8.452   0.669   8.842
16273WAT      O49060   0.451   2.909   6.566
16273WAT     H149061   0.416   2.820   6.536
16273WAT     H249062   0.464   2.968   6.487
16274WAT      O49063   2.928   8.273   4.435
16274WAT     H149064   2.952   8.203   4.503
16274WAT     H249065   2.938   8.363   4.476
16275WAT      O49066   7.885   8.644   8.591
16275WAT     H149067   7.965   8.703   8.581
16275WAT     H249068   7.900   8.559   8.542
16276WAT      O49069   5.213   2.759   2.183
16276WAT     H149070   5.116   2.782   2.173
16276WAT     H249071   5.223   2.677   2.239
16277WAT      O49072   1.988   3.552   2.409
16277WAT     H149073   1.951   3.532   2.499
16277WAT     H249074   1.968   3.476   2.347
16278WAT      O49075   1.667   6.120   2.247
16278WAT     H149076   1.670   6.204   2.193
16278WAT     H249077   1.653   6.143   2.343
16279WAT      O49078   5.413   2.753   5.145
16279WAT     H149079   5.357   2.672   5.125
16279WAT     H249080   5.493   2.754   5.085
16280WAT      O49081   0.462   7.148   6.085
16280WAT     H149082   0.432   7.127   6.178
16280WAT     H249083   0.533   7.083   6.058
16281WAT      O49084   6.978   7.455   6.972
16281WAT     H149085   6.936   7.540   6.942
16281WAT     H249086   6.912   7.403   7.027
16282WAT      O49087   0.838   5.503   3.895
16282WAT     H149088   0.881   5.594   3.896
16282WAT     H249089   0.903   5.436   3.861
16283WAT      O49090   3.587   8.820   8.851
16283WAT     H149091   3.645   8.761   8.795
16283WAT     H249092   3.543   8.888   8.793
16284WAT      O49093   9.154   5.492   8.941
16284WAT     H149094   9.177   5.581   8.980
16284WAT     H249095   9.216   5.470   8.866
16285WAT      O49096   0.557   3.929   4.920
16285WAT     H149097   0.521   3.859   4.859
16285WAT     H249098   0.653   3.909   4.942
16286WAT      O49099   4.576   7.490   0.260
16286WAT     H149100   4.598   7.481   0.357
16286WAT     H249101   4.490   7.540   0.250
16287WAT      O49102   3.351   9.130   6.486
16287WAT     H149103   3.433   9.101   6.535
16287WAT     H249104   3.378   9.189   6.409
16288WAT      O49105   7.989   4.502   6.112
16288WAT     H149106   7.937   4.419   6.093
16288WAT     H249107   8.051   4.520   6.036
16289WAT      O49108   0.569   2.830   2.833
16289WAT     H149109   0.605   2.918   2.803
16289WAT     H249110   0.564   2.768   2.754
16290WAT      O49111   2.707   3.061   0.675
16290WAT     H149112   2.656   3.125   0.733
16290WAT     H249113   2.778   3.016   0.729
16291WAT      O49114   1.076   8.383   2.843
16291WAT     H149115   1.094   8.440   2.923
16291WAT     H249116   1.003   8.423   2.788
16292WAT      O49117   8.595   1.035   1.596
16292WAT     H149118   8.592   1.029   1.696
16292WAT     H249119   8.684   1.002   1.564
16293WAT      O49120   6.449   4.067   8.622
16293WAT     H149121   6.530   4.009   8.625
16293WAT     H249122   6.415   4.082   8.714
16294WAT      O49123   0.265   3.539   8.082
16294WAT     H149124   0.238   3.475   8.010
16294WAT     H249125   0.323   3.492   8.149
16295WAT      O49126   2.069   6.812   9.619
16295WAT     H149127   1.981   6.765   9.625
16295WAT     H249128   2.137   6.765   9.675
16296WAT      O49129   2.543   4.570   6.634
16296WAT     H149130   2.474   4.580   6.706
16296WAT     H249131   2.601   4.491   6.654
16297WAT      O49132   5.588   1.437   6.585
16297WAT     H149133   5.603   1.338   6.584
16297WAT     H249134   5.491   1.457   6.573
16298WAT      O49135   3.371   5.563   8.805
16298WAT     H149136   3.446   5.598   8.861
16298WAT     H249137   3.386   5.466   8.787
16299WAT      O49138   4.880   2.135   2.972
16299WAT     H149139   4.830   2.136   2.885
16299WAT     H249140   4.977   2.149   2.954
16300WAT      O49141   1.204   8.234   9.208
16300WAT     H149142   1.122   8.180   9.190
16300WAT     H249143   1.281   8.195   9.157
16301WAT      O49144   3.467   0.164   2.140
16301WAT     H149145   3.440   0.258   2.118
16301WAT     H249146   3.556   0.144   2.100
16302WAT      O49147   5.127   7.051   0.868
16302WAT     H149148   5.095   7.126   0.927
16302WAT     H249149   5.100   6.964   0.908
16303WAT      O49150   7.877   9.288   8.376
16303WAT     H149151   7.893   9.201   8.423
16303WAT     H249152   7.800   9.335   8.420
16304WAT      O49153   7.935   4.153   6.630
16304WAT     H149154   7.908   4.075   6.688
16304WAT     H249155   7.962   4.230   6.688
16305WAT      O49156   7.407   4.782   9.674
16305WAT     H149157   7.345   4.849   9.713
16305WAT     H249158   7.436   4.812   9.583
16306WAT      O49159   9.264   2.991   7.134
16306WAT     H149160   9.249   3.070   7.192
16306WAT     H249161   9.327   2.927   7.179
16307WAT      O49162   6.261   2.433   3.073
16307WAT     H149163   6.331   2.364   3.092
16307WAT     H249164   6.277   2.513   3.132
16308WAT      O49165   2.320   9.238   9.287
16308WAT     H149166   2.266   9.295   9.226
16308WAT     H249167   2.265   9.212   9.367
16309WAT      O49168   0.862   5.271   0.865
16309WAT     H149169   0.883   5.311   0.954
16309WAT     H249170   0.833   5.176   0.877
16310WAT      O49171   2.094   0.572   4.145
16310WAT     H149172   2.143   0.594   4.061
16310WAT     H249173   2.080   0.655   4.199
16311WAT      O49174   3.814   9.183   0.748
16311WAT     H149175   3.756   9.142   0.819
16311WAT     H249176   3.758   9.240   0.687
16312WAT      O49177   7.096   6.105   4.604
16312WAT     H149178   7.150   6.021   4.593
16312WAT     H249179   7.127   6.174   4.540
16313WAT      O49180   6.681   8.878   9.552
16313WAT     H149181   6.633   8.791   9.553
16313WAT     H249182   6.635   8.941   9.488
16314WAT      O49183   3.466   7.768   5.626
16314WAT     H149184   3.436   7.844   5.568
16314WAT     H249185   3.537   7.800   5.689
16315WAT      O49186   7.158   2.106   4.263
16315WAT     H149187   7.079   2.106   4.323
16315WAT     H249188   7.187   2.200   4.246
16316WAT      O49189   0.826   2.183   2.392
16316WAT     H149190   0.894   2.112   2.373
16316WAT     H249191   0.785   2.167   2.482
16317WAT      O49192   3.145   1.201   7.409
16317WAT     H149193   3.059   1.151   7.396
16317WAT     H249194   3.197   1.199   7.323
16318WAT      O49195   5.208   1.562   0.908
16318WAT     H149196   5.213   1.562   0.808
16318WAT     H249197   5.175   1.650   0.940
16319WAT      O49198   2.621   8.110   4.285
16319WAT     H149199   2.670   8.141   4.204
16319WAT     H249200   2.651   8.018   4.310
16320WAT      O49201   1.143   2.951   7.148
16320WAT     H149202   1.228   2.904   7.172
16320WAT     H249203   1.068   2.886   7.148
16321WAT      O49204   8.360   4.822   5.302
16321WAT     H149205   8.405   4.733   5.292
16321WAT     H249206   8.282   4.812   5.364
16322WAT      O49207   7.923   2.887   2.114
16322WAT     H149208   7.944   2.851   2.204
16322WAT     H249209   7.962   2.827   2.044
16323WAT      O49210   2.491   1.024   4.100
16323WAT     H149211   2.447   1.035   4.011
16323WAT     H249212   2.440   0.958   4.154
16324WAT      O49213   3.785   2.938   3.170
16324WAT     H149214   3.788   2.980   3.260
16324WAT     H249215   3.786   2.838   3.180
16325WAT      O49216   7.748   0.128   5.039
16325WAT     H149217   7.773   0.210   5.090
16325WAT     H249218   7.648   0.124   5.028
16326WAT      O49219   8.454   9.158   4.983
16326WAT     H149220   8.534   9.187   5.036
16326WAT     H249221   8.372   9.200   5.021
16327WAT      O49222   4.259   1.559   3.018
16327WAT     H149223   4.319   1.621   2.966
16327WAT     H249224   4.173   1.606   3.039
16328WAT      O49225   3.882   4.617   6.685
16328WAT     H149226   3.850   4.705   6.651
16328WAT     H249227   3.941   4.631   6.764
16329WAT      O49228   4.410   2.647   5.499
16329WAT     H149229   4.380   2.652   5.403
16329WAT     H249230   4.504   2.681   5.507
16330WAT      O49231   5.698   7.509   6.349
16330WAT     H149232   5.649   7.459   6.278
16330WAT     H249233   5.669   7.476   6.439
16331WAT      O49234   8.114   5.061   0.016
16331WAT     H149235   8.205   5.101   0.028
16331WAT     H249236   8.084   5.074  -0.078
16332WAT      O49237   7.188   8.587   1.404
16332WAT     H149238   7.231   8.509   1.449
16332WAT     H249239   7.127   8.554   1.332
16333WAT      O49240   8.223   1.210   4.229
16333WAT     H149241   8.256   1.265   4.152
16333WAT     H249242   8.126   1.228   4.244
16334WAT      O49243   4.307   0.379   5.244
16334WAT     H149244   4.373   0.357   5.173
16334WAT     H249245   4.341   0.347   5.332
16335WAT      O49246   6.210   3.580   1.935
16335WAT     H149247   6.256   3.604   2.020
16335WAT     H249248   6.139   3.647   1.915
16336WAT      O49249   8.179   1.371   4.799
16336WAT     H149250   8.125   1.454   4.813
16336WAT     H249251   8.146   1.299   4.859
16337WAT      O49252   1.384   6.733   3.583
16337WAT     H149253   1.410   6.731   3.487
16337WAT     H249254   1.300   6.786   3.594
16338WAT      O49255   0.155   9.221   4.056
16338WAT     H149256   0.116   9.147   4.110
16338WAT     H249257   0.173   9.189   3.963
16339WAT      O49258   2.144   1.872   4.187
16339WAT     H149259   2.213   1.932   4.226
16339WAT     H249260   2.167   1.776   4.206
16340WAT      O49261   1.835   8.248   7.287
16340WAT     H149262   1.771   8.225   7.360
16340WAT     H249263   1.879   8.336   7.306
16341WAT      O49264   9.218   8.432   9.439
16341WAT     H149265   9.219   8.345   9.391
16341WAT     H249266   9.312   8.459   9.461
16342WAT      O49267   3.884   4.027   8.779
16342WAT     H149268   3.903   4.046   8.876
16342WAT     H249269   3.866   4.112   8.731
16343WAT      O49270   2.244   0.183   3.952
16343WAT     H149271   2.304   0.229   3.887
16343WAT     H249272   2.148   0.198   3.925
16344WAT      O49273   7.416   5.982   6.643
16344WAT     H149274   7.370   6.042   6.710
16344WAT     H249275   7.379   6.000   6.552
16345WAT      O49276   5.603   7.019   4.571
16345WAT     H149277   5.576   7.087   4.639
16345WAT     H249278   5.703   7.020   4.561
16346WAT      O49279   6.933   0.927   7.531
16346WAT     H149280   6.845   0.880   7.527
16346WAT     H249281   7.005   0.860   7.550
16347WAT      O49282   3.502   5.736   9.529
16347WAT     H149283   3.488   5.823   9.576
16347WAT     H249284   3.423   5.676   9.545
16348WAT      O49285   6.526   6.691   2.496
16348WAT     H149286   6.541   6.600   2.458
16348WAT     H249287   6.614   6.735   2.513
16349WAT      O49288   9.542   1.023   6.430
16349WAT     H149289   9.603   0.971   6.370
16349WAT     H249290   9.593   1.094   6.477
16350WAT      O49291   1.014   1.723   7.435
16350WAT     H149292   1.048   1.676   7.354
16350WAT     H249293   0.923   1.688   7.459
16351WAT      O49294   2.024   5.631   8.810
16351WAT     H149295   2.100   5.688   8.840
16351WAT     H249296   1.949   5.637   8.876
16352WAT      O49297   3.047   3.406   1.639
16352WAT     H149298   3.132   3.440   1.678
16352WAT     H249299   3.028   3.314   1.675
16353WAT      O49300   6.693   7.447   7.718
16353WAT     H149301   6.621   7.516   7.706
16353WAT     H249302   6.767   7.464   7.653
16354WAT      O49303   5.559   6.794   6.068
16354WAT     H149304   5.478   6.850   6.049
16354WAT     H249305   5.530   6.701   6.093
16355WAT      O49306   4.094   2.315   3.754
16355WAT     H149307   4.146   2.400   3.743
16355WAT     H249308   3.997   2.336   3.760
16356WAT      O49309   1.182   0.992   2.802
16356WAT     H149310   1.162   0.937   2.883
16356WAT     H249311   1.198   1.087   2.828
16357WAT      O49312   1.370   6.020   7.217
16357WAT     H149313   1.373   6.034   7.316
16357WAT     H249314   1.304   6.084   7.177
16358WAT      O49315   1.717   7.793   4.062
16358WAT     H149316   1.708   7.819   3.966
16358WAT     H249317   1.768   7.708   4.069
16359WAT      O49318   1.250   0.988   4.652
16359WAT     H149319   1.218   0.898   4.623
16359WAT     H249320   1.178   1.055   4.639
16360WAT      O49321   0.198   7.185   7.072
16360WAT     H149322   0.111   7.214   7.032
16360WAT     H249323   0.213   7.088   7.053
16361WAT      O49324   9.003   4.332   8.673
16361WAT     H149325   9.019   4.309   8.577
16361WAT     H249326   8.919   4.287   8.704
16362WAT      O49327   6.287   5.032   1.930
16362WAT     H149328   6.275   4.995   2.023
16362WAT     H249329   6.207   5.010   1.875
16363WAT      O49330   2.044   9.062   8.203
16363WAT     H149331   2.083   8.972   8.221
16363WAT     H249332   1.982   9.087   8.277
16364WAT      O49333   1.612   8.638   6.510
16364WAT     H149334   1.533   8.631   6.571
16364WAT     H249335   1.607   8.567   6.441
16365WAT      O49336   5.546   6.220   7.143
16365WAT     H149337   5.474   6.216   7.212
16365WAT     H249338   5.517   6.280   7.068
16366WAT      O49339   3.239   1.123   9.704
16366WAT     H149340   3.205   1.075   9.785
16366WAT     H249341   3.289   1.059   9.645
16367WAT      O49342   0.056   3.749   2.473
16367WAT     H149343   0.034   3.656   2.500
16367WAT     H249344   0.144   3.750   2.424
16368WAT      O49345   8.190   4.139   3.264
16368WAT     H149346   8.188   4.198   3.345
16368WAT     H249347   8.256   4.174   3.198
16369WAT      O49348   0.528   0.737   8.424
16369WAT     H149349   0.498   0.650   8.462
16369WAT     H249350   0.603   0.773   8.479
16370WAT      O49351   8.357   7.121   0.167
16370WAT     H149352   8.267   7.162   0.179
16370WAT     H249353   8.374   7.056   0.241
16371WAT      O49354   8.721   9.197   0.868
16371WAT     H149355   8.633   9.181   0.912
16371WAT     H249356   8.707   9.231   0.775
16372WAT      O49357   2.810   4.873   0.022
16372WAT     H149358   2.775   4.782   0.042
16372WAT     H249359   2.786   4.935   0.096
16373WAT      O49360   8.197   6.624   3.616
16373WAT     H149361   8.283   6.650   3.659
16373WAT     H249362   8.177   6.686   3.540
16374WAT      O49363   2.450   3.998   0.995
16374WAT     H149364   2.502   4.078   0.967
16374WAT     H249365   2.495   3.954   1.073
16375WAT      O49366   7.966   7.619   0.787
16375WAT     H149367   7.921   7.690   0.733
16375WAT     H249368   7.976   7.650   0.881
16376WAT      O49369   4.954   7.238   7.055
16376WAT     H149370   4.999   7.327   7.055
16376WAT     H249371   4.979   7.189   6.971
16377WAT      O49372   1.290   0.822   0.824
16377WAT     H149373   1.333   0.901   0.780
16377WAT     H249374   1.327   0.812   0.916
16378WAT      O49375   6.759   2.758   9.008
16378WAT     H149376   6.718   2.849   9.005
16378WAT     H249377   6.812   2.742   8.925
16379WAT      O49378   5.666   4.938   8.091
16379WAT     H149379   5.576   4.901   8.068
16379WAT     H249380   5.662   5.038   8.090
16380WAT      O49381   6.694   4.594   6.607
16380WAT     H149382   6.613   4.645   6.637
16380WAT     H249383   6.707   4.514   6.666
16381WAT      O49384   2.434   2.942   7.078
16381WAT     H149385   2.463   2.890   6.998
16381WAT     H249386   2.514   2.975   7.128
16382WAT      O49387   4.940   3.723   8.521
16382WAT     H149388   5.034   3.690   8.514
16382WAT     H249389   4.877   3.649   8.499
16383WAT      O49390   0.483   9.034   2.527
16383WAT     H149391   0.573   9.072   2.508
16383WAT     H249392   0.447   9.074   2.611
16384WAT      O49393   0.709   5.885   0.918
16384WAT     H149394   0.681   5.804   0.867
16384WAT     H249395   0.716   5.863   1.015
16385WAT      O49396   9.262   6.427   0.884
16385WAT     H149397   9.291   6.368   0.808
16385WAT     H249398   9.311   6.401   0.967
16386WAT      O49399   0.055   2.337   9.259
16386WAT     H149400   0.109   2.413   9.296
16386WAT     H249401   0.065   2.258   9.320
16387WAT      O49402   2.828   9.072   1.604
16387WAT     H149403   2.784   9.134   1.669
16387WAT     H249404   2.869   8.995   1.654
16388WAT      O49405   5.667   6.855   1.013
16388WAT     H149406   5.644   6.779   1.072
16388WAT     H249407   5.743   6.829   0.953
16389WAT      O49408   4.213   6.271   4.254
16389WAT     H149409   4.128   6.306   4.214
16389WAT     H249410   4.215   6.171   4.244
16390WAT      O49411   7.667   8.176   3.769
16390WAT     H149412   7.724   8.117   3.710
16390WAT     H249413   7.572   8.171   3.739
16391WAT      O49414   2.664   1.833   3.452
16391WAT     H149415   2.721   1.823   3.534
16391WAT     H249416   2.666   1.928   3.421
16392WAT      O49417   8.614   0.918   2.849
16392WAT     H149418   8.624   0.824   2.815
16392WAT     H249419   8.622   0.982   2.773
16393WAT      O49420   6.665   6.465   4.085
16393WAT     H149421   6.761   6.449   4.108
16393WAT     H249422   6.626   6.382   4.047
16394WAT      O49423   1.916   1.433   1.876
16394WAT     H149424   1.850   1.402   1.945
16394WAT     H249425   1.878   1.511   1.827
16395WAT      O49426   4.042   9.714   4.919
16395WAT     H149427   3.974   9.784   4.897
16395WAT     H249428   4.039   9.642   4.849
16396WAT      O49429   8.998   8.571   0.556
16396WAT     H149430   9.041   8.599   0.641
16396WAT     H249431   8.990   8.471   0.554
16397WAT      O49432   9.140   3.717   8.108
16397WAT     H149433   9.234   3.683   8.115
16397WAT     H249434   9.109   3.747   8.198
16398WAT      O49435   0.502   4.141   5.259
16398WAT     H149436   0.577   4.168   5.320
16398WAT     H249437   0.419   4.191   5.284
16399WAT      O49438   9.745   7.000   5.298
16399WAT     H149439   9.763   6.916   5.349
16399WAT     H249440   9.681   7.057   5.350
16400WAT      O49441   6.490   9.525   2.033
16400WAT     H149442   6.394   9.504   2.014
16400WAT     H249443   6.548   9.452   1.997
16401WAT      O49444   2.474   0.302   0.176
16401WAT     H149445   2.399   0.280   0.114
16401WAT     H249446   2.518   0.386   0.146
16402WAT      O49447   2.469   1.223   1.434
16402WAT     H149448   2.375   1.218   1.400
16402WAT     H249449   2.499   1.318   1.435
16403WAT      O49450   8.787   5.900   2.645
16403WAT     H149451   8.775   5.996   2.619
16403WAT     H249452   8.730   5.842   2.587
16404WAT      O49453   4.187   7.129   9.872
16404WAT     H149454   4.160   7.042   9.831
16404WAT     H249455   4.242   7.111   9.954
16405WAT      O49456   7.310   3.575   4.913
16405WAT     H149457   7.240   3.614   4.854
16405WAT     H249458   7.270   3.554   5.002
16406WAT      O49459   8.017   8.801   8.954
16406WAT     H149460   7.977   8.879   9.001
16406WAT     H249461   7.992   8.717   9.002
16407WAT      O49462   6.030   4.834   8.380
16407WAT     H149463   5.938   4.866   8.358
16407WAT     H249464   6.056   4.763   8.314
16408WAT      O49465   9.080   1.384   0.237
16408WAT     H149466   9.014   1.341   0.299
16408WAT     H249467   9.031   1.429   0.163
16409WAT      O49468   1.356   2.376   6.571
16409WAT     H149469   1.265   2.411   6.548
16409WAT     H249470   1.349   2.311   6.647
16410WAT      O49471   9.319   5.442   5.588
16410WAT     H149472   9.400   5.441   5.531
16410WAT     H249473   9.259   5.516   5.559
16411WAT      O49474   1.014   0.229   5.413
16411WAT     H149475   1.055   0.138   5.425
16411WAT     H249476   1.086   0.297   5.402
16412WAT      O49477   3.218   7.304   3.904
16412WAT     H149478   3.302   7.342   3.867
16412WAT     H249479   3.170   7.251   3.834
16413WAT      O49480   5.403   8.960   0.446
16413WAT     H149481   5.377   9.056   0.444
16413WAT     H249482   5.490   8.950   0.494
16414WAT      O49483   0.498   3.077   5.997
16414WAT     H149484   0.401   3.102   5.984
16414WAT     H249485   0.546   3.154   6.040
16415WAT      O49486   8.998   4.156   2.816
16415WAT     H149487   8.926   4.224   2.820
16415WAT     H249488   9.033   4.138   2.908
16416WAT      O49489   2.102   7.566   1.039
16416WAT     H149490   2.133   7.591   1.131
16416WAT     H249491   2.115   7.644   0.978
16417WAT      O49492   7.930   6.480   6.593
16417WAT     H149493   8.001   6.522   6.649
16417WAT     H249494   7.844   6.480   6.643
16418WAT      O49495   7.079   8.817   8.382
16418WAT     H149496   7.155   8.872   8.346
16418WAT     H249497   7.066   8.838   8.479
16419WAT      O49498   4.914   6.661   3.712
16419WAT     H149499   4.881   6.569   3.732
16419WAT     H249500   4.954   6.701   3.794
16420WAT      O49501   7.447   4.095   8.839
16420WAT     H149502   7.488   4.046   8.916
16420WAT     H249503   7.480   4.057   8.753
16421WAT      O49504   3.647   1.057   9.558
16421WAT     H149505   3.551   1.034   9.542
16421WAT     H249506   3.683   1.108   9.480
16422WAT      O49507   4.584   9.552   8.827
16422WAT     H149508   4.590   9.455   8.807
16422WAT     H249509   4.645   9.603   8.767
16423WAT      O49510   6.673   0.622   3.768
16423WAT     H149511   6.745   0.562   3.804
16423WAT     H249512   6.604   0.637   3.838
16424WAT      O49513   1.625   4.832   5.696
16424WAT     H149514   1.619   4.909   5.633
16424WAT     H249515   1.721   4.813   5.717
16425WAT      O49516   4.359   8.830   0.791
16425WAT     H149517   4.427   8.799   0.725
16425WAT     H249518   4.303   8.902   0.750
16426WAT      O49519   3.168   9.366   2.879
16426WAT     H149520   3.151   9.330   2.787
16426WAT     H249521   3.263   9.349   2.905
16427WAT      O49522   0.351   2.962   2.654
16427WAT     H149523   0.417   3.034   2.675
16427WAT     H249524   0.398   2.882   2.617
16428WAT      O49525   7.039   3.004   4.757
16428WAT     H149526   6.983   3.086   4.744
16428WAT     H249527   7.104   3.020   4.831
16429WAT      O49528   5.453   2.075   8.141
16429WAT     H149529   5.521   2.142   8.171
16429WAT     H249530   5.420   2.024   8.220
16430WAT      O49531   2.213   9.150   5.015
16430WAT     H149532   2.239   9.201   5.097
16430WAT     H249533   2.230   9.053   5.029
16431WAT      O49534   8.808   4.267   1.194
16431WAT     H149535   8.710   4.286   1.193
16431WAT     H249536   8.840   4.262   1.288
16432WAT      O49537   1.928   1.146   9.125
16432WAT     H149538   1.865   1.193   9.188
16432WAT     H249539   1.895   1.155   9.031
16433WAT      O49540   8.813   5.804   6.862
16433WAT     H149541   8.806   5.870   6.938
16433WAT     H249542   8.863   5.723   6.893
16434WAT      O49543   2.531   3.966   4.986
16434WAT     H149544   2.560   3.891   5.045
16434WAT     H249545   2.611   4.017   4.954
16435WAT      O49546   6.796   5.382   1.129
16435WAT     H149547   6.879   5.366   1.183
16435WAT     H249548   6.819   5.378   1.031
16436WAT      O49549   8.866   9.691   3.049
16436WAT     H149550   8.916   9.674   3.134
16436WAT     H249551   8.932   9.708   2.975
16437WAT      O49552   2.705   5.861   5.769
16437WAT     H149553   2.657   5.917   5.837
16437WAT     H249554   2.804   5.865   5.787
16438WAT      O49555   6.241   3.508   4.323
16438WAT     H149556   6.219   3.416   4.291
16438WAT     H249557   6.202   3.576   4.261
16439WAT      O49558   1.251   8.841   1.443
16439WAT     H149559   1.225   8.880   1.355
16439WAT     H249560   1.295   8.912   1.499
16440WAT      O49561   5.694   6.809   5.021
16440WAT     H149562   5.692   6.878   4.948
16440WAT     H249563   5.786   6.771   5.029
16441WAT      O49564   9.210   9.007   3.950
16441WAT     H149565   9.155   8.964   3.879
16441WAT     H249566   9.201   8.955   4.035
16442WAT      O49567   3.653   7.699   6.013
16442WAT     H149568   3.568   7.645   6.012
16442WAT     H249569   3.691   7.703   5.920
16443WAT      O49570   7.334   5.734   0.633
16443WAT     H149571   7.362   5.642   0.605
16443WAT     H249572   7.338   5.741   0.733
16444WAT      O49573   2.100   9.697   8.775
16444WAT     H149574   2.052   9.661   8.855
16444WAT     H249575   2.043   9.683   8.694
16445WAT      O49576   7.935   4.124   8.720
16445WAT     H149577   7.922   4.172   8.633
16445WAT     H249578   8.030   4.095   8.729
16446WAT      O49579   5.283   2.005   7.015
16446WAT     H149580   5.206   2.040   7.067
16446WAT     H249581   5.368   2.026   7.064
16447WAT      O49582   2.302   1.649   8.028
16447WAT     H149583   2.349   1.630   7.942
16447WAT     H249584   2.349   1.602   8.103
16448WAT      O49585   2.292   9.172   8.090
16448WAT     H149586   2.352   9.104   8.131
16448WAT     H249587   2.198   9.155   8.120
16449WAT      O49588   5.994   3.576   2.727
16449WAT     H149589   5.898   3.551   2.712
16449WAT     H249590   6.025   3.637   2.655
16450WAT      O49591   6.554   7.422   3.716
16450WAT     H149592   6.576   7.506   3.764
16450WAT     H249593   6.507   7.444   3.630
16451WAT      O49594   2.844   8.780   7.082
16451WAT     H149595   2.780   8.822   7.017
16451WAT     H249596   2.794   8.716   7.141
16452WAT      O49597   6.218   1.933   2.837
16452WAT     H149598   6.169   1.847   2.828
16452WAT     H249599   6.226   1.957   2.934
16453WAT      O49600   7.276   6.576   0.673
16453WAT     H149601   7.320   6.638   0.607
16453WAT     H249602   7.237   6.498   0.624
16454WAT      O49603   9.091   9.110   9.884
16454WAT     H149604   9.030   9.179   9.924
16454WAT     H249605   9.051   9.019   9.897
16455WAT      O49606   5.501   1.120   5.762
16455WAT     H149607   5.450   1.040   5.792
16455WAT     H249608   5.465   1.152   5.675
16456WAT      O49609   1.312   3.377   0.830
16456WAT     H149610   1.336   3.473   0.820
16456WAT     H249611   1.272   3.361   0.921
16457WAT      O49612   4.365   0.263   4.462
16457WAT     H149613   4.306   0.244   4.541
16457WAT     H249614   4.448   0.310   4.493
16458WAT      O49615   5.803   0.046   2.166
16458WAT     H149616   5.824  -0.047   2.196
16458WAT     H249617   5.880   0.083   2.113
16459WAT      O49618   5.240   2.813   8.049
16459WAT     H149619   5.212   2.733   7.997
16459WAT     H249620   5.269   2.885   7.987
16460WAT      O49621   8.694   2.113   3.424
16460WAT     H149622   8.706   2.072   3.334
16460WAT     H249623   8.659   2.044   3.487
16461WAT      O49624   0.322   3.612   2.651
16461WAT     H149625   0.238   3.601   2.704
16461WAT     H249626   0.396   3.640   2.711
16462WAT      O49627   6.459   8.069   7.245
16462WAT     H149628   6.415   8.138   7.187
16462WAT     H249629   6.440   8.089   7.341
16463WAT      O49630   4.663   0.626   7.533
16463WAT     H149631   4.626   0.555   7.474
16463WAT     H249632   4.731   0.680   7.483
16464WAT      O49633   3.343   6.627   6.163
16464WAT     H149634   3.404   6.593   6.234
16464WAT     H249635   3.397   6.666   6.088
16465WAT      O49636   0.670   1.626   6.092
16465WAT     H149637   0.748   1.567   6.073
16465WAT     H249638   0.627   1.598   6.178
16466WAT      O49639   9.160   7.725   3.223
16466WAT     H149640   9.142   7.720   3.125
16466WAT     H249641   9.153   7.820   3.253
16467WAT      O49642   5.004   5.223   2.517
16467WAT     H149643   4.982   5.148   2.579
16467WAT     H249644   4.987   5.195   2.422
16468WAT      O49645   2.451   5.047   4.151
16468WAT     H149646   2.359   5.067   4.186
16468WAT     H249647   2.514   5.036   4.227
16469WAT      O49648   7.172   4.103   5.604
16469WAT     H149649   7.117   4.131   5.683
16469WAT     H249650   7.197   4.006   5.614
16470WAT      O49651   0.457   7.493   8.223
16470WAT     H149652   0.366   7.527   8.199
16470WAT     H249653   0.525   7.533   8.162
16471WAT      O49654   1.491   9.580   5.361
16471WAT     H149655   1.454   9.534   5.442
16471WAT     H249656   1.419   9.634   5.318
16472WAT      O49657   9.531   4.257   3.296
16472WAT     H149658   9.493   4.230   3.385
16472WAT     H249659   9.472   4.325   3.254
16473WAT      O49660   0.485   6.024   7.230
16473WAT     H149661   0.420   6.060   7.297
16473WAT     H249662   0.435   5.988   7.151
16474WAT      O49663   8.649   2.277   8.155
16474WAT     H149664   8.640   2.375   8.139
16474WAT     H249665   8.720   2.240   8.095
16475WAT      O49666   0.973   6.498   0.584
16475WAT     H149667   0.996   6.455   0.672
16475WAT     H249668   0.880   6.473   0.558
16476WAT      O49669   9.700   9.172   6.550
16476WAT     H149670   9.702   9.072   6.556
16476WAT     H249671   9.784   9.210   6.589
16477WAT      O49672   3.331   2.899   4.385
16477WAT     H149673   3.311   2.885   4.289
16477WAT     H249674   3.248   2.885   4.439
16478WAT      O49675   4.014   1.624   6.257
16478WAT     H149676   4.085   1.558   6.231
16478WAT     H249677   4.000   1.620   6.356
16479WAT      O49678   8.723   6.944   5.267
16479WAT     H149679   8.714   6.904   5.359
16479WAT     H249680   8.672   6.889   5.202
16480WAT      O49681   1.161   7.583   2.842
16480WAT     H149682   1.235   7.633   2.797
16480WAT     H249683   1.190   7.489   2.859
16481WAT      O49684   3.193   6.588   1.075
16481WAT     H149685   3.222   6.571   1.170
16481WAT     H249686   3.128   6.518   1.047
16482WAT      O49687   9.456   5.307   8.026
16482WAT     H149688   9.500   5.289   7.938
16482WAT     H249689   9.527   5.326   8.094
16483WAT      O49690   8.780   8.785   0.153
16483WAT     H149691   8.822   8.803   0.241
16483WAT     H249692   8.769   8.686   0.141
16484WAT      O49693   8.645   5.238   0.581
16484WAT     H149694   8.657   5.296   0.661
16484WAT     H249695   8.735   5.217   0.541
16485WAT      O49696   6.676   1.080   8.198
16485WAT     H149697   6.708   1.173   8.182
16485WAT     H249698   6.653   1.069   8.295
16486WAT      O49699   4.578   8.941   5.623
16486WAT     H149700   4.552   9.035   5.648
16486WAT     H249701   4.500   8.895   5.582
16487WAT      O49702   4.917   6.700   1.687
16487WAT     H149703   5.004   6.720   1.641
16487WAT     H249704   4.843   6.746   1.639
16488WAT      O49705   4.996   9.031   9.349
16488WAT     H149706   5.035   9.001   9.262
16488WAT     H249707   4.962   9.125   9.339
16489WAT      O49708   5.300   4.032   1.718
16489WAT     H149709   5.364   4.025   1.642
16489WAT     H249710   5.270   3.940   1.745
16490WAT      O49711   1.784   7.763   5.514
16490WAT     H149712   1.842   7.722   5.443
16490WAT     H249713   1.747   7.690   5.572
16491WAT      O49714   8.566   1.538   1.464
16491WAT     H149715   8.533   1.545   1.370
16491WAT     H249716   8.540   1.450   1.502
16492WAT      O49717   5.540   7.417   9.534
16492WAT     H149718   5.442   7.402   9.545
16492WAT     H249719   5.559   7.448   9.441
16493WAT      O49720   1.308   6.799   2.443
16493WAT     H149721   1.286   6.805   2.541
16493WAT     H249722   1.265   6.718   2.404
16494WAT      O49723   5.413   7.587   0.500
16494WAT     H149724   5.414   7.658   0.570
16494WAT     H249725   5.370   7.505   0.536
16495WAT      O49726   5.906   8.720   3.053
16495WAT     H149727   5.873   8.810   3.023
16495WAT     H249728   5.995   8.730   3.097
16496WAT      O49729   9.260   5.494   2.466
16496WAT     H149730   9.170   5.481   2.508
16496WAT     H249731   9.332   5.475   2.533
16497WAT      O49732   3.663   1.480   2.192
16497WAT     H149733   3.689   1.486   2.289
16497WAT     H249734   3.631   1.387   2.173
16498WAT      O49735   7.559   8.929   3.487
16498WAT     H149736   7.590   8.869   3.413
16498WAT     H249737   7.588   9.023   3.467
16499WAT      O49738   6.359   0.580   6.065
16499WAT     H149739   6.440   0.635   6.043
16499WAT     H249740   6.368   0.544   6.158
16500WAT      O49741   2.189   6.241   3.481
16500WAT     H149742   2.166   6.244   3.384
16500WAT     H249743   2.143   6.163   3.524
16501WAT      O49744   7.416   7.175   2.887
16501WAT     H149745   7.503   7.225   2.887
16501WAT     H249746   7.431   7.082   2.854
16502WAT      O49747   1.465   9.051   0.912
16502WAT     H149748   1.407   9.052   0.831
16502WAT     H249749   1.430   8.983   0.977
16503WAT      O49750   8.497   7.527   2.665
16503WAT     H149751   8.543   7.483   2.588
16503WAT     H249752   8.565   7.577   2.720
16504WAT      O49753   6.215   0.169   2.451
16504WAT     H149754   6.225   0.166   2.351
16504WAT     H249755   6.304   0.188   2.493
16505WAT      O49756   2.860   5.550   3.023
16505WAT     H149757   2.883   5.622   2.957
16505WAT     H249758   2.768   5.515   3.003
16506WAT      O49759   2.881   6.426   9.757
16506WAT     H149760   2.884   6.486   9.677
16506WAT     H249761   2.829   6.343   9.735
16507WAT      O49762  -0.003   1.571   5.744
16507WAT     H149763   0.029   1.534   5.831
16507WAT     H249764   0.045   1.657   5.724
16508WAT      O49765   4.788   7.372   2.867
16508WAT     H149766   4.885   7.383   2.846
16508WAT     H249767   4.770   7.404   2.959
16509WAT      O49768   0.758   3.670   3.391
16509WAT     H149769   0.729   3.736   3.460
16509WAT     H249770   0.848   3.633   3.416
16510WAT      O49771   3.775   8.749   0.714
16510WAT     H149772   3.830   8.666   0.714
16510WAT     H249773   3.831   8.827   0.686
16511WAT      O49774   8.028   3.743   2.385
16511WAT     H149775   8.049   3.684   2.307
16511WAT     H249776   8.030   3.838   2.357
16512WAT      O49777   5.138   5.479   0.986
16512WAT     H149778   5.065   5.467   1.053
16512WAT     H249779   5.226   5.480   1.032
16513WAT      O49780   7.052   3.151   3.468
16513WAT     H149781   7.129   3.201   3.507
16513WAT     H249782   7.046   3.171   3.370
16514WAT      O49783   9.615   5.889   0.423
16514WAT     H149784   9.570   5.885   0.333
16514WAT     H249785   9.604   5.800   0.469
16515WAT      O49786   1.830   5.123   9.199
16515WAT     H149787   1.761   5.055   9.174
16515WAT     H249788   1.786   5.200   9.246
16516WAT      O49789   7.889   8.477   8.860
16516WAT     H149790   7.827   8.541   8.815
16516WAT     H249791   7.856   8.383   8.847
16517WAT      O49792   7.230   5.399   5.514
16517WAT     H149793   7.328   5.387   5.532
16517WAT     H249794   7.179   5.331   5.566
16518WAT      O49795   4.440   1.498   2.531
16518WAT     H149796   4.496   1.579   2.545
16518WAT     H249797   4.443   1.441   2.613
16519WAT      O49798   2.923   1.003   6.922
16519WAT     H149799   2.961   1.050   6.842
16519WAT     H249800   2.838   1.049   6.950
16520WAT      O49801   0.913   8.141   0.663
16520WAT     H149802   0.938   8.220   0.608
16520WAT     H249803   0.816   8.121   0.650
16521WAT      O49804   4.074   9.379   1.901
16521WAT     H149805   4.122   9.292   1.890
16521WAT     H249806   3.985   9.373   1.856
16522WAT      O49807   6.206   3.535   8.848
16522WAT     H149808   6.205   3.456   8.787
16522WAT     H249809   6.131   3.597   8.823
16523WAT      O49810   1.059   2.405   4.612
16523WAT     H149811   0.962   2.393   4.635
16523WAT     H249812   1.070   2.485   4.554
16524WAT      O49813   6.159   1.631   9.028
16524WAT     H149814   6.211   1.562   9.078
16524WAT     H249815   6.078   1.589   8.987
16525WAT      O49816   5.779   8.763   2.719
16525WAT     H149817   5.876   8.738   2.721
16525WAT     H249818   5.759   8.807   2.631
16526WAT      O49819   2.972   7.653   0.388
16526WAT     H149820   2.959   7.617   0.480
16526WAT     H249821   3.064   7.694   0.381
16527WAT      O49822   0.685   7.930   9.276
16527WAT     H149823   0.597   7.977   9.281
16527WAT     H249824   0.759   7.997   9.270
16528WAT      O49825   8.400   2.437   8.413
16528WAT     H149826   8.397   2.514   8.350
16528WAT     H249827   8.312   2.389   8.412
16529WAT      O49828   6.925   2.866   8.420
16529WAT     H149829   7.000   2.846   8.484
16529WAT     H249830   6.856   2.921   8.467
16530WAT      O49831   7.240   9.115   1.631
16530WAT     H149832   7.223   9.019   1.655
16530WAT     H249833   7.209   9.174   1.706
16531WAT      O49834   2.407   8.582   8.625
16531WAT     H149835   2.365   8.671   8.646
16531WAT     H249836   2.480   8.564   8.691
16532WAT      O49837   5.889   3.866   4.780
16532WAT     H149838   5.902   3.780   4.731
16532WAT     H249839   5.816   3.856   4.848
16533WAT      O49840   6.200   8.281   7.473
16533WAT     H149841   6.145   8.350   7.520
16533WAT     H249842   6.143   8.231   7.409
16534WAT      O49843   2.399   4.976   8.926
16534WAT     H149844   2.366   4.935   9.011
16534WAT     H249845   2.362   5.069   8.918
16535WAT      O49846   6.734   6.260   1.522
16535WAT     H149847   6.794   6.242   1.600
16535WAT     H249848   6.644   6.220   1.539
16536WAT      O49849   0.177   8.477   2.479
16536WAT     H149850   0.218   8.537   2.409
16536WAT     H249851   0.077   8.486   2.476
16537WAT      O49852   3.413   1.232   0.420
16537WAT     H149853   3.508   1.264   0.415
16537WAT     H249854   3.351   1.309   0.407
16538WAT      O49855   8.072   7.880   1.622
16538WAT     H149856   8.133   7.895   1.700
16538WAT     H249857   7.982   7.852   1.654
16539WAT      O49858   9.133   1.260   7.871
16539WAT     H149859   9.118   1.166   7.901
16539WAT     H249860   9.183   1.311   7.941
16540WAT      O49861   0.358   6.022   3.077
16540WAT     H149862   0.378   6.096   3.141
16540WAT     H249863   0.326   6.061   2.991
16541WAT      O49864   3.728   3.451   9.592
16541WAT     H149865   3.758   3.486   9.504
16541WAT     H249866   3.775   3.499   9.665
16542WAT      O49867   9.462   3.258   5.591
16542WAT     H149868   9.548   3.207   5.591
16542WAT     H249869   9.394   3.209   5.536
16543WAT      O49870   6.222   3.881   8.664
16543WAT     H149871   6.199   3.858   8.570
16543WAT     H249872   6.316   3.855   8.684
16544WAT      O49873   1.379   3.677   4.441
16544WAT     H149874   1.402   3.649   4.534
16544WAT     H249875   1.299   3.625   4.409
16545WAT      O49876   4.346   1.509   4.261
16545WAT     H149877   4.417   1.449   4.296
16545WAT     H249878   4.321   1.576   4.330
16546WAT      O49879   6.697   7.123   5.960
16546WAT     H149880   6.655   7.105   5.871
16546WAT     H249881   6.786   7.166   5.947
16547WAT      O49882   9.316   9.080   1.917
16547WAT     H149883   9.414   9.082   1.900
16547WAT     H249884   9.285   9.170   1.948
16548WAT      O49885   8.032   4.061   9.613
16548WAT     H149886   7.958   4.012   9.566
16548WAT     H249887   8.003   4.154   9.634
16549WAT      O49888   8.213   6.220   2.839
16549WAT     H149889   8.189   6.193   2.745
16549WAT     H249890   8.254   6.142   2.886
16550WAT      O49891   5.490   0.609   1.551
16550WAT     H149892   5.470   0.636   1.645
16550WAT     H249893   5.553   0.532   1.551
16551WAT      O49894   0.565   0.545   6.917
16551WAT     H149895   0.662   0.546   6.894
16551WAT     H249896   0.518   0.478   6.859
16552WAT      O49897   3.114   2.361   1.776
16552WAT     H149898   3.047   2.305   1.727
16552WAT     H249899   3.091   2.365   1.873
16553WAT      O49900   2.370   2.111   2.369
16553WAT     H149901   2.423   2.064   2.299
16553WAT     H249902   2.384   2.210   2.361
16554WAT      O49903   2.321   5.525   6.884
16554WAT     H149904   2.309   5.609   6.830
16554WAT     H249905   2.395   5.538   6.950
16555WAT      O49906   0.602   2.389   5.049
16555WAT     H149907   0.655   2.472   5.032
16555WAT     H249908   0.651   2.310   5.011
16556WAT      O49909   6.026   9.725   9.585
16556WAT     H149910   6.060   9.819   9.578
16556WAT     H249911   6.023   9.698   9.681
16557WAT      O49912   5.971   2.583   1.033
16557WAT     H149913   5.904   2.545   0.968
16557WAT     H249914   6.063   2.570   0.996
16558WAT      O49915   6.459   3.378   5.618
16558WAT     H149916   6.551   3.381   5.581
16558WAT     H249917   6.434   3.467   5.655
16559WAT      O49918   1.832   7.250   4.780
16559WAT     H149919   1.744   7.216   4.747
16559WAT     H249920   1.816   7.314   4.855
16560WAT      O49921   3.375   5.490   6.755
16560WAT     H149922   3.401   5.500   6.658
16560WAT     H249923   3.401   5.573   6.804
16561WAT      O49924   5.118   0.395   4.955
16561WAT     H149925   5.162   0.466   4.900
16561WAT     H249926   5.019   0.408   4.953
16562WAT      O49927   2.819   5.378   4.003
16562WAT     H149928   2.873   5.388   3.919
16562WAT     H249929   2.737   5.325   3.984
16563WAT      O49930   6.545   0.442   3.611
16563WAT     H149931   6.576   0.504   3.683
16563WAT     H249932   6.613   0.371   3.596
16564WAT      O49933   1.818   3.568   4.846
16564WAT     H149934   1.737   3.621   4.872
16564WAT     H249935   1.828   3.568   4.747
16565WAT      O49936   7.193   4.342   4.256
16565WAT     H149937   7.286   4.374   4.274
16565WAT     H249938   7.138   4.351   4.339
16566WAT      O49939   7.124   2.443   5.871
16566WAT     H149940   7.109   2.521   5.932
16566WAT     H249941   7.190   2.381   5.913
16567WAT      O49942   0.929   7.579   4.115
16567WAT     H149943   0.997   7.536   4.175
16567WAT     H249944   0.853   7.614   4.169
16568WAT      O49945   2.979   8.435   5.329
16568WAT     H149946   2.998   8.529   5.300
16568WAT     H249947   2.943   8.435   5.422
16569WAT      O49948   1.114   8.033   7.077
16569WAT     H149949   1.077   8.066   6.990
16569WAT     H249950   1.214   8.039   7.074
16570WAT      O49951   4.420   2.590   9.476
16570WAT     H149952   4.448   2.511   9.422
16570WAT     H249953   4.462   2.673   9.439
16571WAT      O49954   9.816   4.558   7.562
16571WAT     H149955   9.899   4.585   7.514
16571WAT     H249956   9.776   4.638   7.606
16572WAT      O49957   7.977   1.335   2.504
16572WAT     H149958   7.937   1.349   2.413
16572WAT     H249959   7.967   1.239   2.530
16573WAT      O49960   7.751   3.274   9.109
16573WAT     H149961   7.687   3.264   9.185
16573WAT     H249962   7.832   3.324   9.141
16574WAT      O49963   4.180   9.146   7.926
16574WAT     H149964   4.175   9.246   7.918
16574WAT     H249965   4.097   9.105   7.889
16575WAT      O49966   8.644   7.967   0.280
16575WAT     H149967   8.651   7.938   0.185
16575WAT     H249968   8.678   8.061   0.289
16576WAT      O49969   5.531   3.285   2.933
16576WAT     H149970   5.444   3.250   2.966
16576WAT     H249971   5.523   3.310   2.836
16577WAT      O49972   2.817   1.943   0.482
16577WAT     H149973   2.906   1.897   0.480
16577WAT     H249974   2.803   1.993   0.397
16578WAT      O49975   1.279   5.355   5.434
16578WAT     H149976   1.368   5.400   5.440
16578WAT     H249977   1.216   5.398   5.498
16579WAT      O49978   8.702   0.444   4.752
16579WAT     H149979   8.683   0.392   4.669
16579WAT     H249980   8.752   0.528   4.728
16580WAT      O49981   0.148   1.311   1.220
16580WAT     H149982   0.202   1.280   1.142
16580WAT     H249983   0.166   1.407   1.238
16581WAT      O49984   7.924   0.349   2.452
16581WAT     H149985   7.921   0.250   2.463
16581WAT     H249986   8.014   0.383   2.481
16582WAT      O49987   1.994   5.347   4.912
16582WAT     H149988   2.016   5.438   4.948
16582WAT     H249989   2.044   5.332   4.827
16583WAT      O49990   8.095   0.432   6.754
16583WAT     H149991   8.028   0.436   6.679
16583WAT     H249992   8.174   0.378   6.725
16584WAT      O49993   4.905   1.238   6.813
16584WAT     H149994   4.866   1.322   6.776
16584WAT     H249995   4.868   1.159   6.764
16585WAT      O49996   5.625   9.080   4.784
16585WAT     H149997   5.704   9.109   4.731
16585WAT     H249998   5.645   9.089   4.882
16586WAT      O49999   5.810   5.114   3.792
16586WAT     H150000   5.753   5.122   3.710
16586WAT     H250001   5.780   5.179   3.861
16587WAT      O50002   8.386   8.812   8.047
16587WAT     H150003   8.475   8.782   8.013
16587WAT     H250004   8.313   8.764   7.998
16588WAT      O50005   0.493   9.480   7.556
16588WAT     H150006   0.444   9.561   7.590
16588WAT     H250007   0.551   9.443   7.628
16589WAT      O50008   0.477   0.813   6.951
16589WAT     H150009   0.382   0.816   6.981
16589WAT     H250010   0.508   0.718   6.951
16590WAT      O50011   9.453   3.410   1.312
16590WAT     H150012   9.519   3.414   1.387
16590WAT     H250013   9.427   3.503   1.286
16591WAT      O50014   3.764   5.941   6.986
16591WAT     H150015   3.788   6.038   6.994
16591WAT     H250016   3.742   5.904   7.076
16592WAT      O50017   2.189   7.063   4.852
16592WAT     H150018   2.128   6.987   4.830
16592WAT     H250019   2.282   7.028   4.865
16593WAT      O50020   8.391   1.564   0.300
16593WAT     H150021   8.460   1.566   0.227
16593WAT     H250022   8.418   1.499   0.370
16594WAT      O50023   1.764   8.792   4.617
16594WAT     H150024   1.836   8.750   4.562
16594WAT     H250025   1.805   8.836   4.697
16595WAT      O50026   3.606   3.414   9.080
16595WAT     H150027   3.527   3.415   9.141
16595WAT     H250028   3.594   3.341   9.012
16596WAT      O50029   3.550   2.557   9.656
16596WAT     H150030   3.452   2.558   9.678
16596WAT     H250031   3.600   2.516   9.732
16597WAT      O50032   8.987   0.880   0.676
16597WAT     H150033   9.080   0.860   0.645
16597WAT     H250034   8.987   0.964   0.730
16598WAT      O50035   8.361   4.159   9.034
16598WAT     H150036   8.281   4.104   9.060
16598WAT     H250037   8.441   4.099   9.026
16599WAT      O50038   1.319   4.355   5.994
16599WAT     H150039   1.415   4.330   6.005
16599WAT     H250040   1.289   4.408   6.073
16600WAT      O50041   1.147   6.358   7.893
16600WAT     H150042   1.242   6.352   7.923
16600WAT     H250043   1.106   6.266   7.893
16601WAT      O50044   1.949   7.556   6.555
16601WAT     H150045   2.029   7.584   6.502
16601WAT     H250046   1.866   7.574   6.503
16602WAT      O50047   9.135   1.283   7.352
16602WAT     H150048   9.203   1.210   7.344
16602WAT     H250049   9.177   1.363   7.393
16603WAT      O50050   3.967   3.967   6.399
16603WAT     H150051   3.880   4.017   6.401
16603WAT     H250052   4.034   4.020   6.347
16604WAT      O50053   3.815   4.655   2.329
16604WAT     H150054   3.850   4.564   2.307
16604WAT     H250055   3.743   4.648   2.397
16605WAT      O50056   1.627   8.317   7.903
16605WAT     H150057   1.644   8.404   7.950
16605WAT     H250058   1.536   8.318   7.861
16606WAT      O50059   5.259   7.844   3.034
16606WAT     H150060   5.343   7.877   3.077
16606WAT     H250061   5.277   7.756   2.990
16607WAT      O50062   7.763   2.338   0.501
16607WAT     H150063   7.721   2.286   0.427
16607WAT     H250064   7.732   2.433   0.497
16608WAT      O50065   2.831   5.159   4.867
16608WAT     H150066   2.861   5.194   4.956
16608WAT     H250067   2.797   5.235   4.812
16609WAT      O50068   7.123   3.608   5.407
16609WAT     H150069   7.159   3.696   5.375
16609WAT     H250070   7.184   3.570   5.477
16610WAT      O50071   0.351   2.403   0.172
16610WAT     H150072   0.307   2.491   0.161
16610WAT     H250073   0.417   2.408   0.247
16611WAT      O50074   6.395   5.663   0.930
16611WAT     H150075   6.303   5.681   0.965
16611WAT     H250076   6.412   5.564   0.932
16612WAT      O50077   3.115   5.614   7.853
16612WAT     H150078   3.026   5.640   7.890
16612WAT     H250079   3.103   5.539   7.788
16613WAT      O50080   2.870   0.653   7.735
16613WAT     H150081   2.952   0.686   7.687
16613WAT     H250082   2.835   0.725   7.794
16614WAT      O50083   1.791   3.554   4.533
16614WAT     H150084   1.878   3.602   4.519
16614WAT     H250085   1.725   3.584   4.464
16615WAT      O50086   4.084   5.288   9.349
16615WAT     H150087   4.105   5.369   9.404
16615WAT     H250088   4.167   5.257   9.303
16616WAT      O50089   0.826   2.094   6.799
16616WAT     H150090   0.880   2.090   6.884
16616WAT     H250091   0.865   2.030   6.733
16617WAT      O50092   4.985   7.417   8.976
16617WAT     H150093   4.987   7.337   9.036
16617WAT     H250094   4.923   7.400   8.899
16618WAT      O50095   4.846   6.497   4.224
16618WAT     H150096   4.756   6.490   4.267
16618WAT     H250097   4.856   6.587   4.182
16619WAT      O50098   5.623   5.882   9.023
16619WAT     H150099   5.623   5.927   9.113
16619WAT     H250100   5.529   5.874   8.990
16620WAT      O50101   0.594   3.921   9.591
16620WAT     H150102   0.587   4.002   9.532
16620WAT     H250103   0.504   3.899   9.628
16621WAT      O50104   5.095   3.271   0.253
16621WAT     H150105   5.031   3.309   0.320
16621WAT     H250106   5.066   3.297   0.161
16622WAT      O50107   8.365   0.999   2.930
16622WAT     H150108   8.459   0.970   2.908
16622WAT     H250109   8.366   1.094   2.961
16623WAT      O50110   7.959   5.793   6.475
16623WAT     H150111   7.865   5.802   6.506
16623WAT     H250112   8.014   5.866   6.515
16624WAT      O50113   0.567   1.723   5.400
16624WAT     H150114   0.575   1.647   5.464
16624WAT     H250115   0.589   1.809   5.446
16625WAT      O50116   9.823   3.614   0.477
16625WAT     H150117   9.723   3.615   0.479
16625WAT     H250118   9.856   3.526   0.511
16626WAT      O50119   9.586   8.532   1.505
16626WAT     H150120   9.490   8.561   1.504
16626WAT     H250121   9.645   8.612   1.519
16627WAT      O50122   1.906   4.555   5.908
16627WAT     H150123   1.954   4.505   5.980
16627WAT     H250124   1.807   4.543   5.920
16628WAT      O50125   8.744   5.260   7.633
16628WAT     H150126   8.756   5.161   7.635
16628WAT     H250127   8.659   5.283   7.584
16629WAT      O50128   5.345   6.034   8.047
16629WAT     H150129   5.250   6.006   8.034
16629WAT     H250130   5.394   5.965   8.099
16630WAT      O50131   8.253   7.812   9.046
16630WAT     H150132   8.264   7.852   8.955
16630WAT     H250133   8.156   7.794   9.062
16631WAT      O50134   1.812   2.899   3.746
16631WAT     H150135   1.819   2.998   3.763
16631WAT     H250136   1.718   2.870   3.762
16632WAT      O50137   1.594   8.794   2.222
16632WAT     H150138   1.588   8.892   2.240
16632WAT     H250139   1.531   8.745   2.283
16633WAT      O50140   2.578   5.795   1.373
16633WAT     H150141   2.609   5.762   1.462
16633WAT     H250142   2.575   5.895   1.374
16634WAT      O50143   9.435   9.010   2.227
16634WAT     H150144   9.527   9.044   2.204
16634WAT     H250145   9.409   8.938   2.162
16635WAT      O50146   6.517   3.328   6.971
16635WAT     H150147   6.595   3.293   7.022
16635WAT     H250148   6.486   3.259   6.906
16636WAT      O50149   7.450   3.470   9.295
16636WAT     H150150   7.514   3.404   9.335
16636WAT     H250151   7.368   3.422   9.263
16637WAT      O50152   5.343   2.719   9.387
16637WAT     H150153   5.418   2.736   9.324
16637WAT     H250154   5.275   2.792   9.378
16638WAT      O50155   5.366   2.473   7.129
16638WAT     H150156   5.395   2.389   7.176
16638WAT     H250157   5.270   2.464   7.102
16639WAT      O50158   7.151   4.749   0.085
16639WAT     H150159   7.099   4.746   0.171
16639WAT     H250160   7.221   4.678   0.087
16640WAT      O50161   6.725   1.450   3.367
16640WAT     H150162   6.795   1.517   3.393
16640WAT     H250163   6.761   1.390   3.296
16641WAT      O50164   5.072   4.448   7.527
16641WAT     H150165   5.169   4.465   7.509
16641WAT     H250166   5.018   4.521   7.486
16642WAT      O50167   2.379   1.378   3.769
16642WAT     H150168   2.455   1.441   3.750
16642WAT     H250169   2.303   1.429   3.810
16643WAT      O50170   7.336   2.700   7.292
16643WAT     H150171   7.271   2.750   7.235
16643WAT     H250172   7.287   2.652   7.365
16644WAT      O50173   6.050   7.419   6.384
16644WAT     H150174   6.031   7.461   6.295
16644WAT     H250175   6.140   7.376   6.382
16645WAT      O50176   6.427   8.709   0.247
16645WAT     H150177   6.365   8.661   0.308
16645WAT     H250178   6.511   8.732   0.297
16646WAT      O50179   6.736   2.136   1.580
16646WAT     H150180   6.815   2.189   1.551
16646WAT     H250181   6.720   2.061   1.516
16647WAT      O50182   9.308   7.457   4.723
16647WAT     H150183   9.296   7.511   4.640
16647WAT     H250184   9.344   7.515   4.795
16648WAT      O50185   7.919   5.011   3.687
16648WAT     H150186   7.982   5.089   3.687
16648WAT     H250187   7.881   4.999   3.778
16649WAT      O50188   1.677   2.667   5.029
16649WAT     H150189   1.765   2.715   5.029
16649WAT     H250190   1.657   2.635   5.122
16650WAT      O50191   1.922   7.751   3.160
16650WAT     H150192   1.988   7.756   3.085
16650WAT     H250193   1.965   7.784   3.244
16651WAT      O50194   1.366   6.941   7.515
16651WAT     H150195   1.319   7.028   7.529
16651WAT     H250196   1.314   6.885   7.451
16652WAT      O50197   2.538   4.486   7.878
16652WAT     H150198   2.531   4.467   7.780
16652WAT     H250199   2.633   4.508   7.900
16653WAT      O50200   4.392   3.814   8.236
16653WAT     H150201   4.478   3.864   8.245
16653WAT     H250202   4.337   3.828   8.318
16654WAT      O50203   8.433   8.060   1.941
16654WAT     H150204   8.508   8.003   1.974
16654WAT     H250205   8.368   8.075   2.016
16655WAT      O50206   0.392   6.184   1.222
16655WAT     H150207   0.484   6.221   1.207
16655WAT     H250208   0.324   6.256   1.206
16656WAT      O50209   1.433   8.333   2.730
16656WAT     H150210   1.355   8.359   2.673
16656WAT     H250211   1.403   8.314   2.823
16657WAT      O50212   4.776   7.497   8.394
16657WAT     H150213   4.868   7.537   8.401
16657WAT     H250214   4.782   7.398   8.407
16658WAT      O50215   5.554   5.161   3.001
16658WAT     H150216   5.610   5.232   3.044
16658WAT     H250217   5.463   5.161   3.040
16659WAT      O50218   6.435   6.890   1.684
16659WAT     H150219   6.475   6.800   1.668
16659WAT     H250220   6.459   6.951   1.608
16660WAT      O50221   1.367   7.443   5.411
16660WAT     H150222   1.371   7.440   5.311
16660WAT     H250223   1.278   7.409   5.442
16661WAT      O50224   5.355   4.722   6.371
16661WAT     H150225   5.314   4.774   6.445
16661WAT     H250226   5.446   4.759   6.351
16662WAT      O50227   2.006   8.173   0.987
16662WAT     H150228   1.984   8.168   1.084
16662WAT     H250229   1.960   8.252   0.945
16663WAT      O50230   6.498   9.122   6.589
16663WAT     H150231   6.418   9.120   6.530
16663WAT     H250232   6.578   9.088   6.539
16664WAT      O50233   2.479   7.782   7.775
16664WAT     H150234   2.399   7.760   7.719
16664WAT     H250235   2.495   7.881   7.774
16665WAT      O50236   0.849   0.085   8.210
16665WAT     H150237   0.857   0.096   8.309
16665WAT     H250238   0.835  -0.011   8.188
16666WAT      O50239   5.541   9.215   7.170
16666WAT     H150240   5.545   9.312   7.191
16666WAT     H250241   5.507   9.164   7.250
16667WAT      O50242   7.983   7.534   8.519
16667WAT     H150243   7.970   7.537   8.618
16667WAT     H250244   8.011   7.442   8.491
16668WAT      O50245   2.828   6.756   4.215
16668WAT     H150246   2.805   6.823   4.286
16668WAT     H250247   2.789   6.667   4.239
16669WAT      O50248   2.629   7.219   5.285
16669WAT     H150249   2.716   7.266   5.269
16669WAT     H250250   2.557   7.263   5.232
16670WAT      O50251   2.921   1.821   9.067
16670WAT     H150252   2.903   1.723   9.064
16670WAT     H250253   2.883   1.864   8.985
16671WAT      O50254   8.787   0.502   1.485
16671WAT     H150255   8.734   0.555   1.551
16671WAT     H250256   8.801   0.409   1.519
16672WAT      O50257   2.989   1.088   4.554
16672WAT     H150258   2.972   1.124   4.463
16672WAT     H250259   2.912   1.111   4.614
16673WAT      O50260   9.679   4.970   1.231
16673WAT     H150261   9.579   4.968   1.225
16673WAT     H250262   9.711   5.063   1.214
16674WAT      O50263   8.911   9.007   2.354
16674WAT     H150264   8.954   9.002   2.264
16674WAT     H250265   8.812   8.997   2.344
16675WAT      O50266   8.266   6.607   7.370
16675WAT     H150267   8.219   6.684   7.327
16675WAT     H250268   8.214   6.523   7.352
16676WAT      O50269   6.522   1.678   9.219
16676WAT     H150270   6.477   1.601   9.263
16676WAT     H250271   6.598   1.645   9.163
16677WAT      O50272   0.040   5.261   8.633
16677WAT     H150273   0.080   5.255   8.724
16677WAT     H250274  -0.060   5.265   8.641
16678WAT      O50275   7.991   1.060   6.551
16678WAT     H150276   7.988   1.012   6.638
16678WAT     H250277   8.069   1.028   6.498
16679WAT      O50278   4.495   8.888   8.628
16679WAT     H150279   4.445   8.830   8.692
16679WAT     H250280   4.466   8.983   8.640
16680WAT      O50281   3.977   8.937   1.900
16680WAT     H150282   4.018   8.988   1.976
16680WAT     H250283   3.950   8.846   1.931
16681WAT      O50284   5.880   4.592   6.304
16681WAT     H150285   5.805   4.538   6.342
16681WAT     H250286   5.925   4.642   6.378
16682WAT      O50287   2.650   4.839   8.647
16682WAT     H150288   2.706   4.918   8.625
16682WAT     H250289   2.703   4.755   8.633
16683WAT      O50290   0.048   0.677   0.990
16683WAT     H150291   0.125   0.617   1.013
16683WAT     H250292   0.063   0.766   1.032
16684WAT      O50293   8.921   8.825   5.880
16684WAT     H150294   8.836   8.776   5.861
16684WAT     H250295   8.985   8.764   5.928
16685WAT      O50296   9.230   7.659   7.958
16685WAT     H150297   9.234   7.572   7.909
16685WAT     H250298   9.149   7.709   7.930
16686WAT      O50299   0.929   9.558   1.299
16686WAT     H150300   1.024   9.545   1.272
16686WAT     H250301   0.870   9.497   1.245
16687WAT      O50302   6.782   8.721   9.268
16687WAT     H150303   6.825   8.673   9.191
16687WAT     H250304   6.702   8.771   9.235
16688WAT      O50305   2.674   4.306   0.893
16688WAT     H150306   2.664   4.282   0.990
16688WAT     H250307   2.584   4.305   0.849
16689WAT      O50308   5.179   8.395   7.933
16689WAT     H150309   5.083   8.410   7.957
16689WAT     H250310   5.206   8.303   7.961
16690WAT      O50311   3.653   5.936   7.463
16690WAT     H150312   3.711   5.905   7.388
16690WAT     H250313   3.561   5.898   7.452
16691WAT      O50314   3.972   0.202   1.391
16691WAT     H150315   3.907   0.221   1.317
16691WAT     H250316   4.065   0.214   1.356
16692WAT      O50317   7.609   8.331   1.107
16692WAT     H150318   7.639   8.390   1.032
16692WAT     H250319   7.519   8.360   1.139
16693WAT      O50320   8.870   1.843   7.938
16693WAT     H150321   8.927   1.915   7.977
16693WAT     H250322   8.912   1.754   7.954
16694WAT      O50323   4.860   1.211   8.353
16694WAT     H150324   4.953   1.202   8.390
16694WAT     H250325   4.794   1.172   8.417
16695WAT      O50326   1.223   9.369   8.259
16695WAT     H150327   1.254   9.343   8.167
16695WAT     H250328   1.124   9.375   8.261
16696WAT      O50329   3.505   1.744   1.657
16696WAT     H150330   3.408   1.728   1.675
16696WAT     H250331   3.548   1.658   1.630
16697WAT      O50332   6.923   1.287   2.308
16697WAT     H150333   6.913   1.356   2.236
16697WAT     H250334   6.841   1.230   2.312
16698WAT      O50335   2.736   7.528   1.692
16698WAT     H150336   2.729   7.545   1.593
16698WAT     H250337   2.673   7.589   1.740
16699WAT      O50338   9.200   5.364   6.668
16699WAT     H150339   9.140   5.357   6.588
16699WAT     H250340   9.289   5.401   6.640
16700WAT      O50341   6.424   2.557   7.001
16700WAT     H150342   6.374   2.498   6.937
16700WAT     H250343   6.478   2.623   6.949
16701WAT      O50344   6.688   2.217   5.005
16701WAT     H150345   6.665   2.271   4.924
16701WAT     H250346   6.787   2.224   5.022
16702WAT      O50347   5.646   8.088   2.146
16702WAT     H150348   5.582   8.135   2.086
16702WAT     H250349   5.668   8.146   2.225
16703WAT      O50350   6.082   0.745   2.925
16703WAT     H150351   6.013   0.795   2.872
16703WAT     H250352   6.135   0.687   2.864
16704WAT      O50353   1.892   2.435   6.321
16704WAT     H150354   1.840   2.478   6.247
16704WAT     H250355   1.948   2.503   6.367
16705WAT      O50356   6.925   1.054   8.552
16705WAT     H150357   6.845   1.058   8.612
16705WAT     H250358   6.930   1.138   8.497
16706WAT      O50359   4.601   8.670   9.645
16706WAT     H150360   4.537   8.595   9.660
16706WAT     H250361   4.595   8.700   9.550
16707WAT      O50362   1.225   4.643   7.855
16707WAT     H150363   1.294   4.574   7.835
16707WAT     H250364   1.218   4.706   7.777
16708WAT      O50365   7.013   2.827   8.142
16708WAT     H150366   6.999   2.818   8.241
16708WAT     H250367   6.926   2.845   8.097
16709WAT      O50368   8.447   2.421   4.989
16709WAT     H150369   8.366   2.472   5.020
16709WAT     H250370   8.529   2.474   5.010
16710WAT      O50371   2.218   4.102   6.208
16710WAT     H150372   2.300   4.046   6.222
16710WAT     H250373   2.187   4.138   6.296
16711WAT      O50374   1.756   0.204   5.362
16711WAT     H150375   1.727   0.113   5.391
16711WAT     H250376   1.855   0.204   5.346
16712WAT      O50377   3.448   7.768   5.138
16712WAT     H150378   3.485   7.748   5.229
16712WAT     H250379   3.385   7.696   5.111
16713WAT      O50380   5.467   2.241   6.016
16713WAT     H150381   5.447   2.276   6.107
16713WAT     H250382   5.529   2.162   6.024
16714WAT      O50383   7.116   4.043   9.037
16714WAT     H150384   7.023   4.077   9.026
16714WAT     H250385   7.118   3.945   9.019
16715WAT      O50386   5.212   1.393   9.840
16715WAT     H150387   5.179   1.336   9.765
16715WAT     H250388   5.309   1.411   9.828
16716WAT      O50389   0.131   3.987   8.882
16716WAT     H150390   0.205   4.009   8.818
16716WAT     H250391   0.129   3.888   8.897
16717WAT      O50392   6.012   2.136   8.133
16717WAT     H150393   6.061   2.089   8.206
16717WAT     H250394   5.929   2.085   8.110
16718WAT      O50395   2.733   0.521   6.772
16718WAT     H150396   2.792   0.600   6.787
16718WAT     H250397   2.691   0.494   6.859
16719WAT      O50398   8.128   0.770   6.187
16719WAT     H150399   8.075   0.849   6.158
16719WAT     H250400   8.138   0.771   6.286
16720WAT      O50401   7.129   3.835   6.107
16720WAT     H150402   7.182   3.752   6.091
16720WAT     H250403   7.032   3.816   6.091
16721WAT      O50404   3.797   3.669   6.258
16721WAT     H150405   3.829   3.754   6.216
16721WAT     H250406   3.851   3.650   6.340
16722WAT      O50407   6.053   3.832   3.928
16722WAT     H150408   6.017   3.924   3.942
16722WAT     H250409   6.144   3.837   3.888
16723WAT      O50410   9.625   4.055   6.340
16723WAT     H150411   9.545   4.011   6.298
16723WAT     H250412   9.675   3.989   6.395
16724WAT      O50413   3.146   0.458   5.787
16724WAT     H150414   3.183   0.460   5.881
16724WAT     H250415   3.099   0.372   5.772
16725WAT      O50416   9.656   0.603   3.329
16725WAT     H150417   9.725   0.672   3.352
16725WAT     H250418   9.581   0.646   3.279
16726WAT      O50419   3.992   3.392   1.268
16726WAT     H150420   3.950   3.392   1.358
16726WAT     H250421   3.976   3.480   1.223
16727WAT      O50422   5.793   0.374   7.429
16727WAT     H150423   5.767   0.470   7.424
16727WAT     H250424   5.883   0.365   7.471
16728WAT      O50425   1.301   7.728   0.369
16728WAT     H150426   1.230   7.680   0.317
16728WAT     H250427   1.258   7.798   0.426
16729WAT      O50428   9.727   6.318   4.853
16729WAT     H150429   9.675   6.363   4.781
16729WAT     H250430   9.716   6.219   4.846
16730WAT      O50431   7.139   7.721   1.051
16730WAT     H150432   7.212   7.763   0.997
16730WAT     H250433   7.083   7.664   0.991
16731WAT      O50434   0.419   9.415   5.793
16731WAT     H150435   0.438   9.370   5.881
16731WAT     H250436   0.487   9.385   5.726
16732WAT      O50437   3.154   5.815   5.401
16732WAT     H150438   3.195   5.735   5.358
16732WAT     H250439   3.068   5.837   5.353
16733WAT      O50440   5.805   0.282   9.167
16733WAT     H150441   5.750   0.267   9.084
16733WAT     H250442   5.752   0.254   9.247
16734WAT      O50443   0.122   4.312   6.655
16734WAT     H150444   0.058   4.386   6.677
16734WAT     H250445   0.200   4.350   6.605
16735WAT      O50446   7.390   8.062   8.379
16735WAT     H150447   7.407   8.131   8.308
16735WAT     H250448   7.386   8.106   8.468
16736WAT      O50449   6.978   6.081   5.671
16736WAT     H150450   6.925   6.081   5.586
16736WAT     H250451   6.947   6.156   5.730
16737WAT      O50452   7.253   0.178   3.377
16737WAT     H150453   7.174   0.162   3.320
16737WAT     H250454   7.272   0.097   3.433
16738WAT      O50455   4.424   2.324   1.831
16738WAT     H150456   4.444   2.235   1.790
16738WAT     H250457   4.325   2.337   1.837
16739WAT      O50458   9.488   0.791   9.719
16739WAT     H150459   9.491   0.888   9.740
16739WAT     H250460   9.541   0.773   9.636
16740WAT      O50461   5.726   5.973   4.488
16740WAT     H150462   5.735   6.071   4.506
16740WAT     H250463   5.815   5.937   4.459
16741WAT      O50464   3.408   9.144   2.409
16741WAT     H150465   3.485   9.166   2.349
16741WAT     H250466   3.433   9.069   2.470
16742WAT      O50467   1.955   9.811   9.493
16742WAT     H150468   2.020   9.762   9.551
16742WAT     H250469   1.875   9.753   9.477
16743WAT      O50470   3.123   8.963   7.519
16743WAT     H150471   3.214   8.940   7.554
16743WAT     H250472   3.133   9.005   7.428
16744WAT      O50473   2.120   8.403   2.577
16744WAT     H150474   2.211   8.390   2.538
16744WAT     H250475   2.055   8.426   2.504
16745WAT      O50476   7.139   1.701   9.170
16745WAT     H150477   7.151   1.602   9.177
16745WAT     H250478   7.178   1.745   9.250
16746WAT      O50479   1.269   6.392   2.766
16746WAT     H150480   1.301   6.360   2.677
16746WAT     H250481   1.344   6.441   2.812
16747WAT      O50482   8.136   7.145   3.067
16747WAT     H150483   8.132   7.053   3.105
16747WAT     H250484   8.217   7.193   3.101
16748WAT      O50485   6.255   8.449   0.936
16748WAT     H150486   6.183   8.512   0.962
16748WAT     H250487   6.322   8.442   1.011
16749WAT      O50488   4.548   0.712   5.980
16749WAT     H150489   4.456   0.716   5.942
16749WAT     H250490   4.611   0.761   5.920
16750WAT      O50491   3.306   8.706   1.376
16750WAT     H150492   3.327   8.769   1.451
16750WAT     H250493   3.217   8.729   1.337
16751WAT      O50494   8.812   2.850   3.122
16751WAT     H150495   8.789   2.947   3.130
16751WAT     H250496   8.901   2.841   3.076
16752WAT      O50497   8.547   2.775   6.416
16752WAT     H150498   8.493   2.799   6.335
16752WAT     H250499   8.488   2.778   6.497
16753WAT      O50500   4.232   1.059   4.769
16753WAT     H150501   4.298   1.099   4.833
16753WAT     H250502   4.244   1.101   4.679
16754WAT      O50503   6.858   8.516   7.549
16754WAT     H150504   6.760   8.496   7.541
16754WAT     H250505   6.873   8.579   7.624
16755WAT      O50506   2.472   4.927   6.160
16755WAT     H150507   2.411   4.974   6.096
16755WAT     H250508   2.488   4.833   6.128
16756WAT      O50509   8.079   3.516   7.781
16756WAT     H150510   8.028   3.557   7.705
16756WAT     H250511   8.169   3.559   7.788
16757WAT      O50512   5.026   7.648   2.868
16757WAT     H150513   4.946   7.707   2.864
16757WAT     H250514   5.092   7.677   2.799
16758WAT      O50515   6.787   6.962   4.446
16758WAT     H150516   6.797   6.934   4.351
16758WAT     H250517   6.691   6.981   4.466
16759WAT      O50518   6.019   1.618   6.568
16759WAT     H150519   6.054   1.564   6.491
16759WAT     H250520   6.040   1.571   6.653
16760WAT      O50521   7.822   6.618   3.206
16760WAT     H150522   7.820   6.644   3.109
16760WAT     H250523   7.911   6.579   3.229
16761WAT      O50524   4.354   2.577   0.757
16761WAT     H150525   4.306   2.585   0.670
16761WAT     H250526   4.303   2.515   0.817
16762WAT      O50527   2.255   5.129   0.298
16762WAT     H150528   2.336   5.138   0.355
16762WAT     H250529   2.173   5.149   0.353
16763WAT      O50530   1.231   9.515   2.186
16763WAT     H150531   1.247   9.533   2.283
16763WAT     H250532   1.299   9.449   2.154
16764WAT      O50533   9.477   5.585   6.946
16764WAT     H150534   9.497   5.492   6.976
16764WAT     H250535   9.557   5.623   6.899
16765WAT      O50536   4.443   3.414   8.976
16765WAT     H150537   4.402   3.339   8.923
16765WAT     H250538   4.394   3.423   9.063
16766WAT      O50539   4.472   4.718   0.229
16766WAT     H150540   4.556   4.724   0.283
16766WAT     H250541   4.400   4.770   0.275
16767WAT      O50542   0.609   7.375   2.490
16767WAT     H150543   0.669   7.431   2.548
16767WAT     H250544   0.660   7.298   2.453
16768WAT      O50545   1.894   9.440   9.321
16768WAT     H150546   1.986   9.479   9.323
16768WAT     H250547   1.889   9.363   9.384
16769WAT      O50548   3.860   4.986   4.534
16769WAT     H150549   3.913   4.901   4.541
16769WAT     H250550   3.868   5.037   4.619
16770WAT      O50551   1.533   1.822   3.837
16770WAT     H150552   1.436   1.844   3.851
16770WAT     H250553   1.552   1.814   3.739
16771WAT      O50554   9.858   7.637   4.309
16771WAT     H150555   9.819   7.547   4.328
16771WAT     H250556   9.788   7.697   4.270
16772WAT      O50557   5.603   5.911   9.783
16772WAT     H150558   5.678   5.900   9.718
16772WAT     H250559   5.516   5.909   9.734
16773WAT      O50560   3.281   0.703   1.054
16773WAT     H150561   3.244   0.676   1.142
16773WAT     H250562   3.344   0.633   1.020
16774WAT      O50563   2.594   4.417   6.917
16774WAT     H150564   2.540   4.332   6.917
16774WAT     H250565   2.670   4.408   6.854
16775WAT      O50566   6.145   1.828   6.991
16775WAT     H150567   6.203   1.873   6.925
16775WAT     H250568   6.124   1.735   6.960
16776WAT      O50569   0.561   7.742   9.684
16776WAT     H150570   0.534   7.678   9.613
16776WAT     H250571   0.637   7.799   9.652
16777WAT      O50572   9.731   4.176   7.561
16777WAT     H150573   9.760   4.184   7.656
16777WAT     H250574   9.797   4.221   7.501
16778WAT      O50575   0.925   5.453   7.319
16778WAT     H150576   0.942   5.409   7.231
16778WAT     H250577   0.831   5.432   7.349
16779WAT      O50578   6.311   2.556   4.765
16779WAT     H150579   6.276   2.524   4.853
16779WAT     H250580   6.375   2.488   4.729
16780WAT      O50581   8.649   2.821   4.314
16780WAT     H150582   8.686   2.879   4.386
16780WAT     H250583   8.646   2.726   4.345
16781WAT      O50584   6.684   2.444   8.272
16781WAT     H150585   6.683   2.397   8.184
16781WAT     H250586   6.712   2.539   8.259
16782WAT      O50587   3.396   4.072   9.022
16782WAT     H150588   3.305   4.042   9.049
16782WAT     H250589   3.436   4.006   8.959
16783WAT      O50590   6.245   1.590   7.608
16783WAT     H150591   6.167   1.532   7.587
16783WAT     H250592   6.248   1.608   7.706
16784WAT      O50593   8.320   3.198   9.161
16784WAT     H150594   8.346   3.194   9.065
16784WAT     H250595   8.385   3.257   9.211
16785WAT      O50596   2.820   2.514   5.735
16785WAT     H150597   2.787   2.538   5.827
16785WAT     H250598   2.919   2.501   5.738
16786WAT      O50599   2.660   8.825   3.328
16786WAT     H150600   2.743   8.785   3.288
16786WAT     H250601   2.652   8.797   3.424
16787WAT      O50602   9.161   4.463   0.390
16787WAT     H150603   9.220   4.398   0.438
16787WAT     H250604   9.185   4.463   0.293
16788WAT      O50605   8.595   6.295   3.916
16788WAT     H150606   8.574   6.367   3.982
16788WAT     H250607   8.643   6.335   3.838
16789WAT      O50608   7.545   5.877   3.285
16789WAT     H150609   7.541   5.976   3.284
16789WAT     H250610   7.640   5.847   3.276
16790WAT      O50611   7.629   6.917   5.930
16790WAT     H150612   7.691   6.957   5.997
16790WAT     H250613   7.561   6.861   5.978
16791WAT      O50614   0.057   9.119   6.993
16791WAT     H150615   0.083   9.181   7.067
16791WAT     H250616   0.074   9.024   7.021
16792WAT      O50617   4.323   8.381   7.963
16792WAT     H150618   4.341   8.421   8.053
16792WAT     H250619   4.236   8.331   7.966
16793WAT      O50620   4.319   5.368   3.682
16793WAT     H150621   4.250   5.343   3.614
16793WAT     H250622   4.380   5.437   3.644
16794WAT      O50623   4.932   0.383   7.786
16794WAT     H150624   4.907   0.292   7.820
16794WAT     H250625   5.016   0.377   7.732
16795WAT      O50626   8.039   5.991   2.045
16795WAT     H150627   8.101   6.049   1.992
16795WAT     H250628   8.076   5.899   2.052
16796WAT      O50629   8.726   3.293   1.033
16796WAT     H150630   8.773   3.359   1.091
16796WAT     H250631   8.760   3.301   0.939
16797WAT      O50632   8.439   8.360   1.442
16797WAT     H150633   8.400   8.379   1.352
16797WAT     H250634   8.538   8.352   1.435
16798WAT      O50635   6.710   8.944   5.187
16798WAT     H150636   6.751   8.981   5.271
16798WAT     H250637   6.727   8.846   5.182
16799WAT      O50638   2.605   8.226   2.076
16799WAT     H150639   2.544   8.152   2.106
16799WAT     H250640   2.664   8.253   2.152
16800WAT      O50641   6.335   3.135   3.899
16800WAT     H150642   6.352   3.230   3.923
16800WAT     H250643   6.357   3.076   3.978
16801WAT      O50644   6.904   6.061   2.966
16801WAT     H150645   6.999   6.071   2.997
16801WAT     H250646   6.867   6.151   2.943
16802WAT      O50647   4.732   6.114   9.872
16802WAT     H150648   4.653   6.168   9.900
16802WAT     H250649   4.763   6.144   9.781
16803WAT      O50650   1.570   2.547   9.017
16803WAT     H150651   1.599   2.506   8.931
16803WAT     H250652   1.555   2.475   9.085
16804WAT      O50653   5.441   4.939   2.358
16804WAT     H150654   5.353   4.979   2.382
16804WAT     H250655   5.510   5.011   2.350
16805WAT      O50656   2.850   3.578   1.700
16805WAT     H150657   2.928   3.521   1.678
16805WAT     H250658   2.767   3.539   1.660
16806WAT      O50659   9.055   4.085   2.147
16806WAT     H150660   9.114   4.030   2.206
16806WAT     H250661   8.962   4.084   2.183
16807WAT      O50662   0.188   5.851   3.772
16807WAT     H150663   0.096   5.826   3.741
16807WAT     H250664   0.235   5.771   3.807
16808WAT      O50665   7.094   6.322   9.608
16808WAT     H150666   7.137   6.361   9.689
16808WAT     H250667   7.010   6.373   9.586
16809WAT      O50668   5.722   0.325   4.077
16809WAT     H150669   5.635   0.280   4.095
16809WAT     H250670   5.795   0.275   4.124
16810WAT      O50671   3.448   9.524   2.999
16810WAT     H150672   3.449   9.424   3.001
16810WAT     H250673   3.384   9.558   3.068
16811WAT      O50674   3.664   0.970   6.905
16811WAT     H150675   3.576   0.929   6.927
16811WAT     H250676   3.717   0.982   6.989
16812WAT      O50677   1.278   5.262   6.729
16812WAT     H150678   1.260   5.233   6.823
16812WAT     H250679   1.365   5.222   6.698
16813WAT      O50680   2.046   0.412   9.763
16813WAT     H150681   2.050   0.346   9.688
16813WAT     H250682   2.063   0.504   9.728
16814WAT      O50683   4.315   5.994   0.227
16814WAT     H150684   4.407   5.999   0.265
16814WAT     H250685   4.300   5.903   0.190
16815WAT      O50686   7.693   0.768   6.332
16815WAT     H150687   7.637   0.767   6.250
16815WAT     H250688   7.651   0.828   6.401
16816WAT      O50689   3.517   4.871   0.929
16816WAT     H150690   3.535   4.805   0.856
16816WAT     H250691   3.542   4.830   1.017
16817WAT      O50692   4.024   2.066   1.573
16817WAT     H150693   4.065   2.146   1.528
16817WAT     H250694   3.926   2.065   1.556
16818WAT      O50695   3.392   8.196   6.071
16818WAT     H150696   3.380   8.100   6.096
16818WAT     H250697   3.483   8.227   6.100
16819WAT      O50698   5.345   6.973   3.337
16819WAT     H150699   5.339   6.897   3.401
16819WAT     H250700   5.300   7.053   3.375
16820WAT      O50701   4.697   7.902   7.169
16820WAT     H150702   4.767   7.961   7.210
16820WAT     H250703   4.608   7.946   7.175
16821WAT      O50704   9.697   1.242   0.550
16821WAT     H150705   9.715   1.190   0.633
16821WAT     H250706   9.689   1.339   0.573
16822WAT      O50707   9.862   1.748   6.553
16822WAT     H150708   9.889   1.657   6.583
16822WAT     H250709   9.928   1.816   6.586
16823WAT      O50710   2.265   8.949   1.381
16823WAT     H150711   2.333   8.913   1.317
16823WAT     H250712   2.223   8.874   1.432
16824WAT      O50713   4.276   8.635   3.295
16824WAT     H150714   4.250   8.547   3.333
16824WAT     H250715   4.374   8.634   3.271
16825WAT      O50716   6.849   8.416   8.628
16825WAT     H150717   6.938   8.446   8.663
16825WAT     H250718   6.828   8.325   8.663
16826WAT      O50719   6.209   1.194   1.474
16826WAT     H150720   6.148   1.117   1.494
16826WAT     H250721   6.172   1.247   1.397
16827WAT      O50722   3.958   6.090   3.368
16827WAT     H150723   3.996   6.083   3.275
16827WAT     H250724   3.876   6.146   3.367
16828WAT      O50725   3.303   8.724   2.323
16828WAT     H150726   3.381   8.689   2.376
16828WAT     H250727   3.250   8.647   2.287
16829WAT      O50728   4.123   1.659   0.335
16829WAT     H150729   4.156   1.570   0.304
16829WAT     H250730   4.026   1.669   0.312
16830WAT      O50731   9.798   6.317   5.822
16830WAT     H150732   9.885   6.268   5.835
16830WAT     H250733   9.749   6.279   5.744
16831WAT      O50734   9.237   2.052   5.220
16831WAT     H150735   9.186   2.028   5.302
16831WAT     H250736   9.328   2.085   5.246
16832WAT      O50737   5.692   1.760   7.086
16832WAT     H150738   5.646   1.783   7.171
16832WAT     H250739   5.645   1.683   7.042
16833WAT      O50740   0.714   8.952   4.245
16833WAT     H150741   0.689   8.909   4.332
16833WAT     H250742   0.723   8.881   4.175
16834WAT      O50743   7.645   6.907   1.927
16834WAT     H150744   7.648   6.997   1.882
16834WAT     H250745   7.695   6.841   1.871
16835WAT      O50746   3.821   4.392   7.981
16835WAT     H150747   3.765   4.403   7.898
16835WAT     H250748   3.870   4.477   8.000
16836WAT      O50749   1.252   9.474   3.641
16836WAT     H150750   1.155   9.477   3.617
16836WAT     H250751   1.303   9.539   3.585
16837WAT      O50752   7.153   3.356   4.138
16837WAT     H150753   7.213   3.435   4.152
16837WAT     H250754   7.172   3.314   4.049
16838WAT      O50755   6.280   7.283   8.852
16838WAT     H150756   6.307   7.193   8.888
16838WAT     H250757   6.339   7.354   8.891
16839WAT      O50758   2.782   3.486   4.619
16839WAT     H150759   2.774   3.422   4.543
16839WAT     H250760   2.734   3.571   4.597
16840WAT      O50761   9.086   2.854   0.571
16840WAT     H150762   9.050   2.824   0.659
16840WAT     H250763   9.012   2.893   0.516
16841WAT      O50764   3.074   4.049   8.124
16841WAT     H150765   3.103   3.967   8.174
16841WAT     H250766   3.059   4.124   8.188
16842WAT      O50767   3.453   3.431   5.777
16842WAT     H150768   3.453   3.471   5.685
16842WAT     H250769   3.492   3.496   5.842
16843WAT      O50770   7.345   1.602   4.640
16843WAT     H150771   7.262   1.551   4.620
16843WAT     H250772   7.354   1.677   4.575
16844WAT      O50773   5.165   4.245   0.486
16844WAT     H150774   5.157   4.304   0.406
16844WAT     H250775   5.261   4.228   0.506
16845WAT      O50776   8.090   1.434   8.337
16845WAT     H150777   8.185   1.432   8.305
16845WAT     H250778   8.047   1.519   8.307
16846WAT      O50779   0.734   0.343   0.938
16846WAT     H150780   0.668   0.331   0.865
16846WAT     H250781   0.818   0.293   0.916
16847WAT      O50782   4.654   1.827   1.762
16847WAT     H150783   4.611   1.747   1.722
16847WAT     H250784   4.595   1.865   1.834
16848WAT      O50785   9.001   5.799   9.889
16848WAT     H150786   8.960   5.819   9.800
16848WAT     H250787   9.037   5.884   9.928
16849WAT      O50788   3.404   7.070   9.690
16849WAT     H150789   3.493   7.049   9.652
16849WAT     H250790   3.415   7.101   9.785
16850WAT      O50791   7.728   9.121   9.672
16850WAT     H150792   7.820   9.089   9.693
16850WAT     H250793   7.662   9.051   9.700
16851WAT      O50794   0.177   1.684   2.255
16851WAT     H150795   0.082   1.705   2.231
16851WAT     H250796   0.187   1.680   2.354
16852WAT      O50797   6.344   8.237   7.068
16852WAT     H150798   6.297   8.325   7.078
16852WAT     H250799   6.311   8.191   6.987
16853WAT      O50800   7.492   2.291   4.191
16853WAT     H150801   7.528   2.381   4.168
16853WAT     H250802   7.469   2.242   4.107
16854WAT      O50803   3.870   7.239   5.660
16854WAT     H150804   3.789   7.187   5.687
16854WAT     H250805   3.870   7.327   5.708
16855WAT      O50806   1.376   6.158   6.431
16855WAT     H150807   1.291   6.105   6.430
16855WAT     H250808   1.378   6.218   6.351
16856WAT      O50809   2.053   8.900   8.801
16856WAT     H150810   1.981   8.951   8.756
16856WAT     H250811   2.098   8.958   8.869
16857WAT      O50812   6.773   5.984   8.814
16857WAT     H150813   6.679   6.016   8.801
16857WAT     H250814   6.804   5.936   8.732
16858WAT      O50815   4.680   4.323   1.633
16858WAT     H150816   4.725   4.409   1.656
16858WAT     H250817   4.682   4.262   1.713
16859WAT      O50818   4.004   4.844   0.317
16859WAT     H150819   3.910   4.873   0.296
16859WAT     H250820   4.047   4.809   0.233
16860WAT      O50821   7.782   5.237   5.027
16860WAT     H150822   7.811   5.321   5.073
16860WAT     H250823   7.849   5.165   5.042
16861WAT      O50824   6.749   7.586   5.590
16861WAT     H150825   6.773   7.490   5.601
16861WAT     H250826   6.655   7.600   5.620
16862WAT      O50827   9.765   2.782   2.547
16862WAT     H150828   9.702   2.856   2.573
16862WAT     H250829   9.719   2.694   2.556
16863WAT      O50830   4.877   9.552   7.213
16863WAT     H150831   4.929   9.482   7.163
16863WAT     H250832   4.903   9.550   7.309
16864WAT      O50833   4.409   7.540   5.868
16864WAT     H150834   4.410   7.590   5.781
16864WAT     H250835   4.501   7.538   5.906
16865WAT      O50836   4.382   9.042   3.835
16865WAT     H150837   4.319   9.092   3.776
16865WAT     H250838   4.394   8.949   3.800
16866WAT      O50839   3.990   6.033   2.680
16866WAT     H150840   3.979   6.113   2.739
16866WAT     H250841   3.922   6.036   2.606
16867WAT      O50842   1.161   5.313   8.336
16867WAT     H150843   1.218   5.360   8.268
16867WAT     H250844   1.176   5.355   8.426
16868WAT      O50845   9.699   8.268   0.098
16868WAT     H150846   9.621   8.257   0.035
16868WAT     H250847   9.668   8.252   0.192
16869WAT      O50848   0.869   4.528   9.208
16869WAT     H150849   0.908   4.467   9.277
16869WAT     H250850   0.942   4.579   9.163
16870WAT      O50851   1.133   5.953   0.787
16870WAT     H150852   1.162   5.938   0.882
16870WAT     H250853   1.038   5.985   0.787
16871WAT      O50854   9.443   6.450   2.027
16871WAT     H150855   9.369   6.410   2.081
16871WAT     H250856   9.450   6.402   1.939
16872WAT      O50857   1.396   5.638   3.471
16872WAT     H150858   1.372   5.558   3.527
16872WAT     H250859   1.408   5.609   3.376
16873WAT      O50860   8.138   0.177   8.105
16873WAT     H150861   8.195   0.125   8.170
16873WAT     H250862   8.195   0.207   8.028
16874WAT      O50863   4.883   4.720   3.972
16874WAT     H150864   4.927   4.665   4.043
16874WAT     H250865   4.903   4.680   3.883
16875WAT      O50866   2.091   6.144   1.525
16875WAT     H150867   2.081   6.096   1.438
16875WAT     H250868   2.129   6.235   1.508
16876WAT      O50869   6.919   5.147   0.598
16876WAT     H150870   6.851   5.124   0.668
16876WAT     H250871   6.874   5.156   0.509
16877WAT      O50872   5.483   9.411   2.122
16877WAT     H150873   5.475   9.338   2.054
16877WAT     H250874   5.538   9.485   2.084
16878WAT      O50875   6.972   9.659   5.738
16878WAT     H150876   7.055   9.628   5.692
16878WAT     H250877   6.896   9.598   5.715
16879WAT      O50878   6.983   8.290   9.647
16879WAT     H150879   6.890   8.317   9.620
16879WAT     H250880   7.008   8.339   9.731
16880WAT      O50881   0.190   8.059   3.218
16880WAT     H150882   0.133   8.039   3.138
16880WAT     H250883   0.135   8.054   3.301
16881WAT      O50884   1.654   9.539   1.407
16881WAT     H150885   1.679   9.484   1.487
16881WAT     H250886   1.729   9.599   1.383
16882WAT      O50887   5.989   9.010   4.029
16882WAT     H150888   6.078   9.020   4.072
16882WAT     H250889   6.000   8.965   3.940
16883WAT      O50890   4.129   7.957   9.381
16883WAT     H150891   4.208   7.988   9.432
16883WAT     H250892   4.135   7.991   9.287
16884WAT      O50893   4.160   0.036   7.677
16884WAT     H150894   4.235   0.090   7.640
16884WAT     H250895   4.075   0.090   7.672
16885WAT      O50896   3.415   1.459   4.993
16885WAT     H150897   3.414   1.432   5.089
16885WAT     H250898   3.508   1.483   4.966
16886WAT      O50899   7.488   4.847   7.865
16886WAT     H150900   7.508   4.753   7.839
16886WAT     H250901   7.476   4.903   7.783
16887WAT      O50902   2.684   0.023   1.532
16887WAT     H150903   2.590   0.034   1.500
16887WAT     H250904   2.715  -0.071   1.516
16888WAT      O50905   0.361   7.822   5.800
16888WAT     H150906   0.379   7.903   5.744
16888WAT     H250907   0.270   7.829   5.840
16889WAT      O50908   3.367   1.843   2.487
16889WAT     H150909   3.298   1.818   2.419
16889WAT     H250910   3.322   1.883   2.567
16890WAT      O50911   5.890   8.043   1.047
16890WAT     H150912   5.842   7.991   0.976
16890WAT     H250913   5.848   8.133   1.056
16891WAT      O50914   4.583   9.018   9.732
16891WAT     H150915   4.524   9.019   9.650
16891WAT     H250916   4.553   8.944   9.792
16892WAT      O50917   8.586   4.040   7.577
16892WAT     H150918   8.654   3.969   7.557
16892WAT     H250919   8.516   4.040   7.506
16893WAT      O50920   4.694   1.825   3.943
16893WAT     H150921   4.630   1.901   3.950
16893WAT     H250922   4.663   1.762   3.872
16894WAT      O50923   9.106   5.008   6.348
16894WAT     H150924   9.141   5.001   6.441
16894WAT     H250925   9.155   4.945   6.288
16895WAT      O50926   2.766   8.731   0.997
16895WAT     H150927   2.677   8.736   0.952
16895WAT     H250928   2.823   8.662   0.952
16896WAT      O50929   9.492   6.288   7.413
16896WAT     H150930   9.532   6.320   7.327
16896WAT     H250931   9.393   6.281   7.402
16897WAT      O50932   7.186   4.231   6.322
16897WAT     H150933   7.197   4.267   6.415
16897WAT     H250934   7.242   4.149   6.312
16898WAT      O50935   1.302   3.491   5.549
16898WAT     H150936   1.373   3.562   5.559
16898WAT     H250937   1.319   3.418   5.615
16899WAT      O50938   4.889   3.062   6.316
16899WAT     H150939   4.909   2.969   6.284
16899WAT     H250940   4.927   3.074   6.408
16900WAT      O50941   1.379   2.518   5.052
16900WAT     H150942   1.374   2.618   5.053
16900WAT     H250943   1.290   2.480   5.029
16901WAT      O50944   0.939   9.825   2.127
16901WAT     H150945   0.968   9.836   2.222
16901WAT     H250946   0.869   9.753   2.122
16902WAT      O50947   9.391   3.774   9.492
16902WAT     H150948   9.341   3.696   9.529
16902WAT     H250949   9.334   3.855   9.497
16903WAT      O50950   7.280   1.810   6.238
16903WAT     H150951   7.182   1.803   6.257
16903WAT     H250952   7.322   1.873   6.304
16904WAT      O50953   1.486   0.719   5.191
16904WAT     H150954   1.552   0.696   5.263
16904WAT     H250955   1.457   0.814   5.202
16905WAT      O50956   8.129   2.029   7.076
16905WAT     H150957   8.163   1.956   7.017
16905WAT     H250958   8.032   2.045   7.057
16906WAT      O50959   0.228   3.088   0.796
16906WAT     H150960   0.257   3.116   0.888
16906WAT     H250961   0.266   3.151   0.728
16907WAT      O50962   1.281   6.564   6.242
16907WAT     H150963   1.183   6.559   6.223
16907WAT     H250964   1.333   6.546   6.159
16908WAT      O50965   9.095   2.604   3.558
16908WAT     H150966   9.178   2.589   3.504
16908WAT     H250967   9.017   2.619   3.496
16909WAT      O50968   6.713   2.256   0.348
16909WAT     H150969   6.754   2.252   0.257
16909WAT     H250970   6.686   2.164   0.377
16910WAT      O50971   1.446   7.638   0.578
16910WAT     H150972   1.402   7.676   0.496
16910WAT     H250973   1.390   7.564   0.615
16911WAT      O50974   1.605   5.350   6.354
16911WAT     H150975   1.570   5.267   6.311
16911WAT     H250976   1.670   5.395   6.292
16912WAT      O50977   0.636   2.522   9.603
16912WAT     H150978   0.724   2.528   9.649
16912WAT     H250979   0.591   2.612   9.606
16913WAT      O50980   2.794   2.788   6.503
16913WAT     H150981   2.808   2.855   6.430
16913WAT     H250982   2.849   2.813   6.582
16914WAT      O50983   3.979   4.650   3.670
16914WAT     H150984   4.045   4.607   3.731
16914WAT     H250985   3.931   4.580   3.618
16915WAT      O50986   4.787   7.759   2.792
16915WAT     H150987   4.693   7.726   2.788
16915WAT     H250988   4.788   7.859   2.791
16916WAT      O50989   5.974   1.029   7.012
16916WAT     H150990   5.916   1.097   7.058
16916WAT     H250991   5.917   0.962   6.965
16917WAT      O50992   1.649   9.532   7.923
16917WAT     H150993   1.703   9.550   8.005
16917WAT     H250994   1.586   9.609   7.907
16918WAT      O50995   0.207   6.375   1.197
16918WAT     H150996   0.232   6.457   1.249
16918WAT     H250997   0.174   6.402   1.106
16919WAT      O50998   7.211   5.538   6.302
16919WAT     H150999   7.233   5.444   6.325
16919WAT     H251000   7.146   5.574   6.369
16920WAT      O51001   9.779   2.955   8.838
16920WAT     H151002   9.780   3.019   8.915
16920WAT     H251003   9.739   2.999   8.758
16921WAT      O51004   3.949   6.333   4.621
16921WAT     H151005   3.881   6.313   4.692
16921WAT     H251006   4.027   6.271   4.631
16922WAT      O51007   9.778   0.498   6.779
16922WAT     H151008   9.754   0.444   6.699
16922WAT     H251009   9.724   0.582   6.780
16923WAT      O51010   0.411   7.465   3.498
16923WAT     H151011   0.462   7.524   3.436
16923WAT     H251012   0.380   7.384   3.449
16924WAT      O51013   6.496   9.089   0.161
16924WAT     H151014   6.587   9.067   0.197
16924WAT     H251015   6.427   9.068   0.229
16925WAT      O51016   6.996   3.872   3.357
16925WAT     H151017   7.023   3.857   3.262
16925WAT     H251018   6.907   3.919   3.360
16926WAT      O51019   3.518   5.423   8.353
16926WAT     H151020   3.484   5.344   8.301
16926WAT     H251021   3.609   5.402   8.389
16927WAT      O51022   8.009   2.337   0.634
16927WAT     H151023   7.996   2.250   0.682
16927WAT     H251024   7.929   2.357   0.578
16928WAT      O51025   5.189   5.935   8.840
16928WAT     H151026   5.195   6.034   8.827
16928WAT     H251027   5.115   5.913   8.903
16929WAT      O51028   0.318   4.330   4.922
16929WAT     H151029   0.263   4.396   4.973
16929WAT     H251030   0.412   4.332   4.958
16930WAT      O51031   2.249   4.781   4.576
16930WAT     H151032   2.284   4.714   4.511
16930WAT     H251033   2.180   4.839   4.532
16931WAT      O51034   3.005   9.135   5.250
16931WAT     H151035   3.003   9.154   5.152
16931WAT     H251036   2.916   9.104   5.281
16932WAT      O51037   2.407   3.568   6.942
16932WAT     H151038   2.340   3.511   6.989
16932WAT     H251039   2.498   3.527   6.951
16933WAT      O51040   8.945   6.014   2.354
16933WAT     H151041   8.920   6.001   2.450
16933WAT     H251042   8.921   5.932   2.302
16934WAT      O51043   7.964   1.373   1.574
16934WAT     H151044   7.886   1.408   1.523
16934WAT     H251045   8.032   1.446   1.585
16935WAT      O51046   3.985   5.094   3.231
16935WAT     H151047   3.911   5.086   3.165
16935WAT     H251048   4.035   5.179   3.214
16936WAT      O51049   0.690   3.368   8.107
16936WAT     H151050   0.751   3.446   8.090
16936WAT     H251051   0.731   3.308   8.175
16937WAT      O51052   1.753   5.898   2.073
16937WAT     H151053   1.662   5.862   2.054
16937WAT     H251054   1.747   5.974   2.138
16938WAT      O51055   5.442   8.814   8.630
16938WAT     H151056   5.387   8.897   8.630
16938WAT     H251057   5.532   8.832   8.670
16939WAT      O51058   9.479   8.479   0.416
16939WAT     H151059   9.463   8.555   0.479
16939WAT     H251060   9.521   8.513   0.332
16940WAT      O51061   5.884   1.439   1.480
16940WAT     H151062   5.930   1.370   1.424
16940WAT     H251063   5.808   1.397   1.530
16941WAT      O51064   0.387   6.639   1.607
16941WAT     H151065   0.421   6.732   1.621
16941WAT     H251066   0.436   6.597   1.530
16942WAT      O51067   0.488   1.336   9.442
16942WAT     H151068   0.438   1.294   9.366
16942WAT     H251069   0.425   1.358   9.516
16943WAT      O51070   4.437   0.877   0.954
16943WAT     H151071   4.535   0.880   0.933
16943WAT     H251072   4.386   0.855   0.871
16944WAT      O51073   9.422   4.608   6.263
16944WAT     H151074   9.427   4.554   6.348
16944WAT     H251075   9.514   4.639   6.239
16945WAT      O51076   5.757   4.258   1.603
16945WAT     H151077   5.681   4.303   1.557
16945WAT     H251078   5.776   4.171   1.558
16946WAT      O51079   2.979   0.747   4.232
16946WAT     H151080   2.926   0.756   4.316
16946WAT     H251081   3.076   0.739   4.255
16947WAT      O51082   0.678   5.566   6.663
16947WAT     H151083   0.599   5.626   6.677
16947WAT     H251084   0.748   5.616   6.612
16948WAT      O51085   8.648   7.142   4.469
16948WAT     H151086   8.685   7.064   4.419
16948WAT     H251087   8.722   7.190   4.516
16949WAT      O51088   4.702   8.235   9.771
16949WAT     H151089   4.800   8.237   9.794
16949WAT     H251090   4.655   8.308   9.821
16950WAT      O51091   9.087   7.589   6.789
16950WAT     H151092   9.002   7.597   6.841
16950WAT     H251093   9.163   7.575   6.853
16951WAT      O51094   8.651   1.414   7.666
16951WAT     H151095   8.578   1.440   7.730
16951WAT     H251096   8.620   1.427   7.572
16952WAT      O51097   1.212   1.104   3.133
16952WAT     H151098   1.186   1.027   3.191
16952WAT     H251099   1.130   1.144   3.093
16953WAT      O51100   2.550   9.802   4.302
16953WAT     H151101   2.552   9.868   4.377
16953WAT     H251102   2.497   9.840   4.226
16954WAT      O51103   4.849   2.863   5.241
16954WAT     H151104   4.901   2.945   5.218
16954WAT     H251105   4.891   2.818   5.320
16955WAT      O51106   4.077   1.764   3.084
16955WAT     H151107   4.124   1.838   3.132
16955WAT     H251108   4.021   1.713   3.150
16956WAT      O51109   5.994   3.881   1.269
16956WAT     H151110   5.917   3.871   1.332
16956WAT     H251111   6.066   3.815   1.292
16957WAT      O51112   7.190   6.421   2.408
16957WAT     H151113   7.240   6.483   2.348
16957WAT     H251114   7.096   6.410   2.375
16958WAT      O51115   6.287   6.879   8.149
16958WAT     H151116   6.231   6.848   8.226
16958WAT     H251117   6.298   6.979   8.154
16959WAT      O51118   8.201   8.924   3.719
16959WAT     H151119   8.111   8.965   3.701
16959WAT     H251120   8.191   8.845   3.779
16960WAT      O51121   3.846   4.239   5.394
16960WAT     H151122   3.774   4.203   5.453
16960WAT     H251123   3.812   4.320   5.346
16961WAT      O51124   7.173   2.504   2.400
16961WAT     H151125   7.184   2.588   2.347
16961WAT     H251126   7.263   2.463   2.415
16962WAT      O51127   4.066   4.635   7.699
16962WAT     H151128   4.039   4.542   7.676
16962WAT     H251129   4.161   4.650   7.672
16963WAT      O51130   8.475   3.820   8.868
16963WAT     H151131   8.449   3.735   8.914
16963WAT     H251132   8.395   3.859   8.823
16964WAT      O51133   5.432   0.167   5.263
16964WAT     H151134   5.375   0.209   5.192
16964WAT     H251135   5.457   0.075   5.235
16965WAT      O51136   4.825   0.711   6.282
16965WAT     H151137   4.818   0.611   6.274
16965WAT     H251138   4.825   0.736   6.379
16966WAT      O51139   8.186   5.226   4.948
16966WAT     H151140   8.126   5.306   4.956
16966WAT     H251141   8.207   5.190   5.038
16967WAT      O51142   4.983   5.239   2.231
16967WAT     H151143   5.006   5.327   2.191
16967WAT     H251144   4.927   5.186   2.167
16968WAT      O51145   8.088   4.903   5.462
16968WAT     H151146   8.030   4.984   5.451
16968WAT     H251147   8.059   4.832   5.398
16969WAT      O51148   7.796   6.725   0.067
16969WAT     H151149   7.878   6.733   0.011
16969WAT     H251150   7.720   6.771   0.021
16970WAT      O51151   1.687   8.722   8.276
16970WAT     H151152   1.707   8.757   8.367
16970WAT     H251153   1.669   8.799   8.214
16971WAT      O51154   0.035   3.886   7.114
16971WAT     H151155   0.055   3.876   7.212
16971WAT     H251156   0.107   3.842   7.061
16972WAT      O51157   0.156   1.652   2.538
16972WAT     H151158   0.144   1.751   2.530
16972WAT     H251159   0.067   1.607   2.537
16973WAT      O51160   0.125   6.501   0.191
16973WAT     H151161   0.151   6.588   0.149
16973WAT     H251162   0.075   6.518   0.276
16974WAT      O51163   9.170   9.311   6.949
16974WAT     H151164   9.168   9.299   7.048
16974WAT     H251165   9.112   9.242   6.906
16975WAT      O51166   9.475   9.555   3.982
16975WAT     H151167   9.410   9.506   3.924
16975WAT     H251168   9.523   9.490   4.041
16976WAT      O51169   1.512   6.042   9.330
16976WAT     H151170   1.504   5.944   9.312
16976WAT     H251171   1.595   6.077   9.286
16977WAT      O51172   4.607   7.301   4.604
16977WAT     H151173   4.614   7.298   4.505
16977WAT     H251174   4.654   7.222   4.644
16978WAT      O51175   1.113   8.216   6.586
16978WAT     H151176   1.183   8.148   6.561
16978WAT     H251177   1.040   8.170   6.637
16979WAT      O51178   0.327   5.599   8.112
16979WAT     H151179   0.305   5.695   8.093
16979WAT     H251180   0.426   5.590   8.125
16980WAT      O51181   3.443   7.327   1.983
16980WAT     H151182   3.395   7.357   2.065
16980WAT     H251183   3.531   7.375   1.977
16981WAT      O51184   6.076   2.268   0.288
16981WAT     H151185   6.087   2.170   0.304
16981WAT     H251186   6.148   2.301   0.227
16982WAT      O51187   6.890   8.973   4.124
16982WAT     H151188   6.984   9.005   4.130
16982WAT     H251189   6.832   9.028   4.183
16983WAT      O51190   8.841   8.476   7.484
16983WAT     H151191   8.829   8.564   7.530
16983WAT     H251192   8.837   8.402   7.552
16984WAT      O51193   6.715   2.361   4.238
16984WAT     H151194   6.710   2.294   4.164
16984WAT     H251195   6.806   2.357   4.280
16985WAT      O51196   4.224   8.977   4.477
16985WAT     H151197   4.239   8.908   4.406
16985WAT     H251198   4.262   9.064   4.447
16986WAT      O51199   6.569   3.432   8.849
16986WAT     H151200   6.647   3.415   8.789
16986WAT     H251201   6.531   3.522   8.830
16987WAT      O51202   8.043   5.539   9.360
16987WAT     H151203   8.132   5.530   9.406
16987WAT     H251204   7.970   5.534   9.429
16988WAT      O51205   6.547   9.103   2.592
16988WAT     H151206   6.454   9.134   2.573
16988WAT     H251207   6.573   9.034   2.525
16989WAT      O51208   1.654   0.808   0.765
16989WAT     H151209   1.600   0.889   0.787
16989WAT     H251210   1.632   0.777   0.672
16990WAT      O51211   5.655   9.480   3.418
16990WAT     H151212   5.581   9.449   3.479
16990WAT     H251213   5.620   9.486   3.325
16991WAT      O51214   9.185   4.015   8.630
16991WAT     H151215   9.272   4.004   8.583
16991WAT     H251216   9.196   3.992   8.727
16992WAT      O51217   7.050   5.042   8.045
16992WAT     H151218   6.963   5.068   8.004
16992WAT     H251219   7.086   4.960   8.001
16993WAT      O51220   8.241   0.564   7.468
16993WAT     H151221   8.289   0.575   7.555
16993WAT     H251222   8.239   0.651   7.419
16994WAT      O51223   8.740   0.702   0.984
16994WAT     H151224   8.648   0.704   0.946
16994WAT     H251225   8.759   0.788   1.031
16995WAT      O51226   2.800   0.234   8.470
16995WAT     H151227   2.793   0.330   8.496
16995WAT     H251228   2.895   0.204   8.476
16996WAT      O51229   8.179   2.452   3.810
16996WAT     H151230   8.117   2.498   3.746
16996WAT     H251231   8.273   2.476   3.789
16997WAT      O51232   7.962   7.127   1.398
16997WAT     H151233   7.931   7.034   1.379
16997WAT     H251234   8.049   7.123   1.448
16998WAT      O51235   8.726   5.025   4.656
16998WAT     H151236   8.794   5.061   4.721
16998WAT     H251237   8.756   4.937   4.621
16999WAT      O51238   0.144   9.225   2.509
16999WAT     H151239   0.166   9.200   2.604
16999WAT     H251240   0.189   9.312   2.487
17000WAT      O51241   5.239   2.482   1.078
17000WAT     H151242   5.165   2.534   1.120
17000WAT     H251243   5.254   2.515   0.985
17001WAT      O51244   2.620   6.754   7.038
17001WAT     H151245   2.668   6.801   7.112
17001WAT     H251246   2.686   6.701   6.985
17002WAT      O51247   6.189   6.120   1.017
17002WAT     H151248   6.246   6.049   0.976
17002WAT     H251249   6.093   6.090   1.017
17003WAT      O51250   3.689   0.533   9.388
17003WAT     H151251   3.670   0.631   9.392
17003WAT     H251252   3.608   0.485   9.354
17004WAT      O51253   3.233   8.326   7.355
17004WAT     H151254   3.246   8.398   7.288
17004WAT     H251255   3.310   8.262   7.351
17005WAT      O51256   0.602   7.930   0.046
17005WAT     H151257   0.683   7.940   0.104
17005WAT     H251258   0.601   8.003  -0.022
17006WAT      O51259   9.704   4.026   0.931
17006WAT     H151260   9.643   3.965   0.981
17006WAT     H251261   9.797   4.014   0.964
17007WAT      O51262   4.654   1.242   0.635
17007WAT     H151263   4.649   1.234   0.735
17007WAT     H251264   4.712   1.169   0.598
17008WAT      O51265   0.523   0.478   9.441
17008WAT     H151266   0.523   0.518   9.533
17008WAT     H251267   0.430   0.480   9.405
17009WAT      O51268   7.278   1.169   5.361
17009WAT     H151269   7.307   1.243   5.300
17009WAT     H251270   7.217   1.204   5.432
17010WAT      O51271   6.173   3.182   0.498
17010WAT     H151272   6.086   3.142   0.469
17010WAT     H251273   6.160   3.235   0.581
17011WAT      O51274   5.853   5.053   3.267
17011WAT     H151275   5.770   5.108   3.280
17011WAT     H251276   5.878   5.054   3.170
17012WAT      O51277   6.322   1.733   2.017
17012WAT     H151278   6.322   1.681   1.931
17012WAT     H251279   6.327   1.830   1.997
17013WAT      O51280   3.566   0.521   4.605
17013WAT     H151281   3.613   0.605   4.578
17013WAT     H251282   3.563   0.516   4.705
17014WAT      O51283   1.190   2.654   0.336
17014WAT     H151284   1.168   2.711   0.416
17014WAT     H251285   1.214   2.563   0.367
17015WAT      O51286   7.241   8.597   1.731
17015WAT     H151287   7.165   8.547   1.772
17015WAT     H251288   7.259   8.562   1.640
17016WAT      O51289   9.054   3.337   2.588
17016WAT     H151290   9.146   3.324   2.553
17016WAT     H251291   9.058   3.363   2.685
17017WAT      O51292   0.120   5.445   7.686
17017WAT     H151293   0.074   5.378   7.744
17017WAT     H251294   0.083   5.536   7.703
17018WAT      O51295   5.299   4.694   9.648
17018WAT     H151296   5.326   4.785   9.680
17018WAT     H251297   5.380   4.643   9.621
17019WAT      O51298   0.388   6.879   9.673
17019WAT     H151299   0.307   6.908   9.622
17019WAT     H251300   0.394   6.779   9.671
17020WAT      O51301   6.530   0.190   5.105
17020WAT     H151302   6.554   0.252   5.180
17020WAT     H251303   6.433   0.201   5.082
17021WAT      O51304   6.832   6.384   6.302
17021WAT     H151305   6.774   6.325   6.245
17021WAT     H251306   6.809   6.370   6.398
17022WAT      O51307   4.538   7.323   3.413
17022WAT     H151308   4.619   7.280   3.374
17022WAT     H251309   4.521   7.286   3.505
17023WAT      O51310   9.453   5.113   6.336
17023WAT     H151311   9.373   5.173   6.336
17023WAT     H251312   9.509   5.133   6.417
17024WAT      O51313   0.857   4.861   8.724
17024WAT     H151314   0.956   4.847   8.733
17024WAT     H251315   0.817   4.785   8.674
17025WAT      O51316   5.697   2.380   7.040
17025WAT     H151317   5.681   2.474   7.071
17025WAT     H251318   5.792   2.355   7.057
17026WAT      O51319   7.502   2.409   8.802
17026WAT     H151320   7.500   2.381   8.898
17026WAT     H251321   7.568   2.353   8.752
17027WAT      O51322   2.394   6.366   1.672
17027WAT     H151323   2.385   6.293   1.739
17027WAT     H251324   2.312   6.368   1.615
17028WAT      O51325   5.096   7.844   2.362
17028WAT     H151326   5.049   7.796   2.435
17028WAT     H251327   5.040   7.921   2.332
17029WAT      O51328   0.761   6.621   4.553
17029WAT     H151329   0.751   6.523   4.535
17029WAT     H251330   0.682   6.654   4.604
17030WAT      O51331   3.751   5.292   3.022
17030WAT     H151332   3.667   5.323   3.066
17030WAT     H251333   3.753   5.192   3.021
17031WAT      O51334   3.549   8.126   7.992
17031WAT     H151335   3.537   8.134   7.893
17031WAT     H251336   3.463   8.146   8.038
17032WAT      O51337   7.321   8.484   8.188
17032WAT     H151338   7.258   8.414   8.156
17032WAT     H251339   7.344   8.544   8.111
17033WAT      O51340   4.176   7.971   3.844
17033WAT     H151341   4.134   7.955   3.755
17033WAT     H251342   4.105   7.991   3.912
17034WAT      O51343   0.940   9.490   7.968
17034WAT     H151344   0.930   9.421   7.897
17034WAT     H251345   1.016   9.550   7.946
17035WAT      O51346   5.140   4.108   8.408
17035WAT     H151347   5.056   4.067   8.446
17035WAT     H251348   5.161   4.192   8.457
17036WAT      O51349   1.722   3.847   6.715
17036WAT     H151350   1.696   3.800   6.631
17036WAT     H251351   1.813   3.817   6.743
17037WAT      O51352   2.983   5.195   1.013
17037WAT     H151353   2.956   5.136   1.089
17037WAT     H251354   2.925   5.277   1.012
17038WAT      O51355   1.210   0.852   3.885
17038WAT     H151356   1.254   0.934   3.848
17038WAT     H251357   1.137   0.879   3.947
17039WAT      O51358   6.674   1.763   0.125
17039WAT     H151359   6.762   1.790   0.088
17039WAT     H251360   6.641   1.681   0.076
17040WAT      O51361   7.606   1.355   9.381
17040WAT     H151362   7.660   1.419   9.325
17040WAT     H251363   7.509   1.378   9.372
17041WAT      O51364   2.439   6.802   9.160
17041WAT     H151365   2.415   6.737   9.233
17041WAT     H251366   2.526   6.845   9.182
17042WAT      O51367   7.282   7.012   0.324
17042WAT     H151368   7.369   6.965   0.310
17042WAT     H251369   7.259   7.013   0.421
17043WAT      O51370   8.289   6.285   7.063
17043WAT     H151371   8.272   6.380   7.040
17043WAT     H251372   8.384   6.262   7.041
17044WAT      O51373   2.984   3.208   6.631
17044WAT     H151374   2.992   3.212   6.531
17044WAT     H251375   3.074   3.220   6.672
17045WAT      O51376   4.505   0.864   6.663
17045WAT     H151377   4.521   0.947   6.717
17045WAT     H251378   4.415   0.871   6.620
17046WAT      O51379   0.807   1.494   7.838
17046WAT     H151380   0.761   1.563   7.781
17046WAT     H251381   0.802   1.405   7.793
17047WAT      O51382   4.551   2.434   6.348
17047WAT     H151383   4.493   2.451   6.269
17047WAT     H251384   4.494   2.414   6.428
17048WAT      O51385   3.240   5.455   9.815
17048WAT     H151386   3.266   5.402   9.896
17048WAT     H251387   3.143   5.441   9.795
17049WAT      O51388   2.318   2.438   2.088
17049WAT     H151389   2.344   2.420   2.183
17049WAT     H251390   2.222   2.463   2.084
17050WAT      O51391   5.466   0.286   8.970
17050WAT     H151392   5.368   0.305   8.980
17050WAT     H251393   5.518   0.348   9.029
17051WAT      O51394   2.086   2.764   3.002
17051WAT     H151395   2.058   2.747   3.096
17051WAT     H251396   2.157   2.699   2.975
17052WAT      O51397   7.205   8.095   1.050
17052WAT     H151398   7.110   8.117   1.072
17052WAT     H251399   7.207   8.021   0.982
17053WAT      O51400   1.449   5.506   4.675
17053WAT     H151401   1.427   5.431   4.613
17053WAT     H251402   1.493   5.470   4.757
17054WAT      O51403   7.937   0.669   1.011
17054WAT     H151404   7.950   0.587   0.956
17054WAT     H251405   7.939   0.750   0.952
17055WAT      O51406   5.557   8.825   4.842
17055WAT     H151407   5.568   8.920   4.816
17055WAT     H251408   5.626   8.769   4.797
17056WAT      O51409   7.497   4.942   9.457
17056WAT     H151410   7.435   4.978   9.388
17056WAT     H251411   7.548   5.017   9.500
17057WAT      O51412   7.144   9.130   8.493
17057WAT     H151413   7.119   9.220   8.529
17057WAT     H251414   7.236   9.106   8.523
17058WAT      O51415   5.194   7.288   2.703
17058WAT     H151416   5.125   7.297   2.631
17058WAT     H251417   5.151   7.303   2.792
17059WAT      O51418   5.000   8.415   2.525
17059WAT     H151419   4.913   8.450   2.490
17059WAT     H251420   4.986   8.324   2.564
17060WAT      O51421   1.836   1.244   1.627
17060WAT     H151422   1.843   1.305   1.706
17060WAT     H251423   1.926   1.235   1.584
17061WAT      O51424   8.708   5.175   2.170
17061WAT     H151425   8.696   5.108   2.097
17061WAT     H251426   8.804   5.176   2.198
17062WAT      O51427   2.348   9.761   4.084
17062WAT     H151428   2.281   9.835   4.092
17062WAT     H251429   2.366   9.744   3.987
17063WAT      O51430   6.884   0.648   6.210
17063WAT     H151431   6.894   0.647   6.309
17063WAT     H251432   6.928   0.730   6.173
17064WAT      O51433   8.424   6.106   0.090
17064WAT     H151434   8.327   6.084   0.100
17064WAT     H251435   8.478   6.025   0.112
17065WAT      O51436   7.505   6.975   6.355
17065WAT     H151437   7.456   6.916   6.420
17065WAT     H251438   7.546   7.051   6.404
17066WAT      O51439   1.169   1.245   5.029
17066WAT     H151440   1.181   1.154   4.990
17066WAT     H251441   1.196   1.243   5.125
17067WAT      O51442   8.690   9.602   7.250
17067WAT     H151443   8.633   9.684   7.249
17067WAT     H251444   8.654   9.537   7.316
17068WAT      O51445   7.206   0.317   6.223
17068WAT     H151446   7.267   0.237   6.228
17068WAT     H251447   7.255   0.398   6.254
17069WAT      O51448   0.498   6.475   1.378
17069WAT     H151449   0.440   6.541   1.332
17069WAT     H251450   0.442   6.413   1.433
17070WAT      O51451   0.951   4.305   1.102
17070WAT     H151452   0.926   4.382   1.161
17070WAT     H251453   1.023   4.333   1.039
17071WAT      O51454   7.629   6.334   3.875
17071WAT     H151455   7.665   6.241   3.871
17071WAT     H251456   7.677   6.392   3.808
17072WAT      O51457   1.618   5.911   6.808
17072WAT     H151458   1.588   5.979   6.741
17072WAT     H251459   1.618   5.951   6.900
17073WAT      O51460   8.995   6.811   6.223
17073WAT     H151461   9.074   6.802   6.161
17073WAT     H251462   9.024   6.856   6.307
17074WAT      O51463   6.024   8.258   2.127
17074WAT     H151464   6.015   8.263   2.226
17074WAT     H251465   6.116   8.227   2.103
17075WAT      O51466   5.776   4.933   8.360
17075WAT     H151467   5.802   5.023   8.327
17075WAT     H251468   5.687   4.938   8.407
17076WAT      O51469   0.985   7.839   3.439
17076WAT     H151470   0.901   7.786   3.447
17076WAT     H251471   1.035   7.811   3.357
17077WAT      O51472   0.488   4.210   9.814
17077WAT     H151473   0.429   4.284   9.845
17077WAT     H251474   0.439   4.154   9.747
17078WAT      O51475   3.675   1.709   9.579
17078WAT     H151476   3.747   1.764   9.621
17078WAT     H251477   3.689   1.612   9.602
17079WAT      O51478   7.788   8.081   1.446
17079WAT     H151479   7.771   7.984   1.465
17079WAT     H251480   7.874   8.109   1.489
17080WAT      O51481   7.380   0.873   8.659
17080WAT     H151482   7.346   0.842   8.570
17080WAT     H251483   7.362   0.971   8.670
17081WAT      O51484   4.246   1.017   9.698
17081WAT     H151485   4.286   0.981   9.782
17081WAT     H251486   4.161   1.066   9.720
17082WAT      O51487   3.401   4.975   7.367
17082WAT     H151488   3.467   4.919   7.317
17082WAT     H251489   3.311   4.932   7.363
17083WAT      O51490   9.354   4.419   5.288
17083WAT     H151491   9.272   4.477   5.289
17083WAT     H251492   9.376   4.395   5.193
17084WAT      O51493   2.799   6.867   1.525
17084WAT     H151494   2.778   6.961   1.498
17084WAT     H251495   2.800   6.861   1.625
17085WAT      O51496   8.981   3.844   9.581
17085WAT     H151497   8.918   3.842   9.503
17085WAT     H251498   8.935   3.884   9.660
17086WAT      O51499   6.259   6.345   2.718
17086WAT     H151500   6.289   6.267   2.773
17086WAT     H251501   6.255   6.318   2.622
17087WAT      O51502   1.267   5.776   8.971
17087WAT     H151503   1.306   5.861   8.936
17087WAT     H251504   1.201   5.796   9.043
17088WAT      O51505   1.082   3.113   6.764
17088WAT     H151506   1.003   3.126   6.704
17088WAT     H251507   1.054   3.126   6.859
17089WAT      O51508   4.333   9.000   0.082
17089WAT     H151509   4.353   9.088   0.040
17089WAT     H251510   4.412   8.939   0.070
17090WAT      O51511   3.043   6.222   8.340
17090WAT     H151512   3.028   6.321   8.345
17090WAT     H251513   2.967   6.179   8.292
17091WAT      O51514   4.590   6.244   6.250
17091WAT     H151515   4.640   6.165   6.284
17091WAT     H251516   4.654   6.315   6.220
17092WAT      O51517   4.936   3.681   9.666
17092WAT     H151518   4.898   3.687   9.574
17092WAT     H251519   5.022   3.629   9.663
17093WAT      O51520   4.420   0.576   4.667
17093WAT     H151521   4.330   0.566   4.710
17093WAT     H251522   4.411   0.628   4.583
17094WAT      O51523   8.390   9.763   3.058
17094WAT     H151524   8.471   9.806   3.017
17094WAT     H251525   8.332   9.833   3.098
17095WAT      O51526   4.069   0.069   6.025
17095WAT     H151527   4.106   0.142   5.968
17095WAT     H251528   4.055   0.103   6.118
17096WAT      O51529   2.076   1.166   4.882
17096WAT     H151530   2.103   1.171   4.786
17096WAT     H251531   2.087   1.256   4.925
17097WAT      O51532   8.195   0.421   2.430
17097WAT     H151533   8.199   0.399   2.333
17097WAT     H251534   8.271   0.376   2.478
17098WAT      O51535   0.749   3.935   6.104
17098WAT     H151536   0.768   3.880   6.186
17098WAT     H251537   0.713   4.024   6.131
17099WAT      O51538   2.767   2.352   8.015
17099WAT     H151539   2.675   2.366   7.979
17099WAT     H251540   2.798   2.260   7.993
17100WAT      O51541   8.233   2.207   6.168
17100WAT     H151542   8.289   2.284   6.201
17100WAT     H251543   8.248   2.194   6.070
17101WAT      O51544   1.221   3.288   4.604
17101WAT     H151545   1.154   3.330   4.665
17101WAT     H251546   1.312   3.295   4.646
17102WAT      O51547   1.397   8.305   0.497
17102WAT     H151548   1.342   8.316   0.580
17102WAT     H251549   1.461   8.382   0.489
17103WAT      O51550   1.643   4.933   9.190
17103WAT     H151551   1.615   4.837   9.197
17103WAT     H251552   1.611   4.971   9.103
17104WAT      O51553   5.587   7.359   5.787
17104WAT     H151554   5.538   7.348   5.701
17104WAT     H251555   5.589   7.272   5.836
17105WAT      O51556   9.010   3.764   7.502
17105WAT     H151557   8.973   3.696   7.566
17105WAT     H251558   9.011   3.726   7.410
17106WAT      O51559   5.657   7.770   1.799
17106WAT     H151560   5.634   7.842   1.733
17106WAT     H251561   5.617   7.792   1.887
17107WAT      O51562   4.879   7.067   8.790
17107WAT     H151563   4.836   7.157   8.789
17107WAT     H251564   4.930   7.055   8.704
17108WAT      O51565   5.955   1.992   1.225
17108WAT     H151566   5.902   2.072   1.253
17108WAT     H251567   6.038   2.022   1.179
17109WAT      O51568   7.181   8.616   3.754
17109WAT     H151569   7.276   8.586   3.743
17109WAT     H251570   7.134   8.554   3.816
17110WAT      O51571   2.356   1.660   2.731
17110WAT     H151572   2.385   1.750   2.701
17110WAT     H251573   2.428   1.617   2.786
17111WAT      O51574   4.931   2.846   5.560
17111WAT     H151575   4.931   2.913   5.634
17111WAT     H251576   5.013   2.789   5.565
17112WAT      O51577   3.977   1.723   4.416
17112WAT     H151578   4.030   1.785   4.474
17112WAT     H251579   3.890   1.765   4.392
17113WAT      O51580   4.749   2.271   9.395
17113WAT     H151581   4.745   2.193   9.457
17113WAT     H251582   4.810   2.341   9.433
17114WAT      O51583   4.124   7.513   1.003
17114WAT     H151584   4.077   7.485   1.087
17114WAT     H251585   4.089   7.602   0.974
17115WAT      O51586   3.306   1.846   9.101
17115WAT     H151587   3.356   1.769   9.141
17115WAT     H251588   3.274   1.906   9.174
17116WAT      O51589   2.481   4.924   7.433
17116WAT     H151590   2.478   4.979   7.349
17116WAT     H251591   2.455   4.981   7.511
17117WAT      O51592   3.979   9.759   5.510
17117WAT     H151593   3.966   9.829   5.579
17117WAT     H251594   4.075   9.730   5.509
17118WAT      O51595   8.272   2.902   9.246
17118WAT     H151596   8.303   2.842   9.171
17118WAT     H251597   8.298   2.996   9.225
17119WAT      O51598   7.936   5.454   0.510
17119WAT     H151599   7.840   5.448   0.480
17119WAT     H251600   7.958   5.549   0.532
17120WAT      O51601   4.724   7.574   5.333
17120WAT     H151602   4.648   7.511   5.351
17120WAT     H251603   4.809   7.523   5.326
17121WAT      O51604   1.888   7.552   5.816
17121WAT     H151605   1.935   7.540   5.903
17121WAT     H251606   1.956   7.566   5.743
17122WAT      O51607   7.030   6.799   3.133
17122WAT     H151608   7.077   6.887   3.126
17122WAT     H251609   6.935   6.815   3.160
17123WAT      O51610   0.852   3.757   0.711
17123WAT     H151611   0.774   3.705   0.747
17123WAT     H251612   0.923   3.763   0.781
17124WAT      O51613   8.359   2.458   7.345
17124WAT     H151614   8.377   2.440   7.441
17124WAT     H251615   8.349   2.372   7.296
17125WAT      O51616   8.963   9.691   2.124
17125WAT     H151617   9.034   9.678   2.193
17125WAT     H251618   8.973   9.781   2.082
17126WAT      O51619   4.882   0.530   2.439
17126WAT     H151620   4.932   0.484   2.513
17126WAT     H251621   4.946   0.578   2.380
17127WAT      O51622   6.014   6.920   7.765
17127WAT     H151623   6.100   6.932   7.714
17127WAT     H251624   6.034   6.887   7.857
17128WAT      O51625   4.754   4.523   0.083
17128WAT     H151626   4.699   4.558   0.007
17128WAT     H251627   4.840   4.574   0.087
17129WAT      O51628   1.945   2.108   3.829
17129WAT     H151629   1.961   2.160   3.745
17129WAT     H251630   1.961   2.011   3.812
17130WAT      O51631   9.806   2.243   0.489
17130WAT     H151632   9.842   2.287   0.407
17130WAT     H251633   9.720   2.198   0.467
17131WAT      O51634   1.057   0.865   1.152
17131WAT     H151635   1.150   0.852   1.118
17131WAT     H251636   1.017   0.777   1.175
17132WAT      O51637   4.079   0.379   3.960
17132WAT     H151638   3.989   0.419   3.977
17132WAT     H251639   4.114   0.340   4.045
17133WAT      O51640   4.511   9.394   4.581
17133WAT     H151641   4.586   9.454   4.554
17133WAT     H251642   4.541   9.298   4.578
17134WAT      O51643   0.231   5.998   1.414
17134WAT     H151644   0.219   5.902   1.388
17134WAT     H251645   0.238   6.005   1.514
17135WAT      O51646   8.175   6.763   4.491
17135WAT     H151647   8.230   6.745   4.410
17135WAT     H251648   8.167   6.679   4.545
17136WAT      O51649   6.122   3.310   9.143
17136WAT     H151650   6.127   3.276   9.236
17136WAT     H251651   6.169   3.398   9.137
17137WAT      O51652   6.831   2.740   1.472
17137WAT     H151653   6.861   2.791   1.391
17137WAT     H251654   6.753   2.787   1.514
17138WAT      O51655   1.285   2.780   4.139
17138WAT     H151656   1.307   2.803   4.044
17138WAT     H251657   1.315   2.687   4.159
17139WAT      O51658   0.795   0.988   8.456
17139WAT     H151659   0.723   1.054   8.437
17139WAT     H251660   0.768   0.929   8.532
17140WAT      O51661   6.285   1.950   6.808
17140WAT     H151662   6.312   2.045   6.789
17140WAT     H251663   6.266   1.903   6.721
17141WAT      O51664   3.871   2.646   3.562
17141WAT     H151665   3.811   2.725   3.570
17141WAT     H251666   3.931   2.657   3.483
17142WAT      O51667   2.046   3.259   2.667
17142WAT     H151668   2.069   3.351   2.697
17142WAT     H251669   1.994   3.212   2.738
17143WAT      O51670   8.489   9.440   7.893
17143WAT     H151671   8.577   9.466   7.932
17143WAT     H251672   8.496   9.348   7.854
17144WAT      O51673   9.731   0.549   0.282
17144WAT     H151674   9.776   0.576   0.367
17144WAT     H251675   9.691   0.630   0.238
17145WAT      O51676   1.835   7.859   2.364
17145WAT     H151677   1.794   7.828   2.278
17145WAT     H251678   1.784   7.938   2.399
17146WAT      O51679   1.824   4.886   6.855
17146WAT     H151680   1.839   4.931   6.943
17146WAT     H251681   1.876   4.934   6.784
17147WAT      O51682   2.313   2.028   4.360
17147WAT     H151683   2.408   1.999   4.354
17147WAT     H251684   2.304   2.123   4.332
17148WAT      O51685   1.600   1.805   2.394
17148WAT     H151686   1.501   1.807   2.404
17148WAT     H251687   1.644   1.831   2.480
17149WAT      O51688   4.464   8.336   4.119
17149WAT     H151689   4.425   8.254   4.077
17149WAT     H251690   4.496   8.398   4.047
17150WAT      O51691   9.508   2.521   6.271
17150WAT     H151692   9.433   2.459   6.295
17150WAT     H251693   9.535   2.573   6.352
17151WAT      O51694   5.925   4.002   1.829
17151WAT     H151695   5.839   3.965   1.864
17151WAT     H251696   5.947   4.087   1.878
17152WAT      O51697   4.935   7.214   9.176
17152WAT     H151698   4.994   7.138   9.150
17152WAT     H251699   4.851   7.178   9.216
17153WAT      O51700   5.862   7.753   9.539
17153WAT     H151701   5.895   7.725   9.449
17153WAT     H251702   5.938   7.790   9.593
17154WAT      O51703   2.188   3.224   1.065
17154WAT     H151704   2.271   3.169   1.068
17154WAT     H251705   2.129   3.200   1.142
17155WAT      O51706   2.665   4.365   4.986
17155WAT     H151707   2.752   4.414   4.984
17155WAT     H251708   2.675   4.281   5.041
17156WAT      O51709   3.267   4.337   0.990
17156WAT     H151710   3.231   4.402   0.923
17156WAT     H251711   3.194   4.308   1.052
17157WAT      O51712   7.347   8.435   7.407
17157WAT     H151713   7.276   8.400   7.346
17157WAT     H251714   7.322   8.528   7.436
17158WAT      O51715   0.649   7.332   5.454
17158WAT     H151716   0.661   7.425   5.420
17158WAT     H251717   0.738   7.292   5.476
17159WAT      O51718   0.677   4.533   5.337
17159WAT     H151719   0.745   4.512   5.267
17159WAT     H251720   0.695   4.478   5.418
17160WAT      O51721   1.981   6.915   0.022
17160WAT     H151722   2.027   6.826   0.027
17160WAT     H251723   1.882   6.901   0.011
17161WAT      O51724   2.491   7.582   1.142
17161WAT     H151725   2.512   7.506   1.081
17161WAT     H251726   2.523   7.668   1.101
17162WAT      O51727   0.395   3.619   1.576
17162WAT     H151728   0.470   3.654   1.632
17162WAT     H251729   0.425   3.610   1.482
17163WAT      O51730   8.996   2.855   8.434
17163WAT     H151731   8.979   2.931   8.496
17163WAT     H251732   8.979   2.883   8.340
17164WAT      O51733   7.317   6.727   9.123
17164WAT     H151734   7.362   6.811   9.093
17164WAT     H251735   7.382   6.651   9.117
17165WAT      O51736   2.793   2.082   0.253
17165WAT     H151737   2.821   2.171   0.215
17165WAT     H251738   2.788   2.014   0.180
17166WAT      O51739   1.477   4.363   2.429
17166WAT     H151740   1.463   4.320   2.518
17166WAT     H251741   1.394   4.356   2.374
17167WAT      O51742   7.773   2.881   8.031
17167WAT     H151743   7.815   2.931   8.107
17167WAT     H251744   7.704   2.818   8.066
17168WAT      O51745   9.465   3.733   4.054
17168WAT     H151746   9.383   3.684   4.024
17168WAT     H251747   9.446   3.779   4.141
17169WAT      O51748   3.512   0.696   5.095
17169WAT     H151749   3.569   0.658   5.167
17169WAT     H251750   3.509   0.634   5.017
17170WAT      O51751   2.586   5.612   6.468
17170WAT     H151752   2.624   5.526   6.502
17170WAT     H251753   2.631   5.637   6.382
17171WAT      O51754   9.007   8.226   6.008
17171WAT     H151755   8.914   8.252   5.983
17171WAT     H251756   9.038   8.152   5.949
17172WAT      O51757   0.832   4.953   5.104
17172WAT     H151758   0.776   5.036   5.101
17172WAT     H251759   0.838   4.920   5.199
17173WAT      O51760   2.633   5.468   5.073
17173WAT     H151761   2.598   5.440   5.162
17173WAT     H251762   2.718   5.519   5.084
17174WAT      O51763   0.311   5.674   8.513
17174WAT     H151764   0.342   5.603   8.577
17174WAT     H251765   0.263   5.631   8.437
17175WAT      O51766   2.413   6.695   8.581
17175WAT     H151767   2.476   6.707   8.657
17175WAT     H251768   2.385   6.599   8.575
17176WAT      O51769   5.145   4.181   4.828
17176WAT     H151770   5.224   4.133   4.867
17176WAT     H251771   5.172   4.274   4.803
17177WAT      O51772   8.853   6.954   4.897
17177WAT     H151773   8.858   6.862   4.937
17177WAT     H251774   8.761   6.969   4.860
17178WAT      O51775   8.686   0.901   2.436
17178WAT     H151776   8.600   0.853   2.416
17178WAT     H251777   8.666   0.983   2.490
17179WAT      O51778   1.850   6.296   8.052
17179WAT     H151779   1.870   6.198   8.045
17179WAT     H251780   1.756   6.313   8.024
17180WAT      O51781   8.521   9.370   6.337
17180WAT     H151782   8.497   9.352   6.433
17180WAT     H251783   8.604   9.319   6.314
17181WAT      O51784   7.448   6.118   1.011
17181WAT     H151785   7.374   6.180   1.037
17181WAT     H251786   7.536   6.155   1.040
17182WAT      O51787   4.858   9.045   7.290
17182WAT     H151788   4.936   9.095   7.327
17182WAT     H251789   4.874   9.023   7.194
17183WAT      O51790   0.855   2.871   6.518
17183WAT     H151791   0.781   2.842   6.580
17183WAT     H251792   0.881   2.965   6.540
17184WAT      O51793   5.284   0.834   7.517
17184WAT     H151794   5.275   0.894   7.437
17184WAT     H251795   5.214   0.858   7.584
17185WAT      O51796   0.996   3.771   9.864
17185WAT     H151797   1.060   3.757   9.789
17185WAT     H251798   0.944   3.855   9.847
17186WAT      O51799   7.865   6.510   5.043
17186WAT     H151800   7.924   6.468   4.974
17186WAT     H251801   7.882   6.608   5.047
17187WAT      O51802   3.956   8.932   4.549
17187WAT     H151803   3.969   8.930   4.649
17187WAT     H251804   4.042   8.958   4.505
17188WAT      O51805   9.728   6.106   6.826
17188WAT     H151806   9.736   6.058   6.739
17188WAT     H251807   9.805   6.169   6.836
17189WAT      O51808   5.370   6.827   5.304
17189WAT     H151809   5.420   6.781   5.230
17189WAT     H251810   5.404   6.794   5.392
17190WAT      O51811   1.961   3.368   4.230
17190WAT     H151812   2.002   3.317   4.155
17190WAT     H251813   2.015   3.356   4.313
17191WAT      O51814   0.058   8.419   2.930
17191WAT     H151815  -0.036   8.452   2.928
17191WAT     H251816   0.076   8.365   2.848
17192WAT      O51817   4.308   6.528   0.536
17192WAT     H151818   4.273   6.580   0.614
17192WAT     H251819   4.292   6.579   0.452
17193WAT      O51820   4.445   2.408   8.105
17193WAT     H151821   4.544   2.415   8.108
17193WAT     H251822   4.418   2.315   8.080
17194WAT      O51823   2.106   3.700   2.023
17194WAT     H151824   2.105   3.746   1.934
17194WAT     H251825   2.159   3.754   2.088
17195WAT      O51826   2.146   2.814   8.370
17195WAT     H151827   2.128   2.911   8.385
17195WAT     H251828   2.242   2.794   8.391
17196WAT      O51829   8.380   4.763   9.113
17196WAT     H151830   8.476   4.753   9.087
17196WAT     H251831   8.321   4.726   9.041
17197WAT      O51832   0.140   2.578   0.754
17197WAT     H151833   0.156   2.571   0.655
17197WAT     H251834   0.170   2.668   0.785
17198WAT      O51835   9.775   7.342   9.505
17198WAT     H151836   9.746   7.316   9.597
17198WAT     H251837   9.812   7.262   9.458
17199WAT      O51838   4.667   4.016   7.047
17199WAT     H151839   4.692   4.091   7.107
17199WAT     H251840   4.584   4.040   6.996
17200WAT      O51841   0.873   0.715   4.680
17200WAT     H151842   0.954   0.701   4.737
17200WAT     H251843   0.800   0.757   4.735
17201WAT      O51844   7.618   0.782   4.137
17201WAT     H151845   7.661   0.692   4.131
17201WAT     H251846   7.570   0.790   4.225
17202WAT      O51847   1.968   4.856   9.599
17202WAT     H151848   2.032   4.825   9.669
17202WAT     H251849   2.006   4.837   9.508
17203WAT      O51850   9.855   0.279   1.818
17203WAT     H151851   9.790   0.315   1.885
17203WAT     H251852   9.846   0.179   1.813
17204WAT      O51853   0.440   9.429   1.223
17204WAT     H151854   0.532   9.392   1.223
17204WAT     H251855   0.391   9.396   1.304
17205WAT      O51856   5.635   1.398   8.768
17205WAT     H151857   5.684   1.348   8.839
17205WAT     H251858   5.692   1.403   8.685
17206WAT      O51859   6.861   6.020   6.405
17206WAT     H151860   6.803   6.100   6.423
17206WAT     H251861   6.826   5.970   6.326
17207WAT      O51862   7.657   5.963   5.774
17207WAT     H151863   7.684   5.976   5.678
17207WAT     H251864   7.724   5.904   5.819
17208WAT      O51865   4.312   5.729   4.786
17208WAT     H151866   4.320   5.766   4.693
17208WAT     H251867   4.387   5.762   4.842
17209WAT      O51868   7.542   4.485   8.478
17209WAT     H151869   7.471   4.425   8.516
17209WAT     H251870   7.498   4.567   8.439
17210WAT      O51871   6.957   4.694   6.550
17210WAT     H151872   6.859   4.676   6.560
17210WAT     H251873   7.009   4.634   6.610
17211WAT      O51874   5.580   9.610   1.947
17211WAT     H151875   5.641   9.685   1.921
17211WAT     H251876   5.491   9.621   1.902
17212WAT      O51877   9.694   4.865   2.175
17212WAT     H151878   9.605   4.819   2.167
17212WAT     H251879   9.764   4.798   2.199
17213WAT      O51880   1.056   7.871   8.201
17213WAT     H151881   1.036   7.832   8.111
17213WAT     H251882   1.020   7.811   8.272
17214WAT      O51883   5.244   0.167   1.435
17214WAT     H151884   5.334   0.195   1.468
17214WAT     H251885   5.216   0.083   1.483
17215WAT      O51886   7.174   6.043   3.064
17215WAT     H151887   7.260   6.074   3.022
17215WAT     H251888   7.191   6.016   3.158
17216WAT      O51889   9.020   4.367   3.480
17216WAT     H151890   9.052   4.452   3.521
17216WAT     H251891   8.931   4.344   3.518
17217WAT      O51892   1.019   5.374   7.053
17217WAT     H151893   1.067   5.414   6.975
17217WAT     H251894   1.051   5.280   7.067
17218WAT      O51895   4.195   0.614   5.203
17218WAT     H151896   4.236   0.523   5.204
17218WAT     H251897   4.223   0.663   5.121
17219WAT      O51898   5.936   0.279   8.492
17219WAT     H151899   5.987   0.215   8.435
17219WAT     H251900   5.861   0.231   8.537
17220WAT      O51901   1.067   7.123   3.561
17220WAT     H151902   1.022   7.066   3.631
17220WAT     H251903   1.080   7.068   3.478
17221WAT      O51904   9.611   3.493   3.851
17221WAT     H151905   9.587   3.457   3.761
17221WAT     H251906   9.706   3.525   3.849
17222WAT      O51907   2.857   4.925   5.190
17222WAT     H151908   2.854   5.024   5.207
17222WAT     H251909   2.883   4.909   5.095
17223WAT      O51910   4.712   0.715   9.459
17223WAT     H151911   4.649   0.765   9.519
17223WAT     H251912   4.718   0.620   9.488
17224WAT      O51913   2.864   4.184   6.490
17224WAT     H151914   2.872   4.224   6.399
17224WAT     H251915   2.795   4.234   6.543
17225WAT      O51916   3.555   7.959   3.697
17225WAT     H151917   3.584   7.968   3.793
17225WAT     H251918   3.626   7.998   3.638
17226WAT      O51919   3.901   9.516   7.598
17226WAT     H151920   3.859   9.434   7.559
17226WAT     H251921   3.883   9.519   7.696
17227WAT      O51922   0.088   5.428   7.174
17227WAT     H151923   0.071   5.340   7.217
17227WAT     H251924   0.002   5.478   7.163
17228WAT      O51925   0.195   6.802   4.004
17228WAT     H151926   0.096   6.802   3.997
17228WAT     H251927   0.222   6.764   4.093
17229WAT      O51928   8.433   7.929   0.754
17229WAT     H151929   8.417   7.849   0.812
17229WAT     H251930   8.530   7.935   0.731
17230WAT      O51931   2.868   0.808   1.008
17230WAT     H151932   2.812   0.888   1.032
17230WAT     H251933   2.825   0.760   0.931
17231WAT      O51934   4.040   6.965   3.214
17231WAT     H151935   3.983   6.908   3.155
17231WAT     H251936   4.005   7.059   3.213
17232WAT      O51937   1.948   2.027   3.228
17232WAT     H151938   1.939   2.049   3.131
17232WAT     H251939   1.860   1.999   3.265
17233WAT      O51940   9.772   1.759   8.052
17233WAT     H151941   9.822   1.840   8.083
17233WAT     H251942   9.798   1.738   7.958
17234WAT      O51943   6.146   0.926   8.462
17234WAT     H151944   6.187   0.910   8.552
17234WAT     H251945   6.050   0.900   8.464
17235WAT      O51946   3.482   1.766   8.847
17235WAT     H151947   3.469   1.785   8.749
17235WAT     H251948   3.417   1.820   8.900
17236WAT      O51949   7.134   9.629   7.913
17236WAT     H151950   7.150   9.718   7.957
17236WAT     H251951   7.218   9.599   7.868
17237WAT      O51952   4.645   8.083   5.211
17237WAT     H151953   4.572   8.114   5.150
17237WAT     H251954   4.628   8.116   5.304
17238WAT      O51955   7.637   3.183   3.770
17238WAT     H151956   7.687   3.201   3.854
17238WAT     H251957   7.657   3.090   3.738
17239WAT      O51958   1.502   8.433   6.349
17239WAT     H151959   1.578   8.452   6.288
17239WAT     H251960   1.426   8.393   6.298
17240WAT      O51961   9.368   1.850   7.147
17240WAT     H151962   9.375   1.792   7.065
17240WAT     H251963   9.303   1.809   7.211
17241WAT      O51964   1.367   5.564   0.231
17241WAT     H151965   1.440   5.518   0.180
17241WAT     H251966   1.397   5.579   0.325
17242WAT      O51967   4.551   8.906   7.113
17242WAT     H151968   4.525   8.826   7.167
17242WAT     H251969   4.646   8.928   7.130
17243WAT      O51970   1.066   7.765   7.066
17243WAT     H151971   1.079   7.863   7.082
17243WAT     H251972   1.048   7.749   6.969
17244WAT      O51973   3.788   7.128   7.165
17244WAT     H151974   3.756   7.077   7.245
17244WAT     H251975   3.827   7.215   7.196
17245WAT      O51976   6.553   6.475   8.751
17245WAT     H151977   6.484   6.480   8.824
17245WAT     H251978   6.627   6.414   8.779
17246WAT      O51979   5.456   9.554   4.010
17246WAT     H151980   5.446   9.652   3.989
17246WAT     H251981   5.553   9.529   4.007
17247WAT      O51982   0.120   7.065   4.006
17247WAT     H151983   0.172   7.147   4.031
17247WAT     H251984   0.179   6.984   4.016
17248WAT      O51985   9.271   9.366   1.927
17248WAT     H151986   9.345   9.433   1.942
17248WAT     H251987   9.224   9.389   1.842
17249WAT      O51988   4.421   8.220   9.097
17249WAT     H151989   4.428   8.153   9.022
17249WAT     H251990   4.469   8.304   9.070
17250WAT      O51991   6.347   1.711   2.709
17250WAT     H151992   6.434   1.663   2.703
17250WAT     H251993   6.356   1.789   2.771
17251WAT      O51994   1.428   7.854   1.176
17251WAT     H151995   1.474   7.882   1.092
17251WAT     H251996   1.371   7.774   1.158
17252WAT      O51997   7.873   2.380   9.437
17252WAT     H151998   7.802   2.309   9.433
17252WAT     H251999   7.932   2.372   9.357
17253WAT      O52000   6.021   4.464   3.894
17253WAT     H152001   5.941   4.524   3.888
17253WAT     H252002   6.056   4.445   3.802
17254WAT      O52003   0.386   2.078   1.971
17254WAT     H152004   0.403   2.006   1.903
17254WAT     H252005   0.472   2.101   2.017
17255WAT      O52006   4.252   8.659   6.918
17255WAT     H152007   4.277   8.750   6.888
17255WAT     H252008   4.334   8.603   6.928
17256WAT      O52009   7.040   4.735   5.983
17256WAT     H152010   7.137   4.758   5.971
17256WAT     H252011   7.001   4.709   5.894
17257WAT      O52012   9.732   9.057   3.789
17257WAT     H152013   9.752   8.966   3.824
17257WAT     H252014   9.815   9.099   3.754
17258WAT      O52015   1.532   8.342   4.343
17258WAT     H152016   1.620   8.362   4.386
17258WAT     H252017   1.491   8.428   4.311
17259WAT      O52018   8.469   4.668   8.332
17259WAT     H152019   8.555   4.672   8.281
17259WAT     H252020   8.395   4.643   8.270
17260WAT      O52021   5.556   5.425   8.543
17260WAT     H152022   5.513   5.488   8.478
17260WAT     H252023   5.627   5.473   8.595
17261WAT      O52024   4.951   7.702   2.590
17261WAT     H152025   4.898   7.719   2.673
17261WAT     H252026   5.048   7.696   2.614
17262WAT      O52027   1.710   4.103   0.210
17262WAT     H152028   1.656   4.072   0.132
17262WAT     H252029   1.776   4.032   0.236
17263WAT      O52030   1.690   4.535   7.423
17263WAT     H152031   1.640   4.449   7.430
17263WAT     H252032   1.693   4.565   7.327
17264WAT      O52033   2.286   5.812   9.218
17264WAT     H152034   2.252   5.786   9.309
17264WAT     H252035   2.376   5.771   9.203
17265WAT      O52036   3.641   4.418   3.392
17265WAT     H152037   3.553   4.457   3.420
17265WAT     H252038   3.698   4.401   3.472
17266WAT      O52039   7.479   5.505   0.847
17266WAT     H152040   7.436   5.502   0.938
17266WAT     H252041   7.576   5.482   0.856
17267WAT      O52042   0.485   4.763   6.547
17267WAT     H152043   0.466   4.798   6.456
17267WAT     H252044   0.422   4.688   6.567
17268WAT      O52045   1.775   5.983   7.350
17268WAT     H152046   1.798   5.992   7.253
17268WAT     H252047   1.852   5.942   7.399
17269WAT      O52048   3.933   4.977   6.152
17269WAT     H152049   3.887   5.064   6.133
17269WAT     H252050   4.011   4.966   6.092
17270WAT      O52051   5.119   0.898   9.194
17270WAT     H152052   5.020   0.904   9.180
17270WAT     H252053   5.164   0.889   9.105
17271WAT      O52054   3.818   8.241   1.295
17271WAT     H152055   3.830   8.149   1.257
17271WAT     H252056   3.772   8.298   1.228
17272WAT      O52057   9.679   7.485   7.692
17272WAT     H152058   9.583   7.510   7.698
17272WAT     H252059   9.692   7.393   7.729
17273WAT      O52060   4.800   5.919   4.274
17273WAT     H152061   4.769   5.993   4.215
17273WAT     H252062   4.889   5.942   4.313
17274WAT      O52063   6.314   5.968   3.689
17274WAT     H152064   6.236   5.917   3.723
17274WAT     H252065   6.283   6.056   3.653
17275WAT      O52066   3.933   1.716   1.637
17275WAT     H152067   3.847   1.755   1.604
17275WAT     H252068   3.956   1.757   1.726
17276WAT      O52069   8.697   9.230   1.971
17276WAT     H152070   8.783   9.252   1.923
17276WAT     H252071   8.641   9.312   1.976
17277WAT      O52072   3.144   6.306   6.469
17277WAT     H152073   3.137   6.403   6.445
17277WAT     H252074   3.095   6.251   6.402
17278WAT      O52075   1.221   3.574   8.540
17278WAT     H152076   1.186   3.485   8.569
17278WAT     H252077   1.286   3.562   8.465
17279WAT      O52078   1.924   6.881   1.543
17279WAT     H152079   2.008   6.832   1.520
17279WAT     H252080   1.933   6.924   1.633
17280WAT      O52081   4.537   7.890   9.253
17280WAT     H152082   4.612   7.931   9.200
17280WAT     H252083   4.490   7.962   9.305
17281WAT      O52084   3.340   4.258   3.090
17281WAT     H152085   3.325   4.349   3.128
17281WAT     H252086   3.400   4.206   3.150
17282WAT      O52087   7.131   3.764   7.617
17282WAT     H152088   7.228   3.770   7.639
17282WAT     H252089   7.120   3.747   7.519
17283WAT      O52090   6.985   0.459   1.891
17283WAT     H152091   7.037   0.461   1.976
17283WAT     H252092   7.048   0.460   1.813
17284WAT      O52093   5.917   7.680   9.300
17284WAT     H152094   5.992   7.736   9.265
17284WAT     H252095   5.925   7.587   9.264
17285WAT      O52096   9.558   7.882   9.428
17285WAT     H152097   9.637   7.834   9.467
17285WAT     H252098   9.569   7.980   9.440
17286WAT      O52099   6.104   3.940   0.069
17286WAT     H152100   6.091   3.950   0.168
17286WAT     H252101   6.180   3.998   0.039
17287WAT      O52102   0.410   9.568   2.742
17287WAT     H152103   0.438   9.567   2.646
17287WAT     H252104   0.359   9.652   2.761
17288WAT      O52105   9.875   8.062   6.801
17288WAT     H152106   9.955   8.055   6.740
17288WAT     H252107   9.893   8.132   6.870
17289WAT      O52108   7.064   2.523   0.085
17289WAT     H152109   7.159   2.515   0.117
17289WAT     H252110   7.005   2.550   0.162
17290WAT      O52111   3.026   2.673   5.916
17290WAT     H152112   3.008   2.586   5.961
17290WAT     H252113   3.054   2.741   5.984
17291WAT      O52114   6.622   0.286   0.581
17291WAT     H152115   6.662   0.234   0.505
17291WAT     H252116   6.633   0.234   0.666
17292WAT      O52117   2.039   9.801   1.951
17292WAT     H152118   2.087   9.796   1.863
17292WAT     H252119   1.941   9.786   1.936
17293WAT      O52120   0.685   9.418   4.755
17293WAT     H152121   0.674   9.491   4.687
17293WAT     H252122   0.698   9.331   4.708
17294WAT      O52123   6.540   5.385   3.773
17294WAT     H152124   6.522   5.308   3.712
17294WAT     H252125   6.467   5.392   3.841
17295WAT      O52126   2.838   6.349   8.764
17295WAT     H152127   2.926   6.337   8.809
17295WAT     H252128   2.787   6.421   8.809
17296WAT      O52129   5.034   4.885   8.032
17296WAT     H152130   5.125   4.917   8.004
17296WAT     H252131   5.022   4.790   8.003
17297WAT      O52132   7.683   3.423   2.302
17297WAT     H152133   7.627   3.343   2.322
17297WAT     H252134   7.778   3.406   2.328
17298WAT      O52135   1.936   0.939   2.299
17298WAT     H152136   1.992   1.013   2.262
17298WAT     H252137   1.870   0.909   2.230
17299WAT      O52138   0.597   0.467   1.741
17299WAT     H152139   0.589   0.530   1.818
17299WAT     H252140   0.665   0.397   1.762
17300WAT      O52141   5.776   2.589   4.023
17300WAT     H152142   5.682   2.560   4.040
17300WAT     H252143   5.815   2.534   3.949
17301WAT      O52144   2.396   3.905   3.605
17301WAT     H152145   2.351   3.890   3.517
17301WAT     H252146   2.340   3.866   3.678
17302WAT      O52147   1.244   1.221   9.568
17302WAT     H152148   1.283   1.231   9.477
17302WAT     H252149   1.167   1.157   9.565
17303WAT      O52150   1.170   4.992   9.850
17303WAT     H152151   1.087   5.003   9.903
17303WAT     H252152   1.153   5.017   9.755
17304WAT      O52153   8.625   2.316   8.433
17304WAT     H152154   8.534   2.355   8.422
17304WAT     H252155   8.661   2.289   8.343
17305WAT      O52156   7.057   2.115   3.024
17305WAT     H152157   7.151   2.120   3.057
17305WAT     H252158   7.055   2.067   2.936
17306WAT      O52159   8.038   7.268   0.901
17306WAT     H152160   8.108   7.267   0.830
17306WAT     H252161   8.066   7.330   0.975
17307WAT      O52162   9.335   6.406   8.829
17307WAT     H152163   9.408   6.473   8.820
17307WAT     H252164   9.291   6.416   8.919
17308WAT      O52165   4.538   9.409   7.285
17308WAT     H152166   4.544   9.335   7.218
17308WAT     H252167   4.456   9.463   7.268
17309WAT      O52168   6.655   8.166   0.275
17309WAT     H152169   6.672   8.096   0.345
17309WAT     H252170   6.713   8.245   0.292
17310WAT      O52171   7.513   2.114   2.553
17310WAT     H152172   7.586   2.171   2.592
17310WAT     H252173   7.554   2.039   2.501
17311WAT      O52174   1.855   4.896   6.357
17311WAT     H152175   1.761   4.924   6.377
17311WAT     H252176   1.916   4.936   6.425
17312WAT      O52177   2.064   2.894   1.580
17312WAT     H152178   2.133   2.919   1.511
17312WAT     H252179   2.110   2.852   1.658
17313WAT      O52180   8.383   4.842   6.673
17313WAT     H152181   8.372   4.939   6.694
17313WAT     H252182   8.383   4.830   6.574
17314WAT      O52183   8.756   4.622   5.520
17314WAT     H152184   8.708   4.687   5.579
17314WAT     H252185   8.829   4.577   5.572
17315WAT      O52186   7.339   6.627   6.720
17315WAT     H152187   7.286   6.542   6.722
17315WAT     H252188   7.430   6.608   6.683
17316WAT      O52189   7.575   8.898   9.727
17316WAT     H152190   7.569   8.823   9.793
17316WAT     H252191   7.591   8.860   9.635
17317WAT      O52192   8.550   0.110   6.092
17317WAT     H152193   8.582   0.018   6.114
17317WAT     H252194   8.455   0.120   6.122
17318WAT      O52195   7.498   2.313   1.100
17318WAT     H152196   7.519   2.354   1.011
17318WAT     H252197   7.559   2.351   1.169
17319WAT      O52198   5.332   2.065   9.185
17319WAT     H152199   5.283   2.123   9.120
17319WAT     H252200   5.421   2.106   9.205
17320WAT      O52201   1.473   7.091   5.212
17320WAT     H152202   1.491   7.003   5.254
17320WAT     H252203   1.529   7.162   5.255
17321WAT      O52204   2.637   4.019   3.538
17321WAT     H152205   2.564   3.975   3.591
17321WAT     H252206   2.617   4.117   3.530
17322WAT      O52207   1.791   5.578   1.268
17322WAT     H152208   1.845   5.661   1.276
17322WAT     H252209   1.787   5.550   1.172
17323WAT      O52210   2.985   8.551   4.534
17323WAT     H152211   3.075   8.515   4.558
17323WAT     H252212   2.970   8.638   4.581
17324WAT      O52213   3.265   1.084   3.488
17324WAT     H152214   3.292   1.179   3.473
17324WAT     H252215   3.187   1.061   3.430
17325WAT      O52216   5.758   6.389   1.752
17325WAT     H152217   5.825   6.429   1.814
17325WAT     H252218   5.803   6.325   1.690
17326WAT      O52219   0.219   4.888   3.360
17326WAT     H152220   0.178   4.800   3.385
17326WAT     H252221   0.250   4.935   3.442
17327WAT      O52222   6.358   7.853   9.169
17327WAT     H152223   6.416   7.788   9.217
17327WAT     H252224   6.262   7.837   9.194
17328WAT      O52225   7.281   6.657   0.261
17328WAT     H152226   7.204   6.654   0.326
17328WAT     H252227   7.253   6.707   0.179
17329WAT      O52228   0.503   8.544   8.618
17329WAT     H152229   0.473   8.466   8.563
17329WAT     H252230   0.431   8.614   8.619
17330WAT      O52231   5.109   7.271   7.309
17330WAT     H152232   5.049   7.256   7.387
17330WAT     H252233   5.063   7.245   7.225
17331WAT      O52234   6.806   1.970   5.464
17331WAT     H152235   6.789   2.068   5.460
17331WAT     H252236   6.846   1.940   5.377
17332WAT      O52237   5.275   6.695   0.808
17332WAT     H152238   5.360   6.645   0.797
17332WAT     H252239   5.205   6.657   0.746
17333WAT      O52240   9.395   8.403   6.987
17333WAT     H152241   9.409   8.403   7.086
17333WAT     H252242   9.331   8.476   6.963
17334WAT      O52243   6.820   7.041   6.898
17334WAT     H152244   6.867   7.064   6.983
17334WAT     H252245   6.723   7.022   6.917
17335WAT      O52246   7.544   3.977   7.797
17335WAT     H152247   7.582   4.065   7.826
17335WAT     H252248   7.457   3.992   7.750
17336WAT      O52249   2.713   1.577   4.618
17336WAT     H152250   2.636   1.568   4.681
17336WAT     H252251   2.700   1.514   4.541
17337WAT      O52252   2.835   2.390   1.279
17337WAT     H152253   2.902   2.427   1.343
17337WAT     H252254   2.777   2.323   1.326
17338WAT      O52255   3.720   5.882   0.714
17338WAT     H152256   3.644   5.818   0.702
17338WAT     H252257   3.700   5.967   0.665
17339WAT      O52258   6.584   7.529   1.170
17339WAT     H152259   6.678   7.501   1.154
17339WAT     H252260   6.522   7.467   1.121
17340WAT      O52261   4.757   3.299   8.785
17340WAT     H152262   4.668   3.343   8.796
17340WAT     H252263   4.830   3.365   8.802
17341WAT      O52264   8.343   2.238   0.751
17341WAT     H152265   8.280   2.185   0.808
17341WAT     H252266   8.292   2.282   0.677
17342WAT      O52267   4.930   5.280   6.303
17342WAT     H152268   4.833   5.271   6.279
17342WAT     H252269   4.984   5.227   6.238
17343WAT      O52270   6.078   5.984   1.938
17343WAT     H152271   6.135   5.975   2.020
17343WAT     H252272   6.125   5.942   1.860
17344WAT      O52273   4.023   7.062   6.223
17344WAT     H152274   3.962   7.051   6.145
17344WAT     H252275   4.049   7.158   6.233
17345WAT      O52276   0.080   0.877   5.626
17345WAT     H152277   0.078   0.971   5.593
17345WAT     H252278   0.129   0.820   5.560
17346WAT      O52279   8.205   5.664   5.025
17346WAT     H152280   8.136   5.712   5.078
17346WAT     H252281   8.249   5.728   4.961
17347WAT      O52282   1.788   6.673   1.981
17347WAT     H152283   1.852   6.671   1.904
17347WAT     H252284   1.828   6.724   2.057
17348WAT      O52285   1.585   2.307   5.401
17348WAT     H152286   1.541   2.349   5.480
17348WAT     H252287   1.635   2.226   5.429
17349WAT      O52288   0.524   3.724   2.340
17349WAT     H152289   0.462   3.660   2.385
17349WAT     H252290   0.587   3.763   2.407
17350WAT      O52291   7.566   6.438   5.742
17350WAT     H152292   7.587   6.345   5.774
17350WAT     H252293   7.589   6.445   5.645
17351WAT      O52294   1.228   6.319   3.561
17351WAT     H152295   1.184   6.231   3.577
17351WAT     H252296   1.159   6.392   3.566
17352WAT      O52297   3.693   1.147   2.898
17352WAT     H152298   3.774   1.092   2.879
17352WAT     H252299   3.674   1.145   2.997
17353WAT      O52300   3.136   3.517   8.291
17353WAT     H152301   3.196   3.584   8.335
17353WAT     H252302   3.109   3.551   8.201
17354WAT      O52303   2.070   8.677   1.393
17354WAT     H152304   2.127   8.635   1.463
17354WAT     H252305   2.031   8.762   1.428
17355WAT      O52306   4.727   1.058   1.176
17355WAT     H152307   4.680   0.987   1.124
17355WAT     H252308   4.766   1.019   1.259
17356WAT      O52309   8.926   1.124   5.392
17356WAT     H152310   8.910   1.219   5.366
17356WAT     H252311   8.844   1.087   5.437
17357WAT      O52312   8.447   8.157   2.676
17357WAT     H152313   8.456   8.087   2.605
17357WAT     H252314   8.355   8.152   2.716
17358WAT      O52315   3.774   2.355   2.407
17358WAT     H152316   3.843   2.287   2.434
17358WAT     H252317   3.702   2.310   2.354
17359WAT      O52318   2.479   4.121   9.403
17359WAT     H152319   2.571   4.119   9.443
17359WAT     H252320   2.452   4.216   9.388
17360WAT      O52321   6.553   5.749   6.260
17360WAT     H152322   6.517   5.715   6.347
17360WAT     H252323   6.499   5.713   6.184
17361WAT      O52324   4.109   5.430   8.041
17361WAT     H152325   4.198   5.470   8.062
17361WAT     H252326   4.081   5.369   8.115
17362WAT      O52327   8.226   1.966   5.139
17362WAT     H152328   8.168   1.985   5.218
17362WAT     H252329   8.217   2.041   5.073
17363WAT      O52330   1.659   1.718   9.407
17363WAT     H152331   1.647   1.766   9.494
17363WAT     H252332   1.578   1.662   9.388
17364WAT      O52333   1.117   5.761   5.866
17364WAT     H152334   1.180   5.713   5.805
17364WAT     H252335   1.158   5.771   5.956
17365WAT      O52336   5.590   1.554   2.287
17365WAT     H152337   5.593   1.631   2.224
17365WAT     H252338   5.539   1.479   2.246
17366WAT      O52339   0.126   6.210   3.569
17366WAT     H152340   0.062   6.141   3.605
17366WAT     H252341   0.187   6.166   3.503
17367WAT      O52342   9.220   5.202   1.093
17367WAT     H152343   9.140   5.222   1.150
17367WAT     H252344   9.274   5.286   1.080
17368WAT      O52345   0.668   9.325   5.650
17368WAT     H152346   0.760   9.304   5.617
17368WAT     H252347   0.603   9.318   5.574
17369WAT      O52348   9.183   6.874   8.159
17369WAT     H152349   9.198   6.942   8.087
17369WAT     H252350   9.261   6.812   8.162
17370WAT      O52351   0.875   2.233   0.057
17370WAT     H152352   0.951   2.294   0.040
17370WAT     H252353   0.816   2.228  -0.024
17371WAT      O52354   8.113   5.184   3.769
17371WAT     H152355   8.074   5.245   3.838
17371WAT     H252356   8.181   5.124   3.812
17372WAT      O52357   2.707   4.288   0.383
17372WAT     H152358   2.630   4.351   0.375
17372WAT     H252359   2.782   4.333   0.431
17373WAT      O52360   7.393   0.818   3.459
17373WAT     H152361   7.477   0.856   3.498
17373WAT     H252362   7.328   0.893   3.441
17374WAT      O52363   7.103   6.471   8.668
17374WAT     H152364   7.150   6.533   8.731
17374WAT     H252365   7.013   6.448   8.705
17375WAT      O52366   1.480   5.011   2.020
17375WAT     H152367   1.574   4.975   2.020
17375WAT     H252368   1.482   5.110   2.007
17376WAT      O52369   1.963   2.432   3.000
17376WAT     H152370   2.061   2.413   3.007
17376WAT     H252371   1.920   2.418   3.088
17377WAT      O52372   2.158   3.325   6.468
17377WAT     H152373   2.157   3.420   6.499
17377WAT     H252374   2.247   3.303   6.428
17378WAT      O52375   6.821   3.483   4.110
17378WAT     H152376   6.804   3.405   4.050
17378WAT     H252377   6.781   3.565   4.070
17379WAT      O52378   9.496   2.992   1.906
17379WAT     H152379   9.487   3.092   1.901
17379WAT     H252380   9.422   2.950   1.852
17380WAT      O52381   9.611   7.981   9.865
17380WAT     H152382   9.663   7.961   9.948
17380WAT     H252383   9.517   8.004   9.890
17381WAT      O52384   1.041   3.745   3.684
17381WAT     H152385   1.140   3.747   3.695
17381WAT     H252386   1.007   3.839   3.673
17382WAT      O52387   2.387   9.578   8.483
17382WAT     H152388   2.475   9.588   8.436
17382WAT     H252389   2.402   9.565   8.580
17383WAT      O52390   7.217   6.816   1.357
17383WAT     H152391   7.153   6.891   1.372
17383WAT     H252392   7.193   6.740   1.418
17384WAT      O52393   0.272   3.153   9.785
17384WAT     H152394   0.243   3.059   9.767
17384WAT     H252395   0.366   3.165   9.755
17385WAT      O52396   7.210   0.616   3.456
17385WAT     H152397   7.272   0.537   3.448
17385WAT     H252398   7.260   0.699   3.432
17386WAT      O52399   3.727   1.322   2.662
17386WAT     H152400   3.695   1.266   2.738
17386WAT     H252401   3.728   1.267   2.578
17387WAT      O52402   3.664   1.361   4.653
17387WAT     H152403   3.631   1.445   4.608
17387WAT     H252404   3.622   1.282   4.609
17388WAT      O52405   6.228   5.062   2.320
17388WAT     H152406   6.241   5.139   2.258
17388WAT     H252407   6.131   5.056   2.345
17389WAT      O52408   9.465   4.937   7.081
17389WAT     H152409   9.558   4.965   7.105
17389WAT     H252410   9.405   4.950   7.160
17390WAT      O52411   5.722   7.690   6.001
17390WAT     H152412   5.771   7.607   5.976
17390WAT     H252413   5.749   7.718   6.094
17391WAT      O52414   4.668   0.986   2.583
17391WAT     H152415   4.684   0.892   2.613
17391WAT     H252416   4.588   1.023   2.630
17392WAT      O52417   4.297   6.668   0.283
17392WAT     H152418   4.367   6.668   0.212
17392WAT     H252419   4.310   6.747   0.343
17393WAT      O52420   2.306   0.640   6.237
17393WAT     H152421   2.286   0.615   6.142
17393WAT     H252422   2.379   0.709   6.238
17394WAT      O52423   4.490   7.174   3.038
17394WAT     H152424   4.581   7.154   3.075
17394WAT     H252425   4.421   7.145   3.104
17395WAT      O52426   3.821   0.786   1.938
17395WAT     H152427   3.779   0.697   1.919
17395WAT     H252428   3.767   0.858   1.894
17396WAT      O52429   7.527   7.075   8.422
17396WAT     H152430   7.580   6.999   8.462
17396WAT     H252431   7.431   7.049   8.416
17397WAT      O52432   1.564   4.767   3.439
17397WAT     H152433   1.592   4.804   3.350
17397WAT     H252434   1.464   4.776   3.448
17398WAT      O52435   9.572   3.408   1.970
17398WAT     H152436   9.491   3.359   1.938
17398WAT     H252437   9.545   3.474   2.041
17399WAT      O52438   6.918   0.249   0.991
17399WAT     H152439   6.910   0.162   1.039
17399WAT     H252440   6.990   0.304   1.033
17400WAT      O52441   7.131   4.070   3.502
17400WAT     H152442   7.084   4.014   3.434
17400WAT     H252443   7.106   4.039   3.594
17401WAT      O52444   5.317   2.204   7.767
17401WAT     H152445   5.318   2.303   7.750
17401WAT     H252446   5.410   2.173   7.785
17402WAT      O52447   0.237   3.665   4.091
17402WAT     H152448   0.308   3.734   4.101
17402WAT     H252449   0.232   3.637   3.995
17403WAT      O52450   4.412   5.915   2.112
17403WAT     H152451   4.376   5.837   2.060
17403WAT     H252452   4.489   5.884   2.167
17404WAT      O52453   8.497   9.012   1.180
17404WAT     H152454   8.494   9.057   1.091
17404WAT     H252455   8.592   9.002   1.210
17405WAT      O52456   1.857   2.274   9.313
17405WAT     H152457   1.906   2.324   9.242
17405WAT     H252458   1.845   2.179   9.284
17406WAT      O52459   3.591   9.835   1.437
17406WAT     H152460   3.570   9.864   1.530
17406WAT     H252461   3.506   9.809   1.390
17407WAT      O52462   8.304   5.147   2.228
17407WAT     H152463   8.353   5.234   2.236
17407WAT     H252464   8.364   5.078   2.189
17408WAT      O52465   4.034   8.844   9.115
17408WAT     H152466   3.943   8.883   9.100
17408WAT     H252467   4.072   8.815   9.027
17409WAT      O52468   0.226   4.504   2.027
17409WAT     H152469   0.272   4.484   1.940
17409WAT     H252470   0.130   4.525   2.009
17410WAT      O52471   9.113   7.713   3.743
17410WAT     H152472   9.094   7.668   3.656
17410WAT     H252473   9.041   7.692   3.809
17411WAT      O52474   4.799   0.150   7.864
17411WAT     H152475   4.700   0.139   7.870
17411WAT     H252476   4.841   0.111   7.945
17412WAT      O52477   0.871   1.363   1.774
17412WAT     H152478   0.776   1.375   1.745
17412WAT     H252479   0.877   1.282   1.833
17413WAT      O52480   4.107   8.326   7.653
17413WAT     H152481   4.181   8.379   7.695
17413WAT     H252482   4.044   8.295   7.724
17414WAT      O52483   2.613   3.620   8.938
17414WAT     H152484   2.709   3.594   8.924
17414WAT     H252485   2.606   3.719   8.946
17415WAT      O52486   0.281   0.256   3.461
17415WAT     H152487   0.332   0.252   3.547
17415WAT     H252488   0.307   0.178   3.404
17416WAT      O52489   2.919   3.395   0.611
17416WAT     H152490   2.982   3.384   0.533
17416WAT     H252491   2.826   3.375   0.581
17417WAT      O52492   6.246   3.753   9.384
17417WAT     H152493   6.187   3.805   9.445
17417WAT     H252494   6.204   3.746   9.294
17418WAT      O52495   9.804   0.040   7.439
17418WAT     H152496   9.829   0.112   7.374
17418WAT     H252497   9.711   0.057   7.473
17419WAT      O52498   7.728   3.340   4.800
17419WAT     H152499   7.716   3.344   4.701
17419WAT     H252500   7.639   3.339   4.845
17420WAT      O52501   1.232   5.939   9.643
17420WAT     H152502   1.236   5.946   9.743
17420WAT     H252503   1.319   5.970   9.604
17421WAT      O52504   9.756   5.775   8.247
17421WAT     H152505   9.759   5.866   8.287
17421WAT     H252506   9.685   5.771   8.176
17422WAT      O52507   5.993   7.402   8.518
17422WAT     H152508   6.012   7.346   8.438
17422WAT     H252509   6.006   7.347   8.601
17423WAT      O52510   1.734   8.942   0.499
17423WAT     H152511   1.691   9.026   0.466
17423WAT     H252512   1.680   8.904   0.573
17424WAT      O52513   4.717   2.790   7.065
17424WAT     H152514   4.648   2.731   7.108
17424WAT     H252515   4.736   2.756   6.973
17425WAT      O52516   5.378   5.219   6.882
17425WAT     H152517   5.378   5.134   6.934
17425WAT     H252518   5.471   5.256   6.878
17426WAT      O52519   7.865   8.677   3.410
17426WAT     H152520   7.872   8.615   3.332
17426WAT     H252521   7.928   8.648   3.482
17427WAT      O52522   1.723   9.572   2.276
17427WAT     H152523   1.775   9.657   2.272
17427WAT     H252524   1.785   9.495   2.292
17428WAT      O52525   1.655   6.805   6.266
17428WAT     H152526   1.736   6.778   6.318
17428WAT     H252527   1.681   6.873   6.198
17429WAT      O52528   0.202   1.426   9.221
17429WAT     H152529   0.163   1.403   9.311
17429WAT     H252530   0.149   1.501   9.181
17430WAT      O52531   8.849   8.789   0.430
17430WAT     H152532   8.927   8.728   0.440
17430WAT     H252533   8.818   8.819   0.520
17431WAT      O52534   3.974   5.210   0.651
17431WAT     H152535   3.929   5.292   0.616
17431WAT     H252536   3.914   5.165   0.717
17432WAT      O52537   2.515   4.200   6.416
17432WAT     H152538   2.478   4.276   6.361
17432WAT     H252539   2.518   4.117   6.360
17433WAT      O52540   7.172   1.496   1.173
17433WAT     H152541   7.096   1.442   1.138
17433WAT     H252542   7.136   1.569   1.232
17434WAT      O52543   6.811   6.478   9.207
17434WAT     H152544   6.820   6.523   9.118
17434WAT     H252545   6.726   6.506   9.251
17435WAT      O52546   4.551   0.165   8.844
17435WAT     H152547   4.503   0.252   8.858
17435WAT     H252548   4.485   0.091   8.831
17436WAT      O52549   7.028   3.456   9.014
17436WAT     H152550   7.074   3.397   8.946
17436WAT     H252551   7.046   3.552   8.992
17437WAT      O52552   2.610   7.769   3.767
17437WAT     H152553   2.583   7.751   3.862
17437WAT     H252554   2.681   7.704   3.739
17438WAT      O52555   9.849   2.524   3.839
17438WAT     H152556   9.829   2.487   3.749
17438WAT     H252557   9.766   2.521   3.895
17439WAT      O52558   7.319   9.540   0.856
17439WAT     H152559   7.409   9.506   0.828
17439WAT     H252560   7.321   9.639   0.862
17440WAT      O52561   0.731   0.787   8.617
17440WAT     H152562   0.688   0.720   8.677
17440WAT     H252563   0.829   0.794   8.639
17441WAT      O52564   6.811   1.236   6.415
17441WAT     H152565   6.808   1.313   6.479
17441WAT     H252566   6.788   1.151   6.464
17442WAT      O52567   5.897   5.103   5.201
17442WAT     H152568   5.865   5.190   5.163
17442WAT     H252569   5.993   5.111   5.227
17443WAT      O52570   8.125   2.805   6.367
17443WAT     H152571   8.069   2.852   6.299
17443WAT     H252572   8.119   2.706   6.354
17444WAT      O52573   2.062   3.601   4.418
17444WAT     H152574   2.049   3.622   4.321
17444WAT     H252575   2.104   3.510   4.426
17445WAT      O52576   9.718   2.476   3.287
17445WAT     H152577   9.779   2.407   3.249
17445WAT     H252578   9.771   2.552   3.323
17446WAT      O52579   7.623   5.760   6.253
17446WAT     H152580   7.555   5.744   6.325
17446WAT     H252581   7.673   5.845   6.273
17447WAT      O52582   4.221   0.072   6.586
17447WAT     H152583   4.292   0.106   6.647
17447WAT     H252584   4.208  -0.026   6.600
17448WAT      O52585   4.406   7.597   4.575
17448WAT     H152586   4.458   7.537   4.514
17448WAT     H252587   4.468   7.659   4.622
17449WAT      O52588   3.561   5.783   8.972
17449WAT     H152589   3.557   5.764   9.070
17449WAT     H252590   3.646   5.830   8.950
17450WAT      O52591   0.736   8.168   2.396
17450WAT     H152592   0.672   8.091   2.391
17450WAT     H252593   0.802   8.160   2.321
17451WAT      O52594   2.611   1.384   3.559
17451WAT     H152595   2.621   1.286   3.576
17451WAT     H252596   2.632   1.403   3.463
17452WAT      O52597   9.563   5.444   5.441
17452WAT     H152598   9.546   5.351   5.408
17452WAT     H252599   9.648   5.479   5.401
17453WAT      O52600   7.089   8.371   8.147
17453WAT     H152601   7.060   8.434   8.219
17453WAT     H252602   7.031   8.385   8.066
17454WAT      O52603   1.825   2.809   7.218
17454WAT     H152604   1.771   2.739   7.264
17454WAT     H252605   1.903   2.767   7.172
17455WAT      O52606   7.291   7.858   7.314
17455WAT     H152607   7.236   7.894   7.238
17455WAT     H252608   7.279   7.917   7.394
17456WAT      O52609   4.501   8.100   2.597
17456WAT     H152610   4.407   8.071   2.577
17456WAT     H252611   4.501   8.166   2.672
17457WAT      O52612   9.100   8.218   6.718
17457WAT     H152613   9.199   8.220   6.726
17457WAT     H252614   9.070   8.126   6.694
17458WAT      O52615   8.824   0.520   7.269
17458WAT     H152616   8.822   0.434   7.217
17458WAT     H252617   8.731   0.553   7.282
17459WAT      O52618   1.051   3.105   2.567
17459WAT     H152619   1.101   3.192   2.575
17459WAT     H252620   1.027   3.089   2.472
17460WAT      O52621   5.420   1.133   2.517
17460WAT     H152622   5.470   1.170   2.594
17460WAT     H252623   5.388   1.041   2.539
17461WAT      O52624   5.291   0.579   7.463
17461WAT     H152625   5.289   0.679   7.462
17461WAT     H252626   5.316   0.545   7.372
17462WAT      O52627   0.077   2.911   3.316
17462WAT     H152628   0.165   2.958   3.323
17462WAT     H252629   0.049   2.909   3.220
17463WAT      O52630   5.129   8.110   2.119
17463WAT     H152631   5.127   8.209   2.135
17463WAT     H252632   5.103   8.091   2.025
17464WAT      O52633   4.146   5.334   3.255
17464WAT     H152634   4.072   5.398   3.275
17464WAT     H252635   4.233   5.384   3.250
17465WAT      O52636   4.729   0.977   6.164
17465WAT     H152637   4.637   0.986   6.125
17465WAT     H252638   4.755   0.881   6.166
17466WAT      O52639   7.758   5.120   9.352
17466WAT     H152640   7.739   5.037   9.301
17466WAT     H252641   7.703   5.195   9.315
17467WAT      O52642   7.772   3.476   4.129
17467WAT     H152643   7.853   3.508   4.080
17467WAT     H252644   7.799   3.433   4.215
17468WAT      O52645   0.789   9.362   5.884
17468WAT     H152646   0.860   9.429   5.863
17468WAT     H252647   0.727   9.353   5.806
17469WAT      O52648   9.603   1.146   8.577
17469WAT     H152649   9.598   1.139   8.677
17469WAT     H252650   9.510   1.149   8.539
17470WAT      O52651   0.429   5.700   9.005
17470WAT     H152652   0.409   5.735   9.096
17470WAT     H252653   0.428   5.775   8.939
17471WAT      O52654   7.028   7.205   1.579
17471WAT     H152655   6.935   7.168   1.585
17471WAT     H252656   7.028   7.301   1.610
17472WAT      O52657   6.352   9.681   6.810
17472WAT     H152658   6.330   9.752   6.877
17472WAT     H252659   6.309   9.595   6.838
17473WAT      O52660   2.650   1.659   8.028
17473WAT     H152661   2.733   1.683   7.977
17473WAT     H252662   2.580   1.625   7.965
17474WAT      O52663   0.136   9.213   6.755
17474WAT     H152664   0.084   9.183   6.835
17474WAT     H252665   0.213   9.270   6.785
17475WAT      O52666   7.772   0.527   5.534
17475WAT     H152667   7.685   0.561   5.571
17475WAT     H252668   7.757   0.437   5.492
17476WAT      O52669   9.674   0.159   5.851
17476WAT     H152670   9.624   0.075   5.832
17476WAT     H252671   9.765   0.154   5.808
17477WAT      O52672   0.339   9.640   5.550
17477WAT     H152673   0.336   9.732   5.587
17477WAT     H252674   0.248   9.598   5.556
17478WAT      O52675   8.752   1.923   2.131
17478WAT     H152676   8.661   1.955   2.103
17478WAT     H252677   8.756   1.823   2.122
17479WAT      O52678   6.976   6.224   7.092
17479WAT     H152679   6.888   6.240   7.048
17479WAT     H252680   7.045   6.285   7.052
17480WAT      O52681   5.249   9.401   7.987
17480WAT     H152682   5.176   9.434   8.047
17480WAT     H252683   5.300   9.328   8.033
17481WAT      O52684   3.708   4.435   0.949
17481WAT     H152685   3.754   4.411   0.863
17481WAT     H252686   3.682   4.352   0.997
17482WAT      O52687   1.915   0.832   4.605
17482WAT     H152688   1.998   0.862   4.652
17482WAT     H252689   1.840   0.894   4.628
17483WAT      O52690   5.180   3.191   2.519
17483WAT     H152691   5.199   3.169   2.615
17483WAT     H252692   5.090   3.155   2.493
17484WAT      O52693   6.766   8.190   2.378
17484WAT     H152694   6.682   8.141   2.352
17484WAT     H252695   6.820   8.133   2.440
17485WAT      O52696   4.800   0.821   0.723
17485WAT     H152697   4.720   0.831   0.664
17485WAT     H252698   4.854   0.743   0.692
17486WAT      O52699   4.091   5.919   7.454
17486WAT     H152700   4.042   6.003   7.430
17486WAT     H252701   4.030   5.857   7.503
17487WAT      O52702   6.172   0.743   2.147
17487WAT     H152703   6.254   0.705   2.104
17487WAT     H252704   6.198   0.822   2.204
17488WAT      O52705   5.725   2.252   5.786
17488WAT     H152706   5.823   2.255   5.804
17488WAT     H252707   5.706   2.181   5.718
17489WAT      O52708   9.414   4.403   5.026
17489WAT     H152709   9.365   4.467   4.967
17489WAT     H252710   9.463   4.336   4.970
17490WAT      O52711   0.226   5.933   5.030
17490WAT     H152712   0.299   5.941   4.961
17490WAT     H252713   0.214   5.838   5.056
17491WAT      O52714   0.709   7.137   3.823
17491WAT     H152715   0.733   7.065   3.887
17491WAT     H252716   0.788   7.158   3.765
17492WAT      O52717   3.076   4.940   7.687
17492WAT     H152718   3.038   5.016   7.740
17492WAT     H252719   3.050   4.949   7.591
17493WAT      O52720   9.577   4.337   0.906
17493WAT     H152721   9.634   4.381   0.837
17493WAT     H252722   9.580   4.238   0.895
17494WAT      O52723   8.563   3.630   1.824
17494WAT     H152724   8.550   3.663   1.917
17494WAT     H252725   8.484   3.577   1.795
17495WAT      O52726   6.195   1.713   1.575
17495WAT     H152727   6.136   1.680   1.648
17495WAT     H252728   6.287   1.728   1.611
17496WAT      O52729   9.848   0.468   6.025
17496WAT     H152730   9.792   0.511   6.097
17496WAT     H252731   9.938   0.511   6.023
17497WAT      O52732   8.848   7.405   1.853
17497WAT     H152733   8.928   7.385   1.796
17497WAT     H252734   8.807   7.492   1.824
17498WAT      O52735   3.465   9.681   6.797
17498WAT     H152736   3.519   9.745   6.852
17498WAT     H252737   3.425   9.612   6.857
17499WAT      O52738   2.816   8.961   1.124
17499WAT     H152739   2.785   8.874   1.087
17499WAT     H252740   2.907   8.949   1.165
17500WAT      O52741   4.611   8.802   9.388
17500WAT     H152742   4.589   8.707   9.368
17500WAT     H252743   4.547   8.862   9.340
17501WAT      O52744   1.403   9.449   6.286
17501WAT     H152745   1.384   9.454   6.384
17501WAT     H252746   1.343   9.380   6.244
17502WAT      O52747   6.590   7.269   6.614
17502WAT     H152748   6.682   7.228   6.614
17502WAT     H252749   6.588   7.347   6.551
17503WAT      O52750   7.698   7.931   6.941
17503WAT     H152751   7.656   7.840   6.940
17503WAT     H252752   7.733   7.953   6.849
17504WAT      O52753   1.297   8.182   8.724
17504WAT     H152754   1.351   8.106   8.760
17504WAT     H252755   1.332   8.209   8.635
17505WAT      O52756   4.181   5.999   4.233
17505WAT     H152757   4.258   5.971   4.291
17505WAT     H252758   4.165   5.930   4.163
17506WAT      O52759   7.498   5.630   2.232
17506WAT     H152760   7.598   5.637   2.228
17506WAT     H252761   7.465   5.677   2.314
17507WAT      O52762   4.800   2.387   2.634
17507WAT     H152763   4.900   2.388   2.641
17507WAT     H252764   4.762   2.456   2.695
17508WAT      O52765   2.759   5.627   4.134
17508WAT     H152766   2.692   5.565   4.176
17508WAT     H252767   2.759   5.614   4.035
17509WAT      O52768   5.398   1.255   1.975
17509WAT     H152769   5.446   1.180   2.020
17509WAT     H252770   5.318   1.219   1.927
17510WAT      O52771   8.711   1.185   9.813
17510WAT     H152772   8.784   1.169   9.880
17510WAT     H252773   8.745   1.165   9.722
17511WAT      O52774   8.030   0.586   5.656
17511WAT     H152775   7.945   0.572   5.606
17511WAT     H252776   8.011   0.630   5.743
17512WAT      O52777   2.765   0.886   1.305
17512WAT     H152778   2.713   0.819   1.358
17512WAT     H252779   2.718   0.904   1.219
17513WAT      O52780   1.297   8.598   0.072
17513WAT     H152781   1.328   8.676   0.125
17513WAT     H252782   1.370   8.529   0.069
17514WAT      O52783   2.915   9.617   5.825
17514WAT     H152784   2.898   9.685   5.896
17514WAT     H252785   3.003   9.637   5.781
17515WAT      O52786   8.439   6.729   3.727
17515WAT     H152787   8.496   6.754   3.648
17515WAT     H252788   8.441   6.803   3.794
17516WAT      O52789   0.046   5.228   5.829
17516WAT     H152790   0.145   5.238   5.813
17516WAT     H252791   0.025   5.252   5.923
17517WAT      O52792   4.854   0.812   9.228
17517WAT     H152793   4.898   0.729   9.194
17517WAT     H252794   4.814   0.795   9.318
17518WAT      O52795   6.576   5.982   3.749
17518WAT     H152796   6.629   5.973   3.665
17518WAT     H252797   6.478   5.978   3.727
17519WAT      O52798   3.803   2.221   3.275
17519WAT     H152799   3.711   2.197   3.306
17519WAT     H252800   3.813   2.321   3.277
17520WAT      O52801   7.584   4.976   6.860
17520WAT     H152802   7.519   4.928   6.801
17520WAT     H252803   7.618   5.058   6.814
17521WAT      O52804   8.875   3.528   7.307
17521WAT     H152805   8.866   3.438   7.264
17521WAT     H252806   8.849   3.599   7.242
17522WAT      O52807   7.023   0.571   5.258
17522WAT     H152808   6.929   0.590   5.229
17522WAT     H252809   7.066   0.656   5.290
17523WAT      O52810   8.454   8.565   6.842
17523WAT     H152811   8.451   8.480   6.895
17523WAT     H252812   8.544   8.575   6.800
17524WAT      O52813   7.521   0.830   7.115
17524WAT     H152814   7.508   0.927   7.132
17524WAT     H252815   7.600   0.797   7.168
17525WAT      O52816   3.611   1.337   8.711
17525WAT     H152817   3.619   1.421   8.764
17525WAT     H252818   3.583   1.359   8.617
17526WAT      O52819   8.948   1.042   8.358
17526WAT     H152820   8.988   1.102   8.290
17526WAT     H252821   8.960   0.947   8.330
17527WAT      O52822   5.992   5.153   6.841
17527WAT     H152823   5.999   5.053   6.846
17527WAT     H252824   5.991   5.181   6.745
17528WAT      O52825   7.831   4.499   4.600
17528WAT     H152826   7.800   4.412   4.562
17528WAT     H252827   7.790   4.512   4.691
17529WAT      O52828   2.961   0.833   3.180
17529WAT     H152829   2.869   0.871   3.184
17529WAT     H252830   2.965   0.749   3.233
17530WAT      O52831   0.920   1.399   6.587
17530WAT     H152832   0.932   1.320   6.647
17530WAT     H252833   0.941   1.373   6.493
17531WAT      O52834   6.926   2.640   2.962
17531WAT     H152835   6.913   2.541   2.967
17531WAT     H252836   7.003   2.667   3.020
17532WAT      O52837   0.981   6.536   8.064
17532WAT     H152838   0.905   6.472   8.069
17532WAT     H252839   1.047   6.503   7.996
17533WAT      O52840   7.264   0.716   6.080
17533WAT     H152841   7.217   0.628   6.089
17533WAT     H252842   7.211   0.787   6.126
17534WAT      O52843   6.391   2.947   9.685
17534WAT     H152844   6.377   3.008   9.764
17534WAT     H252845   6.305   2.901   9.663
17535WAT      O52846   6.229   5.348   3.000
17535WAT     H152847   6.197   5.264   3.044
17535WAT     H252848   6.227   5.423   3.065
17536WAT      O52849   7.881   2.525   7.695
17536WAT     H152850   7.944   2.526   7.618
17536WAT     H252851   7.798   2.475   7.669
17537WAT      O52852   3.813   4.325   4.084
17537WAT     H152853   3.728   4.377   4.086
17537WAT     H252854   3.796   4.232   4.116
17538WAT      O52855   3.016   4.277   8.988
17538WAT     H152856   3.060   4.211   8.928
17538WAT     H252857   3.085   4.330   9.036
17539WAT      O52858   0.920   4.641   7.611
17539WAT     H152859   0.938   4.543   7.605
17539WAT     H252860   0.954   4.686   7.528
17540WAT      O52861   2.053   7.111   6.583
17540WAT     H152862   1.977   7.047   6.582
17540WAT     H252863   2.139   7.061   6.598
17541WAT      O52864   6.099   5.697   7.330
17541WAT     H152865   6.051   5.768   7.279
17541WAT     H252866   6.197   5.701   7.309
17542WAT      O52867   1.000   7.067   8.174
17542WAT     H152868   1.056   7.039   8.252
17542WAT     H252869   1.038   7.029   8.090
17543WAT      O52870   0.517   1.919   5.047
17543WAT     H152871   0.424   1.906   5.079
17543WAT     H252872   0.568   1.973   5.115
17544WAT      O52873   1.361   1.730   5.527
17544WAT     H152874   1.362   1.818   5.480
17544WAT     H252875   1.419   1.665   5.477
17545WAT      O52876   0.268   8.774   1.104
17545WAT     H152877   0.266   8.682   1.063
17545WAT     H252878   0.351   8.821   1.075
17546WAT      O52879   7.900   8.643   5.939
17546WAT     H152880   7.847   8.576   5.886
17546WAT     H252881   7.921   8.722   5.882
17547WAT      O52882   8.422   6.187   2.376
17547WAT     H152883   8.481   6.264   2.400
17547WAT     H252884   8.392   6.197   2.281
17548WAT      O52885   2.995   8.575   2.448
17548WAT     H152886   2.921   8.597   2.386
17548WAT     H252887   2.982   8.623   2.535
17549WAT      O52888   8.495   3.024   9.755
17549WAT     H152889   8.395   3.022   9.754
17549WAT     H252890   8.527   3.058   9.843
17550WAT      O52891   8.962   7.172   5.027
17550WAT     H152892   8.929   7.104   4.961
17550WAT     H252893   8.981   7.126   5.114
17551WAT      O52894   8.141   1.183   1.453
17551WAT     H152895   8.116   1.262   1.508
17551WAT     H252896   8.074   1.111   1.466
17552WAT      O52897   3.939   5.175   6.886
17552WAT     H152898   3.857   5.216   6.847
17552WAT     H252899   3.972   5.102   6.826
17553WAT      O52900   1.328   7.180   3.352
17553WAT     H152901   1.276   7.227   3.279
17553WAT     H252902   1.352   7.247   3.423
17554WAT      O52903   2.746   3.976   0.953
17554WAT     H152904   2.777   4.052   1.011
17554WAT     H252905   2.767   3.997   0.858
17555WAT      O52906   8.951   1.365   7.004
17555WAT     H152907   8.937   1.329   7.096
17555WAT     H252908   8.905   1.454   6.996
17556WAT      O52909   1.997   2.619   1.381
17556WAT     H152910   2.077   2.664   1.421
17556WAT     H252911   2.021   2.583   1.291
17557WAT      O52912   9.510   0.031   6.559
17557WAT     H152913   9.513   0.021   6.459
17557WAT     H252914   9.504   0.128   6.583
17558WAT      O52915   6.942   6.752   7.746
17558WAT     H152916   6.920   6.809   7.666
17558WAT     H252917   6.961   6.659   7.716
17559WAT      O52918   5.869   1.830   9.333
17559WAT     H152919   5.956   1.781   9.341
17559WAT     H252920   5.878   1.920   9.377
17560WAT      O52921   0.727   8.075   7.889
17560WAT     H152922   0.773   8.163   7.899
17560WAT     H252923   0.785   8.012   7.838
17561WAT      O52924   4.345   1.620   3.752
17561WAT     H152925   4.363   1.574   3.840
17561WAT     H252926   4.428   1.616   3.696
17562WAT      O52927   5.282   6.018   5.459
17562WAT     H152928   5.224   6.085   5.414
17562WAT     H252929   5.247   5.926   5.441
17563WAT      O52930   0.057   2.471   4.834
17563WAT     H152931   0.065   2.560   4.877
17563WAT     H252932   0.129   2.410   4.869
17564WAT      O52933   7.873   7.872   7.706
17564WAT     H152934   7.937   7.816   7.653
17564WAT     H252935   7.916   7.961   7.725
17565WAT      O52936   8.283   3.031   7.552
17565WAT     H152937   8.218   2.955   7.551
17565WAT     H252938   8.241   3.110   7.596
17566WAT      O52939   6.592   0.046   1.189
17566WAT     H152940   6.540   0.104   1.252
17566WAT     H252941   6.545   0.040   1.101
17567WAT      O52942   8.704   1.845   9.858
17567WAT     H152943   8.654   1.778   9.802
17567WAT     H252944   8.649   1.928   9.867
17568WAT      O52945   5.984   3.946   7.384
17568WAT     H152946   5.900   3.928   7.333
17568WAT     H252947   5.992   4.044   7.401
17569WAT      O52948   3.755   7.828   9.645
17569WAT     H152949   3.709   7.747   9.679
17569WAT     H252950   3.712   7.910   9.682
17570WAT      O52951   0.248   9.817   8.414
17570WAT     H152952   0.235   9.731   8.364
17570WAT     H252953   0.180   9.823   8.487
17571WAT      O52954   5.909   7.699   0.971
17571WAT     H152955   5.961   7.627   0.926
17571WAT     H252956   5.965   7.739   1.044
17572WAT      O52957   4.579   4.930   3.504
17572WAT     H152958   4.603   4.932   3.601
17572WAT     H252959   4.522   5.009   3.482
17573WAT      O52960   1.625   2.595   0.380
17573WAT     H152961   1.598   2.688   0.356
17573WAT     H252962   1.598   2.575   0.474
17574WAT      O52963   7.920   5.808   9.476
17574WAT     H152964   7.875   5.814   9.387
17574WAT     H252965   7.892   5.723   9.522
17575WAT      O52966   3.641   0.169   2.839
17575WAT     H152967   3.549   0.141   2.866
17575WAT     H252968   3.636   0.224   2.756
17576WAT      O52969   4.447   3.978   8.783
17576WAT     H152970   4.494   3.964   8.870
17576WAT     H252971   4.348   3.983   8.799
17577WAT      O52972   8.921   2.145   4.669
17577WAT     H152973   8.851   2.118   4.603
17577WAT     H252974   8.969   2.064   4.702
17578WAT      O52975   7.534   5.433   2.886
17578WAT     H152976   7.466   5.362   2.868
17578WAT     H252977   7.488   5.521   2.903
17579WAT      O52978   7.739   1.070   8.457
17579WAT     H152979   7.677   1.081   8.380
17579WAT     H252980   7.739   0.975   8.487
17580WAT      O52981   4.147   3.809   2.624
17580WAT     H152982   4.169   3.761   2.709
17580WAT     H252983   4.183   3.902   2.629
17581WAT      O52984   8.416   7.048   2.445
17581WAT     H152985   8.417   7.092   2.534
17581WAT     H252986   8.494   6.987   2.437
17582WAT      O52987   1.025   9.454   2.467
17582WAT     H152988   0.998   9.411   2.553
17582WAT     H252989   1.099   9.519   2.485
17583WAT      O52990   3.431   1.441   1.998
17583WAT     H152991   3.342   1.398   1.985
17583WAT     H252992   3.457   1.437   2.094
17584WAT      O52993   7.005   9.353   6.501
17584WAT     H152994   7.020   9.392   6.410
17584WAT     H252995   7.084   9.299   6.528
17585WAT      O52996   9.094   1.903   4.666
17585WAT     H152997   9.021   1.836   4.662
17585WAT     H252998   9.148   1.899   4.581
17586WAT      O52999   9.442   9.817   5.216
17586WAT     H153000   9.531   9.838   5.177
17586WAT     H253001   9.406   9.897   5.264
17587WAT      O53002   1.839   6.644   4.285
17587WAT     H153003   1.870   6.658   4.191
17587WAT     H253004   1.745   6.609   4.284
17588WAT      O53005   1.004   2.087   7.920
17588WAT     H153006   1.017   1.990   7.938
17588WAT     H253007   1.029   2.140   8.002
17589WAT      O53008   3.677   5.229   1.030
17589WAT     H153009   3.741   5.153   1.016
17589WAT     H253010   3.719   5.315   1.003
17590WAT      O53011   1.736   0.988   8.272
17590WAT     H153012   1.692   0.898   8.276
17590WAT     H253013   1.783   1.006   8.358
17591WAT      O53014   3.950   8.548   8.825
17591WAT     H153015   3.982   8.477   8.762
17591WAT     H253016   3.945   8.511   8.918
17592WAT      O53017   6.578   8.174   7.744
17592WAT     H153018   6.575   8.092   7.802
17592WAT     H253019   6.646   8.237   7.779
17593WAT      O53020   8.160   9.830   8.888
17593WAT     H153021   8.150   9.924   8.920
17593WAT     H253022   8.256   9.804   8.892
17594WAT      O53023   6.631   3.918   3.720
17594WAT     H153024   6.686   3.983   3.773
17594WAT     H253025   6.553   3.966   3.679
17595WAT      O53026   2.082   0.399   9.344
17595WAT     H153027   2.053   0.465   9.275
17595WAT     H253028   2.035   0.312   9.329
17596WAT      O53029   7.357   3.746   5.627
17596WAT     H153030   7.340   3.675   5.559
17596WAT     H253031   7.292   3.736   5.702
17597WAT      O53032   4.228   2.208   4.077
17597WAT     H153033   4.178   2.282   4.121
17597WAT     H253034   4.178   2.122   4.092
17598WAT      O53035   1.413   5.273   9.160
17598WAT     H153036   1.396   5.318   9.072
17598WAT     H253037   1.327   5.233   9.194
17599WAT      O53038   3.813   0.458   1.074
17599WAT     H153039   3.745   0.478   1.145
17599WAT     H253040   3.768   0.413   0.996
17600WAT      O53041   1.325   0.259   4.697
17600WAT     H153042   1.388   0.182   4.693
17600WAT     H253043   1.377   0.344   4.703
17601WAT      O53044   9.602   4.055   7.347
17601WAT     H153045   9.552   4.120   7.290
17601WAT     H253046   9.633   4.101   7.430
17602WAT      O53047   1.956   5.333   5.855
17602WAT     H153048   1.943   5.235   5.839
17602WAT     H253049   1.898   5.364   5.930
17603WAT      O53050   0.564   6.538   7.559
17603WAT     H153051   0.541   6.495   7.472
17603WAT     H253052   0.514   6.492   7.633
17604WAT      O53053   6.121   3.374   2.848
17604WAT     H153054   6.188   3.432   2.895
17604WAT     H253055   6.057   3.432   2.798
17605WAT      O53056   1.929   6.257   3.282
17605WAT     H153057   1.852   6.205   3.246
17605WAT     H253058   2.005   6.253   3.218
17606WAT      O53059   5.473   5.932   3.643
17606WAT     H153060   5.538   5.904   3.573
17606WAT     H253061   5.517   5.996   3.706
17607WAT      O53062   3.814   3.403   1.486
17607WAT     H153063   3.796   3.482   1.544
17607WAT     H253064   3.728   3.367   1.451
17608WAT      O53065   7.426   2.666   4.590
17608WAT     H153066   7.409   2.707   4.679
17608WAT     H253067   7.342   2.671   4.535
17609WAT      O53068   8.270   6.437   5.138
17609WAT     H153069   8.187   6.399   5.096
17609WAT     H253070   8.334   6.465   5.066
17610WAT      O53071   2.264   8.140   1.242
17610WAT     H153072   2.286   8.222   1.188
17610WAT     H253073   2.172   8.108   1.219
17611WAT      O53074   7.859   7.765   4.927
17611WAT     H153075   7.765   7.738   4.944
17611WAT     H253076   7.917   7.737   5.004
17612WAT      O53077   1.302   5.928   3.614
17612WAT     H153078   1.332   5.852   3.557
17612WAT     H253079   1.287   5.896   3.708
17613WAT      O53080   0.186   7.013   2.936
17613WAT     H153081   0.246   7.092   2.936
17613WAT     H253082   0.104   7.033   2.882
17614WAT      O53083   7.203   9.266   1.844
17614WAT     H153084   7.214   9.272   1.944
17614WAT     H253085   7.174   9.355   1.808
17615WAT      O53086   7.987   1.119   1.693
17615WAT     H153087   7.992   1.216   1.671
17615WAT     H253088   7.953   1.068   1.614
17616WAT      O53089   4.785   2.762   1.953
17616WAT     H153090   4.764   2.858   1.971
17616WAT     H253091   4.849   2.755   1.877
17617WAT      O53092   8.977   7.703   4.675
17617WAT     H153093   8.921   7.672   4.599
17617WAT     H253094   8.943   7.663   4.760
17618WAT      O53095   6.332   6.805   7.205
17618WAT     H153096   6.424   6.834   7.232
17618WAT     H253097   6.327   6.705   7.210
17619WAT      O53098   0.351   0.961   0.798
17619WAT     H153099   0.404   0.882   0.827
17619WAT     H253100   0.271   0.930   0.746
17620WAT      O53101   8.575   5.539   4.803
17620WAT     H153102   8.523   5.618   4.835
17620WAT     H253103   8.653   5.523   4.863
17621WAT      O53104   6.981   8.293   4.917
17621WAT     H153105   7.070   8.318   4.879
17621WAT     H253106   6.918   8.271   4.842
17622WAT      O53107   1.175   1.408   2.363
17622WAT     H153108   1.153   1.337   2.430
17622WAT     H253109   1.190   1.494   2.411
17623WAT      O53110   9.046   3.901   0.205
17623WAT     H153111   9.081   3.820   0.158
17623WAT     H253112   8.955   3.923   0.170
17624WAT      O53113   1.178   9.129   0.571
17624WAT     H153114   1.227   9.159   0.489
17624WAT     H253115   1.173   9.205   0.636
17625WAT      O53116   3.360   6.386   8.166
17625WAT     H153117   3.409   6.472   8.182
17625WAT     H253118   3.418   6.322   8.117
17626WAT      O53119   2.545   1.098   1.977
17626WAT     H153120   2.502   1.100   2.068
17626WAT     H253121   2.476   1.119   1.908
17627WAT      O53122   6.173   6.495   7.708
17627WAT     H153123   6.222   6.531   7.629
17627WAT     H253124   6.198   6.548   7.790
17628WAT      O53125   9.100   9.781   6.220
17628WAT     H153126   9.063   9.853   6.162
17628WAT     H253127   9.051   9.695   6.202
17629WAT      O53128   0.285   0.477   1.055
17629WAT     H153129   0.379   0.491   1.085
17629WAT     H253130   0.284   0.445   0.960
17630WAT      O53131   3.664   7.981   6.057
17630WAT     H153132   3.657   7.995   6.155
17630WAT     H253133   3.634   7.888   6.034
17631WAT      O53134   8.230   4.503   4.047
17631WAT     H153135   8.201   4.525   4.140
17631WAT     H253136   8.155   4.461   3.997
17632WAT      O53137   3.122   0.021   3.715
17632WAT     H153138   3.213   0.062   3.703
17632WAT     H253139   3.092  -0.018   3.628
17633WAT      O53140   4.586   5.013   9.583
17633WAT     H153141   4.534   4.942   9.536
17633WAT     H253142   4.559   5.016   9.679
17634WAT      O53143   1.162   0.958   1.505
17634WAT     H153144   1.211   1.043   1.486
17634WAT     H253145   1.064   0.972   1.494
17635WAT      O53146   7.917   6.697   7.984
17635WAT     H153147   7.827   6.719   8.019
17635WAT     H253148   7.960   6.627   8.041
17636WAT      O53149   7.793   1.708   5.507
17636WAT     H153150   7.827   1.616   5.524
17636WAT     H253151   7.697   1.703   5.480
17637WAT      O53152   0.435   6.451   4.856
17637WAT     H153153   0.417   6.435   4.759
17637WAT     H253154   0.410   6.544   4.881
17638WAT      O53155   4.355   0.209   7.604
17638WAT     H153156   4.429   0.150   7.571
17638WAT     H253157   4.371   0.232   7.699
17639WAT      O53158   0.137   1.061   1.774
17639WAT     H153159   0.199   1.084   1.849
17639WAT     H253160   0.124   1.142   1.716
17640WAT      O53161   9.152   3.096   4.520
17640WAT     H153162   9.086   3.140   4.460
17640WAT     H253163   9.239   3.086   4.472
17641WAT      O53164   5.010   7.812   4.683
17641WAT     H153165   4.962   7.752   4.619
17641WAT     H253166   5.077   7.758   4.735
17642WAT      O53167   8.633   7.351   3.919
17642WAT     H153168   8.607   7.412   3.844
17642WAT     H253169   8.561   7.282   3.932
17643WAT      O53170   9.268   5.738   5.693
17643WAT     H153171   9.220   5.818   5.728
17643WAT     H253172   9.358   5.765   5.661
17644WAT      O53173   1.876   6.864   3.229
17644WAT     H153174   1.939   6.931   3.190
17644WAT     H253175   1.904   6.772   3.202
17645WAT      O53176   5.522   3.431   9.770
17645WAT     H153177   5.596   3.475   9.821
17645WAT     H253178   5.442   3.421   9.829
17646WAT      O53179   3.197   3.857   2.272
17646WAT     H153180   3.183   3.948   2.234
17646WAT     H253181   3.117   3.800   2.254
17647WAT      O53182   9.888   4.323   7.403
17647WAT     H153183   9.885   4.356   7.309
17647WAT     H253184   9.860   4.396   7.465
17648WAT      O53185   5.903   8.692   7.198
17648WAT     H153186   5.838   8.722   7.128
17648WAT     H253187   5.948   8.772   7.237
17649WAT      O53188   3.259   5.940   1.799
17649WAT     H153189   3.280   6.003   1.725
17649WAT     H253190   3.163   5.951   1.826
17650WAT      O53191   9.419   3.702   1.437
17650WAT     H153192   9.485   3.775   1.422
17650WAT     H253193   9.327   3.736   1.418
17651WAT      O53194   6.988   0.822   6.974
17651WAT     H153195   7.072   0.800   6.926
17651WAT     H253196   7.006   0.832   7.072
17652WAT      O53197   1.900   5.901   6.507
17652WAT     H153198   1.901   5.826   6.574
17652WAT     H253199   1.814   5.897   6.456
17653WAT      O53200   5.080   1.079   3.313
17653WAT     H153201   5.108   0.989   3.345
17653WAT     H253202   5.161   1.133   3.288
17654WAT      O53203   5.670   6.423   2.340
17654WAT     H153204   5.685   6.479   2.422
17654WAT     H253205   5.684   6.327   2.362
17655WAT      O53206   0.973   4.540   4.907
17655WAT     H153207   1.059   4.587   4.930
17655WAT     H253208   0.912   4.603   4.860
17656WAT      O53209   6.463   6.316   9.302
17656WAT     H153210   6.505   6.406   9.295
17656WAT     H253211   6.534   6.245   9.296
17657WAT      O53212   5.485   9.817   1.129
17657WAT     H153213   5.386   9.825   1.122
17657WAT     H253214   5.520   9.762   1.053
17658WAT      O53215   5.030   3.986   1.987
17658WAT     H153216   4.960   3.967   2.056
17658WAT     H253217   5.057   3.901   1.943
17659WAT      O53218   3.181   7.340   4.461
17659WAT     H153219   3.132   7.318   4.376
17659WAT     H253220   3.180   7.439   4.474
17660WAT      O53221   2.035   8.416   5.036
17660WAT     H153222   2.089   8.500   5.030
17660WAT     H253223   1.939   8.439   5.051
17661WAT      O53224   0.942   3.763   5.984
17661WAT     H153225   1.031   3.807   5.977
17661WAT     H253226   0.878   3.824   6.030
17662WAT      O53227   9.527   7.778   6.296
17662WAT     H153228   9.540   7.681   6.312
17662WAT     H253229   9.555   7.800   6.202
17663WAT      O53230   4.275   0.521   6.379
17663WAT     H153231   4.329   0.570   6.310
17663WAT     H253232   4.329   0.510   6.462
17664WAT      O53233   5.654   2.198   5.186
17664WAT     H153234   5.593   2.258   5.134
17664WAT     H253235   5.749   2.219   5.163
17665WAT      O53236   1.939   2.570   7.127
17665WAT     H153237   2.034   2.580   7.159
17665WAT     H253238   1.880   2.552   7.205
17666WAT      O53239   4.058   3.558   5.121
17666WAT     H153240   4.033   3.485   5.057
17666WAT     H253241   4.156   3.552   5.140
17667WAT      O53242   5.877   1.126   0.104
17667WAT     H153243   5.879   1.026   0.107
17667WAT     H253244   5.825   1.156   0.024
17668WAT      O53245   9.766   7.706   7.291
17668WAT     H153246   9.668   7.685   7.297
17668WAT     H253247   9.781   7.775   7.221
17669WAT      O53248   8.302   5.389   6.944
17669WAT     H153249   8.208   5.355   6.950
17669WAT     H253250   8.306   5.465   6.880
17670WAT      O53251   2.665   9.118   7.526
17670WAT     H153252   2.604   9.179   7.576
17670WAT     H253253   2.755   9.117   7.570
17671WAT      O53254   2.384   2.523   0.316
17671WAT     H153255   2.389   2.527   0.416
17671WAT     H253256   2.476   2.529   0.278
17672WAT      O53257   9.514   5.797   5.911
17672WAT     H153258   9.545   5.806   6.006
17672WAT     H253259   9.533   5.704   5.879
17673WAT      O53260   5.641   5.393   1.860
17673WAT     H153261   5.668   5.481   1.821
17673WAT     H253262   5.547   5.372   1.833
17674WAT      O53263   9.425   8.221   3.351
17674WAT     H153264   9.354   8.277   3.308
17674WAT     H253265   9.385   8.135   3.384
17675WAT      O53266   0.544   1.622   6.742
17675WAT     H153267   0.512   1.690   6.676
17675WAT     H253268   0.642   1.610   6.732
17676WAT      O53269   7.433   5.699   2.820
17676WAT     H153270   7.360   5.748   2.866
17676WAT     H253271   7.394   5.632   2.757
17677WAT      O53272   7.404   9.631   0.416
17677WAT     H153273   7.395   9.724   0.451
17677WAT     H253274   7.318   9.604   0.371
17678WAT      O53275   0.373   9.181   8.331
17678WAT     H153276   0.364   9.270   8.377
17678WAT     H253277   0.454   9.134   8.366
17679WAT      O53278   9.729   1.858   2.399
17679WAT     H153279   9.754   1.816   2.312
17679WAT     H253280   9.745   1.957   2.394
17680WAT      O53281   4.071   1.722   5.654
17680WAT     H153282   4.093   1.663   5.732
17680WAT     H253283   4.054   1.815   5.686
17681WAT      O53284   5.979   6.381   8.550
17681WAT     H153285   5.931   6.431   8.622
17681WAT     H253286   5.913   6.350   8.481
17682WAT      O53287   7.985   9.804   1.334
17682WAT     H153288   8.082   9.788   1.355
17682WAT     H253289   7.929   9.765   1.406
17683WAT      O53290   4.410   5.704   6.470
17683WAT     H153291   4.348   5.660   6.534
17683WAT     H253292   4.429   5.797   6.501
17684WAT      O53293   8.752   3.684   7.011
17684WAT     H153294   8.772   3.770   7.058
17684WAT     H253295   8.747   3.701   6.912
17685WAT      O53296   5.531   7.077   1.496
17685WAT     H153297   5.527   7.132   1.579
17685WAT     H253298   5.592   6.999   1.510
17686WAT      O53299   2.840   9.101   0.882
17686WAT     H153300   2.809   9.046   0.960
17686WAT     H253301   2.768   9.165   0.856
17687WAT      O53302   8.677   5.137   7.997
17687WAT     H153303   8.692   5.218   8.054
17687WAT     H253304   8.762   5.085   7.991
17688WAT      O53305   4.957   0.746   4.170
17688WAT     H153306   4.999   0.656   4.182
17688WAT     H253307   5.026   0.811   4.139
17689WAT      O53308   2.991   2.215   8.266
17689WAT     H153309   3.044   2.215   8.351
17689WAT     H253310   2.977   2.310   8.236
17690WAT      O53311   9.013   7.371   7.114
17690WAT     H153312   8.923   7.406   7.140
17690WAT     H253313   9.004   7.275   7.088
17691WAT      O53314   8.681   7.744   4.985
17691WAT     H153315   8.752   7.704   4.927
17691WAT     H253316   8.690   7.707   5.078
17692WAT      O53317   9.404   4.424   1.270
17692WAT     H153318   9.396   4.463   1.362
17692WAT     H253319   9.497   4.390   1.256
17693WAT      O53320   0.187   3.833   6.718
17693WAT     H153321   0.146   3.744   6.699
17693WAT     H253322   0.206   3.841   6.815
17694WAT      O53323   2.649   0.912   7.199
17694WAT     H153324   2.646   0.984   7.129
17694WAT     H253325   2.721   0.934   7.265
17695WAT      O53326   3.159   6.666   0.613
17695WAT     H153327   3.164   6.609   0.695
17695WAT     H253328   3.186   6.759   0.636
17696WAT      O53329   3.282   2.770   1.220
17696WAT     H153330   3.298   2.781   1.122
17696WAT     H253331   3.352   2.710   1.259
17697WAT      O53332   2.508   8.991   1.033
17697WAT     H153333   2.486   9.083   1.065
17697WAT     H253334   2.515   8.992   0.933
17698WAT      O53335   3.441   2.862   8.106
17698WAT     H153336   3.435   2.953   8.066
17698WAT     H253337   3.370   2.851   8.176
17699WAT      O53338   8.975   2.328   5.803
17699WAT     H153339   8.973   2.383   5.719
17699WAT     H253340   8.988   2.388   5.882
17700WAT      O53341   1.600   8.576   5.585
17700WAT     H153342   1.554   8.527   5.659
17700WAT     H253343   1.682   8.525   5.556
17701WAT      O53344   5.184   0.069   0.688
17701WAT     H153345   5.095   0.031   0.712
17701WAT     H253346   5.178   0.169   0.684
17702WAT      O53347   1.884   4.491   7.597
17702WAT     H153348   1.881   4.524   7.691
17702WAT     H253349   1.803   4.522   7.548
17703WAT      O53350   8.480   3.830   5.777
17703WAT     H153351   8.461   3.928   5.787
17703WAT     H253352   8.570   3.818   5.735
17704WAT      O53353   0.839   3.493   7.110
17704WAT     H153354   0.933   3.461   7.119
17704WAT     H253355   0.781   3.445   7.177
17705WAT      O53356   1.692   9.481   6.493
17705WAT     H153357   1.745   9.419   6.436
17705WAT     H253358   1.747   9.510   6.571
17706WAT      O53359   5.875   5.851   7.212
17706WAT     H153360   5.912   5.868   7.121
17706WAT     H253361   5.838   5.937   7.249
17707WAT      O53362   4.615   9.715   9.249
17707WAT     H153363   4.666   9.701   9.334
17707WAT     H253364   4.586   9.810   9.242
17708WAT      O53365   0.947   4.574   3.560
17708WAT     H153366   0.855   4.612   3.557
17708WAT     H253367   0.948   4.495   3.622
17709WAT      O53368   8.652   7.566   3.669
17709WAT     H153369   8.751   7.554   3.671
17709WAT     H253370   8.609   7.489   3.622
17710WAT      O53371   9.174   9.660   9.690
17710WAT     H153372   9.075   9.674   9.689
17710WAT     H253373   9.212   9.685   9.601
17711WAT      O53374   5.868   3.368   1.719
17711WAT     H153375   5.940   3.370   1.788
17711WAT     H253376   5.786   3.325   1.756
17712WAT      O53377   0.613   2.748   2.229
17712WAT     H153378   0.547   2.681   2.265
17712WAT     H253379   0.568   2.805   2.160
17713WAT      O53380   1.684   1.402   3.810
17713WAT     H153381   1.778   1.371   3.823
17713WAT     H253382   1.669   1.486   3.862
17714WAT      O53383   2.414   9.622   7.922
17714WAT     H153384   2.490   9.687   7.922
17714WAT     H253385   2.431   9.552   7.992
17715WAT      O53386   0.132   9.784   8.023
17715WAT     H153387   0.051   9.837   8.050
17715WAT     H253388   0.107   9.721   7.949
17716WAT      O53389   8.131   5.112   1.345
17716WAT     H153390   8.166   5.188   1.290
17716WAT     H253391   8.133   5.028   1.291
17717WAT      O53392   7.358   6.408   4.772
17717WAT     H153393   7.410   6.482   4.816
17717WAT     H253394   7.268   6.442   4.746
17718WAT      O53395   0.130   2.557   0.461
17718WAT     H153396   0.124   2.651   0.429
17718WAT     H253397   0.055   2.503   0.423
17719WAT      O53398   9.579   2.313   9.063
17719WAT     H153399   9.539   2.375   8.995
17719WAT     H253400   9.630   2.366   9.131
17720WAT      O53401   1.604   1.820   7.743
17720WAT     H153402   1.588   1.743   7.681
17720WAT     H253403   1.654   1.892   7.695
17721WAT      O53404   2.853   1.091   4.135
17721WAT     H153405   2.945   1.129   4.137
17721WAT     H253406   2.846   1.023   4.062
17722WAT      O53407   9.292   5.190   6.866
17722WAT     H153408   9.311   5.092   6.854
17722WAT     H253409   9.249   5.225   6.784
17723WAT      O53410   6.141   1.083   7.327
17723WAT     H153411   6.085   1.045   7.400
17723WAT     H253412   6.093   1.160   7.284
17724WAT      O53413   8.016   5.542   6.633
17724WAT     H153414   7.968   5.548   6.721
17724WAT     H253415   7.968   5.597   6.565
17725WAT      O53416   3.720   2.032   2.500
17725WAT     H153417   3.643   2.024   2.437
17725WAT     H253418   3.788   2.095   2.463
17726WAT      O53419   3.905   4.132   9.059
17726WAT     H153420   3.807   4.129   9.076
17726WAT     H253421   3.949   4.053   9.101
17727WAT      O53422   0.868   4.821   5.629
17727WAT     H153423   0.936   4.776   5.686
17727WAT     H253424   0.840   4.908   5.670
17728WAT      O53425   4.336   8.069   6.921
17728WAT     H153426   4.304   8.163   6.939
17728WAT     H253427   4.299   8.037   6.834
17729WAT      O53428   5.930   8.925   5.176
17729WAT     H153429   5.862   8.899   5.245
17729WAT     H253430   6.013   8.872   5.190
17730WAT      O53431   1.815   2.805   1.696
17730WAT     H153432   1.898   2.860   1.688
17730WAT     H253433   1.830   2.716   1.654
17731WAT      O53434   6.505   4.148   5.440
17731WAT     H153435   6.472   4.238   5.409
17731WAT     H253436   6.582   4.119   5.383
17732WAT      O53437   2.341   4.688   1.874
17732WAT     H153438   2.333   4.599   1.920
17732WAT     H253439   2.331   4.676   1.776
17733WAT      O53440   3.789   4.926   2.380
17733WAT     H153441   3.778   4.830   2.358
17733WAT     H253442   3.780   4.939   2.479
17734WAT      O53443   6.847   3.742   6.044
17734WAT     H153444   6.828   3.732   5.946
17734WAT     H253445   6.763   3.734   6.096
17735WAT      O53446   1.732   0.381   3.372
17735WAT     H153447   1.829   0.398   3.392
17735WAT     H253448   1.689   0.467   3.344
17736WAT      O53449   9.115   6.897   5.450
17736WAT     H153450   9.100   6.798   5.450
17736WAT     H253451   9.150   6.925   5.540
17737WAT      O53452   1.817   1.664   5.101
17737WAT     H153453   1.865   1.581   5.131
17737WAT     H253454   1.720   1.643   5.090
17738WAT      O53455   2.280   8.737   0.231
17738WAT     H153456   2.299   8.769   0.323
17738WAT     H253457   2.366   8.733   0.179
17739WAT      O53458   8.246   8.802   0.158
17739WAT     H153459   8.261   8.899   0.180
17739WAT     H253460   8.216   8.754   0.240
17740WAT      O53461   3.113   7.245   7.356
17740WAT     H153462   3.083   7.175   7.421
17740WAT     H253463   3.070   7.227   7.267
17741WAT      O53464   3.107   9.501   6.669
17741WAT     H153465   3.075   9.525   6.577
17741WAT     H253466   3.177   9.430   6.663
17742WAT      O53467   9.393   6.759   2.175
17742WAT     H153468   9.366   6.745   2.079
17742WAT     H253469   9.384   6.672   2.224
17743WAT      O53470   2.158   7.464   5.219
17743WAT     H153471   2.257   7.447   5.223
17743WAT     H253472   2.123   7.435   5.130
17744WAT      O53473   6.497   0.888   4.600
17744WAT     H153474   6.502   0.873   4.698
17744WAT     H253475   6.585   0.864   4.558
17745WAT      O53476   6.668   2.308   3.246
17745WAT     H153477   6.756   2.262   3.236
17745WAT     H253478   6.631   2.289   3.337
17746WAT      O53479   2.138   1.123   2.620
17746WAT     H153480   2.146   1.174   2.534
17746WAT     H253481   2.065   1.055   2.612
17747WAT      O53482   6.419   4.424   9.122
17747WAT     H153483   6.446   4.433   9.026
17747WAT     H253484   6.346   4.356   9.129
17748WAT      O53485   9.128   2.931   5.563
17748WAT     H153486   9.207   2.971   5.516
17748WAT     H253487   9.048   2.936   5.504
17749WAT      O53488   2.898   4.175   3.881
17749WAT     H153489   2.889   4.089   3.831
17749WAT     H253490   2.807   4.212   3.898
17750WAT      O53491   6.412   9.031   4.309
17750WAT     H153492   6.391   9.001   4.402
17750WAT     H253493   6.496   9.084   4.310
17751WAT      O53494   6.634   7.656   1.580
17751WAT     H153495   6.571   7.584   1.551
17751WAT     H253496   6.609   7.742   1.537
17752WAT      O53497   8.460   1.371   2.701
17752WAT     H153498   8.540   1.371   2.642
17752WAT     H253499   8.379   1.396   2.648
17753WAT      O53500   3.428   1.226   9.881
17753WAT     H153501   3.337   1.211   9.843
17753WAT     H253502   3.452   1.151   9.943
17754WAT      O53503   6.368   4.944   7.566
17754WAT     H153504   6.318   5.030   7.550
17754WAT     H253505   6.305   4.875   7.601
17755WAT      O53506   5.864   9.000   5.924
17755WAT     H153507   5.829   9.091   5.948
17755WAT     H253508   5.787   8.942   5.897
17756WAT      O53509   2.449   5.280   4.409
17756WAT     H153510   2.363   5.256   4.454
17756WAT     H253511   2.505   5.198   4.398
17757WAT      O53512   6.238   2.366   6.560
17757WAT     H153513   6.264   2.429   6.487
17757WAT     H253514   6.212   2.418   6.642
17758WAT      O53515   3.140   2.590   6.257
17758WAT     H153516   3.133   2.525   6.181
17758WAT     H253517   3.054   2.640   6.265
17759WAT      O53518   7.988   2.019   0.702
17759WAT     H153519   7.971   1.931   0.745
17759WAT     H253520   8.022   2.005   0.609
17760WAT      O53521   6.734   9.362   1.004
17760WAT     H153522   6.814   9.357   1.063
17760WAT     H253523   6.758   9.327   0.913
17761WAT      O53524   2.936   9.079   7.677
17761WAT     H153525   3.014   9.049   7.622
17761WAT     H253526   2.898   9.000   7.726
17762WAT      O53527   1.056   3.533   5.649
17762WAT     H153528   1.144   3.504   5.612
17762WAT     H253529   1.049   3.632   5.646
17763WAT      O53530   4.279   4.882   7.626
17763WAT     H153531   4.336   4.945   7.679
17763WAT     H253532   4.188   4.922   7.614
17764WAT      O53533   3.948   2.151   2.384
17764WAT     H153534   4.021   2.103   2.433
17764WAT     H253535   3.975   2.163   2.289
17765WAT      O53536   8.689   8.677   5.260
17765WAT     H153537   8.611   8.723   5.218
17765WAT     H253538   8.714   8.597   5.206
17766WAT      O53539   4.901   0.568   2.030
17766WAT     H153540   4.811   0.592   1.994
17766WAT     H253541   4.967   0.563   1.956
17767WAT      O53542   7.930   8.929   6.897
17767WAT     H153543   7.926   8.996   6.823
17767WAT     H253544   7.880   8.847   6.870
17768WAT      O53545   3.588   0.209   0.040
17768WAT     H153546   3.585   0.144  -0.036
17768WAT     H253547   3.585   0.302   0.005
17769WAT      O53548   0.588   5.568   8.137
17769WAT     H153549   0.581   5.477   8.179
17769WAT     H253550   0.684   5.588   8.119
17770WAT      O53551   4.933   2.328   0.585
17770WAT     H153552   4.857   2.365   0.533
17770WAT     H253553   4.900   2.259   0.649
17771WAT      O53554   6.672   6.833   2.110
17771WAT     H153555   6.752   6.805   2.163
17771WAT     H253556   6.673   6.933   2.098
17772WAT      O53557   5.779   6.297   8.356
17772WAT     H153558   5.856   6.295   8.292
17772WAT     H253559   5.742   6.205   8.366
17773WAT      O53560   4.618   7.680   8.521
17773WAT     H153561   4.675   7.699   8.601
17773WAT     H253562   4.667   7.622   8.457
17774WAT      O53563   5.036   4.656   3.405
17774WAT     H153564   4.984   4.735   3.373
17774WAT     H253565   4.995   4.572   3.370
17775WAT      O53566   9.196   4.247   4.098
17775WAT     H153567   9.147   4.211   4.019
17775WAT     H253568   9.223   4.342   4.081
17776WAT      O53569   7.091   5.577   3.983
17776WAT     H153570   7.120   5.500   4.040
17776WAT     H253571   7.129   5.662   4.021
17777WAT      O53572   8.918   8.302   2.098
17777WAT     H153573   8.936   8.298   2.196
17777WAT     H253574   8.825   8.333   2.082
17778WAT      O53575   6.781   6.817   2.530
17778WAT     H153576   6.856   6.834   2.594
17778WAT     H253577   6.818   6.802   2.438
17779WAT      O53578   1.509   2.459   2.963
17779WAT     H153579   1.521   2.548   3.006
17779WAT     H253580   1.524   2.387   3.031
17780WAT      O53581   6.367   3.267   9.716
17780WAT     H153582   6.278   3.302   9.746
17780WAT     H253583   6.357   3.217   9.630
17781WAT      O53584   5.461   4.321   7.643
17781WAT     H153585   5.509   4.237   7.618
17781WAT     H253586   5.365   4.301   7.660
17782WAT      O53587   4.474   9.564   9.593
17782WAT     H153588   4.488   9.647   9.540
17782WAT     H253589   4.377   9.543   9.598
17783WAT      O53590   2.537   2.817   3.543
17783WAT     H153591   2.547   2.717   3.535
17783WAT     H253592   2.554   2.859   3.454
17784WAT      O53593   7.492   1.086   7.176
17784WAT     H153594   7.530   1.143   7.249
17784WAT     H253595   7.397   1.112   7.160
17785WAT      O53596   4.035   5.017   9.417
17785WAT     H153597   4.008   4.965   9.336
17785WAT     H253598   4.032   5.115   9.396
17786WAT      O53599   4.450   1.951   7.508
17786WAT     H153600   4.382   1.887   7.543
17786WAT     H253601   4.516   1.971   7.580
17787WAT      O53602   6.818   4.612   2.382
17787WAT     H153603   6.869   4.693   2.354
17787WAT     H253604   6.785   4.565   2.300
17788WAT      O53605   3.909   9.036   8.353
17788WAT     H153606   3.930   8.949   8.398
17788WAT     H253607   3.984   9.061   8.292
17789WAT      O53608   0.329   1.173   2.463
17789WAT     H153609   0.407   1.222   2.422
17789WAT     H253610   0.257   1.239   2.486
17790WAT      O53611   5.553   6.212   4.236
17790WAT     H153612   5.541   6.116   4.263
17790WAT     H253613   5.545   6.271   4.316
17791WAT      O53614   2.183   5.122   5.453
17791WAT     H153615   2.099   5.104   5.505
17791WAT     H253616   2.179   5.074   5.366
17792WAT      O53617   4.495   6.925   1.197
17792WAT     H153618   4.466   6.832   1.175
17792WAT     H253619   4.555   6.960   1.125
17793WAT      O53620   3.078   8.478   7.095
17793WAT     H153621   3.093   8.381   7.074
17793WAT     H253622   3.098   8.533   7.014
17794WAT      O53623   3.290   8.085   4.713
17794WAT     H153624   3.268   8.078   4.616
17794WAT     H253625   3.249   8.009   4.762
17795WAT      O53626   7.931   6.263   1.287
17795WAT     H153627   7.867   6.340   1.276
17795WAT     H253628   8.018   6.286   1.244
17796WAT      O53629   1.049   3.948   7.495
17796WAT     H153630   0.981   3.883   7.530
17796WAT     H253631   1.004   4.036   7.477
17797WAT      O53632   0.827   9.652   0.908
17797WAT     H153633   0.821   9.558   0.942
17797WAT     H253634   0.803   9.655   0.812
17798WAT      O53635   5.824   1.887   5.729
17798WAT     H153636   5.750   1.924   5.672
17798WAT     H253637   5.895   1.956   5.739
17799WAT      O53638   5.377   7.610   5.989
17799WAT     H153639   5.473   7.636   6.002
17799WAT     H253640   5.371   7.511   5.978
17800WAT      O53641   3.989   0.740   4.766
17800WAT     H153642   4.011   0.735   4.669
17800WAT     H253643   3.948   0.829   4.785
17801WAT      O53644   7.257   1.747   0.165
17801WAT     H153645   7.209   1.690   0.232
17801WAT     H253646   7.285   1.833   0.208
17802WAT      O53647   0.546   2.138   0.365
17802WAT     H153648   0.571   2.054   0.412
17802WAT     H253649   0.459   2.124   0.317
17803WAT      O53650   1.889   6.359   2.995
17803WAT     H153651   1.838   6.383   3.077
17803WAT     H253652   1.982   6.396   3.001
17804WAT      O53653   4.555   5.123   2.325
17804WAT     H153654   4.572   5.154   2.418
17804WAT     H253655   4.542   5.024   2.324
17805WAT      O53656   4.215   7.081   4.218
17805WAT     H153657   4.173   7.124   4.138
17805WAT     H253658   4.170   6.994   4.237
17806WAT      O53659   7.201   2.613   9.268
17806WAT     H153660   7.128   2.554   9.303
17806WAT     H253661   7.171   2.654   9.182
17807WAT      O53662   3.674   9.540   0.755
17807WAT     H153663   3.630   9.629   0.748
17807WAT     H253664   3.702   9.524   0.850
17808WAT      O53665   6.075   9.113   1.327
17808WAT     H153666   6.046   9.084   1.236
17808WAT     H253667   6.066   9.213   1.335
17809WAT      O53668   4.831   6.539   4.542
17809WAT     H153669   4.851   6.444   4.568
17809WAT     H253670   4.747   6.542   4.489
17810WAT      O53671   7.682   8.583   4.179
17810WAT     H153672   7.590   8.603   4.210
17810WAT     H253673   7.693   8.484   4.167
17811WAT      O53674   8.408   6.968   6.199
17811WAT     H153675   8.453   7.042   6.249
17811WAT     H253676   8.458   6.882   6.214
17812WAT      O53677   7.486   9.259   1.835
17812WAT     H153678   7.531   9.327   1.776
17812WAT     H253679   7.387   9.273   1.833
17813WAT      O53680   1.911   1.606   9.716
17813WAT     H153681   1.968   1.616   9.798
17813WAT     H253682   1.843   1.535   9.731
17814WAT      O53683   7.695   8.041   9.273
17814WAT     H153684   7.653   7.990   9.348
17814WAT     H253685   7.665   8.136   9.276
17815WAT      O53686   9.280   4.283   5.534
17815WAT     H153687   9.326   4.319   5.453
17815WAT     H253688   9.282   4.183   5.532
17816WAT      O53689   1.957   2.724   8.061
17816WAT     H153690   1.926   2.641   8.107
17816WAT     H253691   2.056   2.732   8.069
17817WAT      O53692   0.995   0.577   3.506
17817WAT     H153693   0.921   0.644   3.514
17817WAT     H253694   0.993   0.536   3.414
17818WAT      O53695   1.972   4.560   9.258
17818WAT     H153696   1.916   4.529   9.335
17818WAT     H253697   2.062   4.518   9.262
17819WAT      O53698   3.060   3.705   2.755
17819WAT     H153699   3.021   3.616   2.731
17819WAT     H253700   3.077   3.758   2.672
17820WAT      O53701   4.042   1.863   9.048
17820WAT     H153702   3.985   1.874   9.130
17820WAT     H253703   4.137   1.851   9.076
17821WAT      O53704   8.727   4.723   8.203
17821WAT     H153705   8.692   4.800   8.257
17821WAT     H253706   8.794   4.756   8.137
17822WAT      O53707   3.672   2.960   9.132
17822WAT     H153708   3.765   2.923   9.135
17822WAT     H253709   3.641   2.977   9.225
17823WAT      O53710   6.714   9.679   8.082
17823WAT     H153711   6.647   9.648   8.150
17823WAT     H253712   6.667   9.700   7.997
17824WAT      O53713   3.673   0.953   1.630
17824WAT     H153714   3.625   1.028   1.676
17824WAT     H253715   3.768   0.951   1.660
17825WAT      O53716   6.142   2.025   5.494
17825WAT     H153717   6.150   2.124   5.496
17825WAT     H253718   6.108   1.996   5.404
17826WAT      O53719   2.242   3.544   7.588
17826WAT     H153720   2.163   3.574   7.641
17826WAT     H253721   2.316   3.519   7.649
17827WAT      O53722   3.334   4.206   6.137
17827WAT     H153723   3.249   4.176   6.094
17827WAT     H253724   3.412   4.172   6.083
17828WAT      O53725   4.409   1.369   1.124
17828WAT     H153726   4.388   1.293   1.062
17828WAT     H253727   4.365   1.452   1.090
17829WAT      O53728   2.137   5.841   3.369
17829WAT     H153729   2.063   5.878   3.426
17829WAT     H253730   2.171   5.913   3.308
17830WAT      O53731   1.218   1.280   8.521
17830WAT     H153732   1.203   1.372   8.559
17830WAT     H253733   1.135   1.250   8.474
17831WAT      O53734   1.320   3.534   1.441
17831WAT     H153735   1.277   3.565   1.526
17831WAT     H253736   1.358   3.442   1.455
17832WAT      O53737   2.159   4.131   2.872
17832WAT     H153738   2.097   4.081   2.811
17832WAT     H253739   2.119   4.136   2.963
17833WAT      O53740   1.990   5.284   1.260
17833WAT     H153741   2.044   5.208   1.297
17833WAT     H253742   2.052   5.356   1.227
17834WAT      O53743   9.396   8.673   3.362
17834WAT     H153744   9.400   8.693   3.459
17834WAT     H253745   9.384   8.759   3.311
17835WAT      O53746   7.921   4.619   1.722
17835WAT     H153747   7.892   4.690   1.658
17835WAT     H253748   7.955   4.540   1.671
17836WAT      O53749   6.830   1.479   6.512
17836WAT     H153750   6.751   1.541   6.516
17836WAT     H253751   6.908   1.522   6.557
17837WAT      O53752   4.599   2.667   4.520
17837WAT     H153753   4.610   2.746   4.580
17837WAT     H253754   4.527   2.685   4.452
17838WAT      O53755   5.835   7.264   4.306
17838WAT     H153756   5.748   7.216   4.294
17838WAT     H253757   5.865   7.301   4.219
17839WAT      O53758   7.963   7.389   9.040
17839WAT     H153759   7.891   7.457   9.052
17839WAT     H253760   8.049   7.434   9.017
17840WAT      O53761   1.189   6.820   0.857
17840WAT     H153762   1.268   6.876   0.881
17840WAT     H253763   1.153   6.776   0.940
17841WAT      O53764   4.882   4.936   9.540
17841WAT     H153765   4.790   4.959   9.571
17841WAT     H253766   4.945   5.008   9.565
17842WAT      O53767   8.962   8.968   5.667
17842WAT     H153768   8.948   8.890   5.606
17842WAT     H253769   8.929   8.944   5.759
17843WAT      O53770   5.045   7.880   7.756
17843WAT     H153771   5.129   7.832   7.730
17843WAT     H253772   5.057   7.978   7.741
17844WAT      O53773   7.580   5.576   8.926
17844WAT     H153774   7.639   5.536   8.856
17844WAT     H253775   7.495   5.524   8.932
17845WAT      O53776   8.373   6.656   7.611
17845WAT     H153777   8.446   6.723   7.622
17845WAT     H253778   8.352   6.645   7.514
17846WAT      O53779   6.393   0.410   8.913
17846WAT     H153780   6.361   0.322   8.878
17846WAT     H253781   6.492   0.414   8.905
17847WAT      O53782   7.532   0.551   9.255
17847WAT     H153783   7.473   0.605   9.316
17847WAT     H253784   7.589   0.613   9.201
17848WAT      O53785   6.161   8.395   9.630
17848WAT     H153786   6.222   8.369   9.555
17848WAT     H253787   6.095   8.322   9.647
17849WAT      O53788   5.920   6.252   0.487
17849WAT     H153789   5.976   6.300   0.554
17849WAT     H253790   5.832   6.297   0.478
17850WAT      O53791   3.650   6.464   3.301
17850WAT     H153792   3.743   6.430   3.289
17850WAT     H253793   3.607   6.476   3.212
17851WAT      O53794   8.426   2.746   8.564
17851WAT     H153795   8.519   2.757   8.599
17851WAT     H253796   8.383   2.667   8.607
17852WAT      O53797   0.913   5.777   3.883
17852WAT     H153798   1.001   5.822   3.870
17852WAT     H253799   0.851   5.839   3.932
17853WAT      O53800   7.673   1.272   4.048
17853WAT     H153801   7.625   1.342   4.101
17853WAT     H253802   7.652   1.182   4.085
17854WAT      O53803   3.062   0.434   4.103
17854WAT     H153804   3.081   0.522   4.060
17854WAT     H253805   3.038   0.367   4.033
17855WAT      O53806   6.051   2.548   5.776
17855WAT     H153807   6.022   2.481   5.708
17855WAT     H253808   5.984   2.622   5.781
17856WAT      O53809   3.917   1.022   2.802
17856WAT     H153810   4.015   1.032   2.821
17856WAT     H253811   3.905   0.972   2.717
17857WAT      O53812   6.480   8.439   0.176
17857WAT     H153813   6.459   8.537   0.168
17857WAT     H253814   6.559   8.426   0.235
17858WAT      O53815   7.109   0.957   0.858
17858WAT     H153816   7.091   0.905   0.775
17858WAT     H253817   7.063   0.913   0.935
17859WAT      O53818   5.690   8.488   7.790
17859WAT     H153819   5.671   8.528   7.701
17859WAT     H253820   5.639   8.538   7.861
17860WAT      O53821   7.859   8.597   7.588
17860WAT     H153822   7.833   8.666   7.520
17860WAT     H253823   7.841   8.506   7.552
17861WAT      O53824   7.209   3.316   9.241
17861WAT     H153825   7.280   3.247   9.224
17861WAT     H253826   7.153   3.328   9.159
17862WAT      O53827   6.381   0.441   7.090
17862WAT     H153828   6.416   0.350   7.066
17862WAT     H253829   6.458   0.504   7.102
17863WAT      O53830   1.582   0.202   1.969
17863WAT     H153831   1.551   0.160   2.054
17863WAT     H253832   1.608   0.131   1.904
17864WAT      O53833   2.117   4.500   5.075
17864WAT     H153834   2.195   4.445   5.105
17864WAT     H253835   2.033   4.447   5.087
17865WAT      O53836   8.733   6.028   6.345
17865WAT     H153837   8.767   6.001   6.435
17865WAT     H253838   8.798   5.999   6.275
17866WAT      O53839   5.840   0.834   0.117
17866WAT     H153840   5.864   0.805   0.024
17866WAT     H253841   5.753   0.793   0.144
17867WAT      O53842   8.621   2.367   7.784
17867WAT     H153843   8.554   2.381   7.857
17867WAT     H253844   8.701   2.319   7.820
17868WAT      O53845   9.369   7.877   9.676
17868WAT     H153846   9.401   7.868   9.582
17868WAT     H253847   9.315   7.797   9.701
17869WAT      O53848   7.778   2.538   5.094
17869WAT     H153849   7.713   2.508   5.163
17869WAT     H253850   7.835   2.611   5.130
17870WAT      O53851   4.570   4.548   8.303
17870WAT     H153852   4.497   4.482   8.283
17870WAT     H253853   4.550   4.595   8.389
17871WAT      O53854   5.702   8.946   3.533
17871WAT     H153855   5.737   8.913   3.621
17871WAT     H253856   5.675   8.868   3.476
17872WAT      O53857   1.046   2.045   6.347
17872WAT     H153858   1.023   2.086   6.258
17872WAT     H253859   1.126   1.986   6.337
17873WAT      O53860   4.355   7.544   1.662
17873WAT     H153861   4.336   7.626   1.608
17873WAT     H253862   4.297   7.469   1.631
17874WAT      O53863   8.127   9.299   3.198
17874WAT     H153864   8.168   9.324   3.110
17874WAT     H253865   8.088   9.208   3.192
17875WAT      O53866   2.752   3.733   6.725
17875WAT     H153867   2.757   3.694   6.633
17875WAT     H253868   2.842   3.770   6.750
17876WAT      O53869   3.935   7.998   3.983
17876WAT     H153870   3.980   8.055   4.052
17876WAT     H253871   3.837   8.019   3.982
17877WAT      O53872   8.682   2.075   4.801
17877WAT     H153873   8.773   2.115   4.793
17877WAT     H253874   8.639   2.108   4.885
17878WAT      O53875   5.095   2.853   3.553
17878WAT     H153876   5.015   2.912   3.539
17878WAT     H253877   5.156   2.895   3.620
17879WAT      O53878   4.298   2.732   1.439
17879WAT     H153879   4.360   2.804   1.471
17879WAT     H253880   4.277   2.669   1.514
17880WAT      O53881   0.503   8.430   5.997
17880WAT     H153882   0.573   8.501   5.984
17880WAT     H253883   0.484   8.420   6.095
17881WAT      O53884   1.547   9.561   4.683
17881WAT     H153885   1.580   9.475   4.722
17881WAT     H253886   1.448   9.556   4.670
17882WAT      O53887   1.070   5.678   0.452
17882WAT     H153888   1.031   5.590   0.425
17882WAT     H253889   1.169   5.677   0.436
17883WAT      O53890   4.092   1.348   3.889
17883WAT     H153891   4.142   1.357   3.803
17883WAT     H253892   3.995   1.333   3.870
17884WAT      O53893   4.298   5.746   4.346
17884WAT     H153894   4.300   5.652   4.311
17884WAT     H253895   4.388   5.788   4.332
17885WAT      O53896   2.743   4.333   8.155
17885WAT     H153897   2.818   4.317   8.092
17885WAT     H253898   2.752   4.424   8.195
17886WAT      O53899   5.647   5.636   8.229
17886WAT     H153900   5.603   5.546   8.221
17886WAT     H253901   5.686   5.646   8.320
17887WAT      O53902   5.691   5.594   6.037
17887WAT     H153903   5.663   5.501   6.012
17887WAT     H253904   5.752   5.631   5.967
17888WAT      O53905   4.639   4.730   4.123
17888WAT     H153906   4.711   4.721   4.054
17888WAT     H253907   4.680   4.754   4.211
17889WAT      O53908   3.381   0.695   9.564
17889WAT     H153909   3.446   0.722   9.494
17889WAT     H253910   3.406   0.606   9.601
17890WAT      O53911   0.642   2.053   1.362
17890WAT     H153912   0.568   2.092   1.307
17890WAT     H253913   0.616   2.057   1.459
17891WAT      O53914   3.489   5.770   3.850
17891WAT     H153915   3.551   5.709   3.800
17891WAT     H253916   3.406   5.784   3.796
17892WAT      O53917   8.696   3.165   8.125
17892WAT     H153918   8.788   3.147   8.089
17892WAT     H253919   8.683   3.263   8.136
17893WAT      O53920   2.751   1.981   7.542
17893WAT     H153921   2.782   2.051   7.478
17893WAT     H253922   2.829   1.926   7.572
17894WAT      O53923   3.018   0.499   6.317
17894WAT     H153924   2.970   0.546   6.390
17894WAT     H253925   3.038   0.405   6.345
17895WAT      O53926   6.565   8.210   3.952
17895WAT     H153927   6.546   8.272   4.028
17895WAT     H253928   6.485   8.205   3.892
17896WAT      O53929   1.514   3.893   6.879
17896WAT     H153930   1.462   3.811   6.905
17896WAT     H253931   1.581   3.868   6.809
17897WAT      O53932   3.542   1.737   2.153
17897WAT     H153933   3.442   1.730   2.155
17897WAT     H253934   3.582   1.655   2.195
17898WAT      O53935   5.993   1.333   5.184
17898WAT     H153936   6.081   1.363   5.148
17898WAT     H253937   5.922   1.397   5.154
17899WAT      O53938   3.019   3.434   0.061
17899WAT     H153939   3.095   3.415   0.123
17899WAT     H253940   3.020   3.531   0.035
17900WAT      O53941   5.106   7.412   6.641
17900WAT     H153942   5.137   7.382   6.551
17900WAT     H253943   5.040   7.346   6.677
17901WAT      O53944   7.627   7.086   1.729
17901WAT     H153945   7.694   7.109   1.658
17901WAT     H253946   7.539   7.067   1.686
17902WAT      O53947   8.909   2.980   0.365
17902WAT     H153948   9.001   3.018   0.355
17902WAT     H253949   8.844   3.054   0.379
17903WAT      O53950   8.441   6.571   1.203
17903WAT     H153951   8.508   6.497   1.210
17903WAT     H253952   8.488   6.659   1.208
17904WAT      O53953   2.577   7.135   6.759
17904WAT     H153954   2.622   7.167   6.843
17904WAT     H253955   2.500   7.196   6.737
17905WAT      O53956   0.220   2.605   8.811
17905WAT     H153957   0.191   2.513   8.784
17905WAT     H253958   0.147   2.647   8.866
17906WAT      O53959   5.451   6.871   7.129
17906WAT     H153960   5.464   6.773   7.142
17906WAT     H253961   5.383   6.906   7.194
17907WAT      O53962   0.620   0.160   8.930
17907WAT     H153963   0.641   0.257   8.916
17907WAT     H253964   0.698   0.116   8.975
17908WAT      O53965   1.045   8.096   1.288
17908WAT     H153966   1.052   7.997   1.287
17908WAT     H253967   0.957   8.124   1.249
17909WAT      O53968   4.388   5.804   8.618
17909WAT     H153969   4.312   5.809   8.553
17909WAT     H253970   4.360   5.752   8.698
17910WAT      O53971   0.342   7.742   2.861
17910WAT     H153972   0.382   7.694   2.782
17910WAT     H253973   0.299   7.675   2.921
17911WAT      O53974   0.665   4.518   6.718
17911WAT     H153975   0.702   4.426   6.714
17911WAT     H253976   0.570   4.517   6.685
17912WAT      O53977   8.891   1.221   2.281
17912WAT     H153978   8.834   1.266   2.350
17912WAT     H253979   8.847   1.136   2.252
17913WAT      O53980   1.301   9.719   5.646
17913WAT     H153981   1.261   9.740   5.557
17913WAT     H253982   1.372   9.787   5.667
17914WAT      O53983   0.874   2.607   4.181
17914WAT     H153984   0.869   2.698   4.140
17914WAT     H253985   0.957   2.599   4.235
17915WAT      O53986   8.947   2.632   0.103
17915WAT     H153987   9.026   2.657   0.159
17915WAT     H253988   8.934   2.700   0.031
17916WAT      O53989   0.394   2.639   1.863
17916WAT     H153990   0.295   2.635   1.865
17916WAT     H253991   0.431   2.547   1.875
17917WAT      O53992   4.109   6.827   6.320
17917WAT     H153993   4.073   6.907   6.272
17917WAT     H253994   4.169   6.858   6.395
17918WAT      O53995   2.219   5.617   5.735
17918WAT     H153996   2.317   5.624   5.716
17918WAT     H253997   2.171   5.589   5.652
17919WAT      O53998   2.297   1.415   1.647
17919WAT     H153999   2.367   1.472   1.604
17919WAT     H254000   2.225   1.396   1.581
17920WAT      O54001   6.765   2.209   0.085
17920WAT     H154002   6.685   2.174   0.035
17920WAT     H254003   6.828   2.252   0.020
17921WAT      O54004   5.339   1.937   5.947
17921WAT     H154005   5.353   1.947   5.848
17921WAT     H254006   5.371   2.020   5.993
17922WAT      O54007   6.155   7.617   4.839
17922WAT     H154008   6.228   7.561   4.878
17922WAT     H254009   6.112   7.568   4.764
17923WAT      O54010   1.245   0.934   0.372
17923WAT     H154011   1.185   1.014   0.378
17923WAT     H254012   1.209   0.861   0.431
17924WAT      O54013   3.784   7.053   7.420
17924WAT     H154014   3.808   7.149   7.434
17924WAT     H254015   3.811   7.000   7.500
17925WAT      O54016   4.377   1.683   9.476
17925WAT     H154017   4.349   1.587   9.476
17925WAT     H254018   4.299   1.740   9.503
17926WAT      O54019   1.570   6.533   8.257
17926WAT     H154020   1.517   6.451   8.236
17926WAT     H254021   1.509   6.609   8.275
17927WAT      O54022   5.478   2.158   2.673
17927WAT     H154023   5.493   2.149   2.772
17927WAT     H254024   5.510   2.076   2.626
17928WAT      O54025   7.063   9.027   9.007
17928WAT     H154026   7.102   9.058   8.920
17928WAT     H254027   7.101   8.937   9.030
17929WAT      O54028   5.167   4.271   4.351
17929WAT     H154029   5.231   4.225   4.414
17929WAT     H254030   5.082   4.218   4.346
17930WAT      O54031   7.610   5.184   4.599
17930WAT     H154032   7.645   5.262   4.651
17930WAT     H254033   7.642   5.189   4.505
17931WAT      O54034   7.180   1.962   9.618
17931WAT     H154035   7.102   2.024   9.608
17931WAT     H254036   7.252   2.007   9.672
17932WAT      O54037   9.378   5.803   2.363
17932WAT     H154038   9.433   5.755   2.432
17932WAT     H254039   9.320   5.738   2.315
17933WAT      O54040   0.950   0.779   5.815
17933WAT     H154041   0.956   0.872   5.780
17933WAT     H254042   1.038   0.753   5.856
17934WAT      O54043   2.085   1.082   4.204
17934WAT     H154044   2.168   1.054   4.252
17934WAT     H254045   2.109   1.137   4.124
17935WAT      O54046   6.392   7.477   2.488
17935WAT     H154047   6.350   7.533   2.560
17935WAT     H254048   6.347   7.388   2.485
17936WAT      O54049   9.808   0.166   4.933
17936WAT     H154050   9.894   0.173   4.983
17936WAT     H254051   9.825   0.170   4.835
17937WAT      O54052   6.032   4.125   8.544
17937WAT     H154053   6.128   4.152   8.533
17937WAT     H254054   6.025   4.055   8.614
17938WAT      O54055   2.999   8.773   6.151
17938WAT     H154056   3.092   8.806   6.132
17938WAT     H254057   2.995   8.738   6.244
17939WAT      O54058   9.638   0.026   6.299
17939WAT     H154059   9.668  -0.056   6.250
17939WAT     H254060   9.677   0.107   6.256
17940WAT      O54061   9.505   7.946   5.694
17940WAT     H154062   9.435   7.978   5.630
17940WAT     H254063   9.545   8.024   5.742
17941WAT      O54064   3.180   2.371   9.332
17941WAT     H154065   3.221   2.294   9.381
17941WAT     H254066   3.243   2.404   9.262
17942WAT      O54067   8.092   9.527   5.005
17942WAT     H154068   8.040   9.606   5.038
17942WAT     H254069   8.029   9.459   4.967
17943WAT      O54070   4.817   9.352   1.090
17943WAT     H154071   4.887   9.316   1.028
17943WAT     H254072   4.857   9.427   1.144
17944WAT      O54073   7.958   1.085   9.131
17944WAT     H154074   7.875   1.044   9.170
17944WAT     H254075   8.033   1.019   9.137
17945WAT      O54076   1.350   2.548   4.237
17945WAT     H154077   1.354   2.448   4.231
17945WAT     H254078   1.427   2.582   4.290
17946WAT      O54079   8.066   8.424   6.000
17946WAT     H154080   7.991   8.488   5.981
17946WAT     H254081   8.132   8.467   6.061
17947WAT      O54082   1.663   5.995   5.765
17947WAT     H154083   1.659   6.057   5.687
17947WAT     H254084   1.633   6.043   5.847
17948WAT      O54085   1.946   4.198   4.819
17948WAT     H154086   2.000   4.119   4.847
17948WAT     H254087   1.871   4.168   4.761
17949WAT      O54088   4.828   9.157   9.019
17949WAT     H154089   4.828   9.257   9.024
17949WAT     H254090   4.919   9.122   9.040
17950WAT      O54091   8.978   8.662   5.525
17950WAT     H154092   9.003   8.706   5.438
17950WAT     H254093   8.987   8.563   5.515
17951WAT      O54094   4.113   8.284   4.533
17951WAT     H154095   4.073   8.261   4.445
17951WAT     H254096   4.160   8.204   4.571
17952WAT      O54097   1.472   3.125   2.812
17952WAT     H154098   1.403   3.060   2.780
17952WAT     H254099   1.554   3.118   2.756
17953WAT      O54100   3.990   3.219   2.388
17953WAT     H154101   4.023   3.176   2.472
17953WAT     H254102   4.057   3.206   2.315
17954WAT      O54103   8.416   6.960   0.372
17954WAT     H154104   8.368   6.997   0.451
17954WAT     H254105   8.513   6.985   0.376
17955WAT      O54106   1.943   3.237   5.162
17955WAT     H154107   1.956   3.252   5.064
17955WAT     H254108   1.939   3.139   5.180
17956WAT      O54109   4.098   3.022   0.854
17956WAT     H154110   4.131   3.030   0.948
17956WAT     H254111   4.001   3.048   0.850
17957WAT      O54112   8.382   7.593   4.870
17957WAT     H154113   8.285   7.586   4.846
17957WAT     H254114   8.410   7.689   4.866
17958WAT      O54115   6.247   5.182   7.516
17958WAT     H154116   6.305   5.221   7.444
17958WAT     H254117   6.266   5.228   7.603
17959WAT      O54118   0.250   1.459   5.941
17959WAT     H154119   0.227   1.556   5.937
17959WAT     H254120   0.349   1.449   5.956
17960WAT      O54121   4.792   8.929   8.105
17960WAT     H154122   4.749   8.982   8.032
17960WAT     H254123   4.837   8.992   8.169
17961WAT      O54124   6.055   8.496   4.782
17961WAT     H154125   6.129   8.499   4.849
17961WAT     H254126   6.033   8.589   4.752
17962WAT      O54127   3.445   3.637   3.254
17962WAT     H154128   3.353   3.673   3.242
17962WAT     H254129   3.447   3.539   3.233
17963WAT      O54130   3.111   3.860   2.544
17963WAT     H154131   3.136   3.824   2.454
17963WAT     H254132   3.029   3.916   2.536
17964WAT      O54133   5.553   4.842   5.514
17964WAT     H154134   5.619   4.770   5.495
17964WAT     H254135   5.598   4.916   5.564
17965WAT      O54136   3.291   2.575   1.733
17965WAT     H154137   3.217   2.507   1.737
17965WAT     H254138   3.377   2.532   1.760
17966WAT      O54139   0.060   3.168   5.136
17966WAT     H154140   0.046   3.214   5.223
17966WAT     H254141   0.057   3.235   5.062
17967WAT      O54142   6.728   3.971   0.563
17967WAT     H154143   6.710   3.873   0.554
17967WAT     H254144   6.642   4.020   0.577
17968WAT      O54145   6.564   9.039   8.556
17968WAT     H154146   6.506   9.107   8.601
17968WAT     H254147   6.601   9.078   8.471
17969WAT      O54148   8.783   2.686   3.784
17969WAT     H154149   8.818   2.593   3.770
17969WAT     H254150   8.788   2.709   3.882
17970WAT      O54151   3.503   4.491   8.501
17970WAT     H154152   3.415   4.522   8.537
17970WAT     H254153   3.539   4.419   8.560
17971WAT      O54154   0.068   9.786   4.237
17971WAT     H154155   0.158   9.769   4.279
17971WAT     H254156   0.081   9.824   4.145
17972WAT      O54157   0.820   0.936   0.943
17972WAT     H154158   0.749   0.873   0.975
17972WAT     H254159   0.823   1.016   1.003
17973WAT      O54160   8.277   1.366   7.938
17973WAT     H154161   8.218   1.299   7.892
17973WAT     H254162   8.263   1.361   8.037
17974WAT      O54163   2.404   7.728   8.105
17974WAT     H154164   2.356   7.669   8.040
17974WAT     H254165   2.373   7.822   8.095
17975WAT      O54166   8.585   6.178   9.175
17975WAT     H154167   8.491   6.209   9.192
17975WAT     H254168   8.628   6.155   9.262
17976WAT      O54169   4.958   1.326   7.168
17976WAT     H154170   5.050   1.327   7.209
17976WAT     H254171   4.931   1.231   7.151
17977WAT      O54172   3.127   0.493   2.318
17977WAT     H154173   3.115   0.452   2.408
17977WAT     H254174   3.164   0.585   2.328
17978WAT      O54175   4.367   0.818   7.802
17978WAT     H154176   4.333   0.803   7.709
17978WAT     H254177   4.322   0.754   7.865
17979WAT      O54178   4.123   0.763   2.995
17979WAT     H154179   4.058   0.688   2.981
17979WAT     H254180   4.097   0.816   3.076
17980WAT      O54181   7.186   6.149   8.802
17980WAT     H154182   7.270   6.131   8.750
17980WAT     H254183   7.107   6.134   8.743
17981WAT      O54184   0.098   8.281   7.858
17981WAT     H154185   0.111   8.187   7.890
17981WAT     H254186   0.172   8.306   7.797
17982WAT      O54187   6.683   1.643   8.710
17982WAT     H154188   6.639   1.733   8.708
17982WAT     H254189   6.780   1.654   8.730
17983WAT      O54190   9.129   8.136   1.078
17983WAT     H154191   9.110   8.131   1.176
17983WAT     H254192   9.206   8.197   1.062
17984WAT      O54193   7.952   4.811   4.343
17984WAT     H154194   7.909   4.721   4.352
17984WAT     H254195   7.961   4.834   4.247
17985WAT      O54196   9.079   4.271   4.761
17985WAT     H154197   9.147   4.198   4.751
17985WAT     H254198   9.126   4.358   4.780
17986WAT      O54199   0.162   4.179   9.239
17986WAT     H154200   0.206   4.265   9.264
17986WAT     H254201   0.064   4.195   9.224
17987WAT      O54202   0.929   4.191   6.915
17987WAT     H154203   0.937   4.283   6.952
17987WAT     H254204   0.838   4.178   6.876
17988WAT      O54205   9.832   8.242   3.301
17988WAT     H154206   9.842   8.317   3.366
17988WAT     H254207   9.773   8.171   3.341
17989WAT      O54208   4.958   8.473   1.585
17989WAT     H154209   4.996   8.563   1.604
17989WAT     H254210   4.960   8.456   1.486
17990WAT      O54211   5.324   8.045   3.949
17990WAT     H154212   5.400   8.003   4.000
17990WAT     H254213   5.277   8.110   4.009
17991WAT      O54214   0.712   7.182   3.495
17991WAT     H154215   0.753   7.237   3.568
17991WAT     H254216   0.613   7.178   3.507
17992WAT      O54217   5.654   4.577   2.388
17992WAT     H154218   5.600   4.633   2.452
17992WAT     H254219   5.732   4.630   2.355
17993WAT      O54220   1.583   2.946   0.004
17993WAT     H154221   1.604   3.031   0.053
17993WAT     H254222   1.534   2.968  -0.081
17994WAT      O54223   3.419   8.853   3.790
17994WAT     H154224   3.321   8.857   3.771
17994WAT     H254225   3.466   8.924   3.737
17995WAT      O54226   8.025   2.976   9.130
17995WAT     H154227   8.114   2.941   9.158
17995WAT     H254228   8.016   3.071   9.160
17996WAT      O54229   8.435   8.087   6.117
17996WAT     H154230   8.391   8.174   6.142
17996WAT     H254231   8.534   8.099   6.116
17997WAT      O54232   9.563   5.031   5.125
17997WAT     H154233   9.602   4.941   5.148
17997WAT     H254234   9.637   5.092   5.096
17998WAT      O54235   7.422   3.382   9.578
17998WAT     H154236   7.426   3.425   9.488
17998WAT     H254237   7.417   3.453   9.648
17999WAT      O54238   9.622   6.105   3.262
17999WAT     H154239   9.714   6.069   3.246
17999WAT     H254240   9.627   6.201   3.288
18000WAT      O54241   2.673   3.772   5.134
18000WAT     H154242   2.756   3.826   5.121
18000WAT     H254243   2.645   3.775   5.230
18001WAT      O54244   1.528   4.276   0.402
18001WAT     H154245   1.601   4.229   0.352
18001WAT     H254246   1.531   4.373   0.381
18002WAT      O54247   3.678   8.519   3.066
18002WAT     H154248   3.777   8.513   3.077
18002WAT     H254249   3.637   8.556   3.150
18003WAT      O54250   8.962   8.482   0.898
18003WAT     H154251   8.928   8.390   0.921
18003WAT     H254252   8.898   8.550   0.932
18004WAT      O54253   4.426   9.036   4.936
18004WAT     H154254   4.519   9.045   4.900
18004WAT     H254255   4.426   9.057   5.033
18005WAT      O54256   1.086   1.745   2.025
18005WAT     H154257   1.031   1.702   1.953
18005WAT     H254258   1.025   1.789   2.091
18006WAT      O54259   3.297   9.486   5.576
18006WAT     H154260   3.386   9.505   5.534
18006WAT     H254261   3.248   9.418   5.521
18007WAT      O54262   9.455   7.893   2.221
18007WAT     H154263   9.481   7.798   2.241
18007WAT     H254264   9.459   7.947   2.306
18008WAT      O54265   2.123   4.818   9.816
18008WAT     H154266   2.097   4.886   9.885
18008WAT     H254267   2.206   4.847   9.770
18009WAT      O54268   9.777   9.727   3.685
18009WAT     H154269   9.849   9.768   3.630
18009WAT     H254270   9.817   9.657   3.745
18010WAT      O54271   2.943   1.606   1.173
18010WAT     H154272   2.983   1.564   1.255
18010WAT     H254273   2.984   1.696   1.158
18011WAT      O54274   1.850   3.722   0.697
18011WAT     H154275   1.815   3.775   0.620
18011WAT     H254276   1.822   3.766   0.783
18012WAT      O54277   2.412   9.456   1.836
18012WAT     H154278   2.460   9.441   1.750
18012WAT     H254279   2.430   9.548   1.870
18013WAT      O54280   0.894   4.139   3.404
18013WAT     H154281   0.943   4.101   3.482
18013WAT     H254282   0.959   4.181   3.341
18014WAT      O54283   1.085   7.704   3.936
18014WAT     H154284   1.181   7.687   3.960
18014WAT     H254285   1.026   7.656   4.000
18015WAT      O54286   8.938   5.473   0.451
18015WAT     H154287   8.923   5.530   0.370
18015WAT     H254288   8.907   5.523   0.532
18016WAT      O54289   2.515   8.066   5.795
18016WAT     H154290   2.424   8.109   5.799
18016WAT     H254291   2.563   8.081   5.881
18017WAT      O54292   6.375   0.921   4.869
18017WAT     H154293   6.367   1.021   4.872
18017WAT     H254294   6.434   0.890   4.943
18018WAT      O54295   8.096   6.044   3.481
18018WAT     H154296   7.997   6.030   3.487
18018WAT     H254297   8.124   6.039   3.385
18019WAT      O54298   0.023   7.073   3.174
18019WAT     H154299   0.059   6.985   3.143
18019WAT     H254300  -0.047   7.104   3.108
18020WAT      O54301   0.400   6.360   2.916
18020WAT     H154302   0.471   6.402   2.972
18020WAT     H254303   0.409   6.391   2.822
18021WAT      O54304   3.896   9.449   6.616
18021WAT     H154305   3.864   9.534   6.657
18021WAT     H254306   3.834   9.422   6.542
18022WAT      O54307   9.516   7.310   8.417
18022WAT     H154308   9.431   7.358   8.438
18022WAT     H254309   9.574   7.308   8.499
18023WAT      O54310   5.982   5.717   2.481
18023WAT     H154311   6.070   5.674   2.501
18023WAT     H254312   5.980   5.810   2.518
18024WAT      O54313   1.212   8.648   6.025
18024WAT     H154314   1.209   8.645   6.125
18024WAT     H254315   1.150   8.718   5.992
18025WAT      O54316   3.728   7.248   1.351
18025WAT     H154317   3.721   7.288   1.442
18025WAT     H254318   3.737   7.321   1.283
18026WAT      O54319   7.435   2.882   1.399
18026WAT     H154320   7.513   2.824   1.423
18026WAT     H254321   7.364   2.826   1.356
18027WAT      O54322   6.045   0.058   1.503
18027WAT     H154323   5.999   0.103   1.426
18027WAT     H254324   5.998   0.082   1.588
18028WAT      O54325   1.493   9.315   2.291
18028WAT     H154326   1.407   9.300   2.339
18028WAT     H254327   1.563   9.342   2.357
18029WAT      O54328   2.197   2.425   3.599
18029WAT     H154329   2.251   2.349   3.636
18029WAT     H254330   2.192   2.498   3.667
18030WAT      O54331   4.453   9.343   4.099
18030WAT     H154332   4.448   9.434   4.139
18030WAT     H254333   4.466   9.275   4.171
18031WAT      O54334   0.221   8.026   4.982
18031WAT     H154335   0.292   7.957   4.965
18031WAT     H254336   0.245   8.111   4.933
18032WAT      O54337   6.558   9.764   4.197
18032WAT     H154338   6.637   9.745   4.256
18032WAT     H254339   6.559   9.700   4.120
18033WAT      O54340   8.209   7.416   8.025
18033WAT     H154341   8.238   7.459   7.940
18033WAT     H254342   8.120   7.452   8.053
18034WAT      O54343   7.184   6.425   8.229
18034WAT     H154344   7.146   6.369   8.303
18034WAT     H254345   7.110   6.474   8.183
18035WAT      O54346   6.471   4.754   6.641
18035WAT     H154347   6.542   4.824   6.641
18035WAT     H254348   6.384   4.794   6.671
18036WAT      O54349   5.499   8.105   0.958
18036WAT     H154350   5.517   8.008   0.975
18036WAT     H254351   5.534   8.159   1.035
18037WAT      O54352   3.941   9.375   7.145
18037WAT     H154353   4.006   9.394   7.218
18037WAT     H254354   3.935   9.453   7.084
18038WAT      O54355   3.392   6.335   1.135
18038WAT     H154356   3.421   6.245   1.103
18038WAT     H254357   3.294   6.333   1.155
18039WAT      O54358   5.760   4.073   2.091
18039WAT     H154359   5.774   4.136   2.167
18039WAT     H254360   5.767   4.123   2.005
18040WAT      O54361   4.340   0.858   1.929
18040WAT     H154362   4.337   0.759   1.936
18040WAT     H254363   4.330   0.898   2.020
18041WAT      O54364   7.700   0.161   9.383
18041WAT     H154365   7.616   0.207   9.355
18041WAT     H254366   7.779   0.219   9.362
18042WAT      O54367   4.037   4.104   9.394
18042WAT     H154368   4.064   4.035   9.327
18042WAT     H254369   4.049   4.068   9.486
18043WAT      O54370   4.320   1.242   9.014
18043WAT     H154371   4.245   1.289   8.967
18043WAT     H254372   4.336   1.285   9.103
18044WAT      O54373   5.795   5.582   4.461
18044WAT     H154374   5.827   5.509   4.401
18044WAT     H254375   5.867   5.651   4.471
18045WAT      O54376   7.859   2.874   4.756
18045WAT     H154377   7.952   2.911   4.755
18045WAT     H254378   7.862   2.776   4.777
18046WAT      O54379   1.897   5.963   0.336
18046WAT     H154380   1.927   6.001   0.249
18046WAT     H254381   1.831   6.025   0.379
18047WAT      O54382   6.966   6.245   6.096
18047WAT     H154383   6.888   6.183   6.102
18047WAT     H254384   7.005   6.257   6.187
18048WAT      O54385   9.639   1.450   5.700
18048WAT     H154386   9.570   1.503   5.651
18048WAT     H254387   9.724   1.503   5.707
18049WAT      O54388   2.400   4.447   5.109
18049WAT     H154389   2.403   4.445   5.009
18049WAT     H254390   2.475   4.393   5.146
18050WAT      O54391   8.931   4.750   3.618
18050WAT     H154392   8.872   4.695   3.560
18050WAT     H254393   8.895   4.843   3.623
18051WAT      O54394   8.800   7.017   7.551
18051WAT     H154395   8.702   7.017   7.571
18051WAT     H254396   8.818   6.955   7.476
18052WAT      O54397   2.064   5.482   6.963
18052WAT     H154398   2.000   5.467   6.888
18052WAT     H254399   2.156   5.500   6.926
18053WAT      O54400   5.042   6.003   2.832
18053WAT     H154401   5.007   6.013   2.925
18053WAT     H254402   5.114   6.070   2.816
18054WAT      O54403   1.059   6.974   7.232
18054WAT     H154404   0.970   6.958   7.190
18054WAT     H254405   1.116   7.026   7.168
18055WAT      O54406   1.998   7.264   1.588
18055WAT     H154407   2.081   7.320   1.579
18055WAT     H254408   1.986   7.210   1.505
18056WAT      O54409   7.168   7.245   2.999
18056WAT     H154410   7.115   7.275   2.920
18056WAT     H254411   7.261   7.221   2.969
18057WAT      O54412   7.102   1.833   3.303
18057WAT     H154413   7.143   1.771   3.235
18057WAT     H254414   7.171   1.858   3.371
18058WAT      O54415   7.363   9.301   9.776
18058WAT     H154416   7.438   9.336   9.720
18058WAT     H254417   7.389   9.213   9.816
18059WAT      O54418   8.191   2.478   4.191
18059WAT     H154419   8.251   2.555   4.169
18059WAT     H254420   8.167   2.430   4.107
18060WAT      O54421   3.361   1.098   1.945
18060WAT     H154422   3.316   1.185   1.968
18060WAT     H254423   3.389   1.052   2.029
18061WAT      O54424   2.388   4.237   4.357
18061WAT     H154425   2.367   4.202   4.449
18061WAT     H254426   2.487   4.246   4.347
18062WAT      O54427   9.832   2.208   6.121
18062WAT     H154428   9.870   2.205   6.213
18062WAT     H254429   9.818   2.303   6.094
18063WAT      O54430   8.038   7.410   4.052
18063WAT     H154431   8.064   7.410   3.955
18063WAT     H254432   8.111   7.451   4.106
18064WAT      O54433   7.583   6.283   1.365
18064WAT     H154434   7.565   6.350   1.436
18064WAT     H254435   7.563   6.191   1.399
18065WAT      O54436   8.299   6.056   5.662
18065WAT     H154437   8.283   6.050   5.760
18065WAT     H254438   8.212   6.051   5.613
18066WAT      O54439   6.469   0.398   5.817
18066WAT     H154440   6.383   0.376   5.770
18066WAT     H254441   6.469   0.357   5.908
18067WAT      O54442   3.359   4.085   5.536
18067WAT     H154443   3.303   4.164   5.512
18067WAT     H254444   3.354   4.069   5.635
18068WAT      O54445   7.599   1.743   9.889
18068WAT     H154446   7.656   1.736   9.970
18068WAT     H254447   7.576   1.651   9.856
18069WAT      O54448   6.768   1.869   1.118
18069WAT     H154449   6.738   1.957   1.156
18069WAT     H254450   6.692   1.825   1.071
18070WAT      O54451   4.848   6.311   7.476
18070WAT     H154452   4.899   6.274   7.554
18070WAT     H254453   4.752   6.324   7.503
18071WAT      O54454   7.983   3.735   2.024
18071WAT     H154455   7.886   3.748   2.007
18071WAT     H254456   7.996   3.663   2.093
18072WAT      O54457   2.430   6.571   3.161
18072WAT     H154458   2.424   6.543   3.066
18072WAT     H254459   2.526   6.575   3.189
18073WAT      O54460   0.229   6.475   8.245
18073WAT     H154461   0.274   6.557   8.207
18073WAT     H254462   0.130   6.489   8.245
18074WAT      O54463   4.432   2.218   9.586
18074WAT     H154464   4.429   2.249   9.681
18074WAT     H254465   4.509   2.156   9.574
18075WAT      O54466   3.010   8.097   2.623
18075WAT     H154467   2.922   8.122   2.664
18075WAT     H254468   3.084   8.128   2.682
18076WAT      O54469   5.599   5.347   5.978
18076WAT     H154470   5.588   5.269   5.917
18076WAT     H254471   5.521   5.352   6.040
18077WAT      O54472   7.557   4.576   7.778
18077WAT     H154473   7.638   4.572   7.719
18077WAT     H254474   7.487   4.514   7.743
18078WAT      O54475   7.163   0.722   1.526
18078WAT     H154476   7.203   0.813   1.540
18078WAT     H254477   7.201   0.681   1.444
18079WAT      O54478   2.912   0.028   8.723
18079WAT     H154479   2.833  -0.020   8.686
18079WAT     H254480   2.881   0.099   8.787
18080WAT      O54481   5.990   1.851   1.804
18080WAT     H154482   6.072   1.886   1.849
18080WAT     H254483   5.989   1.880   1.709
18081WAT      O54484   5.819   1.585   5.133
18081WAT     H154485   5.817   1.658   5.201
18081WAT     H254486   5.858   1.619   5.048
18082WAT      O54487   5.194   3.880   2.789
18082WAT     H154488   5.175   3.827   2.872
18082WAT     H254489   5.233   3.968   2.814
18083WAT      O54490   6.943   1.180   1.298
18083WAT     H154491   6.912   1.246   1.230
18083WAT     H254492   7.029   1.138   1.269
18084WAT      O54493   7.166   3.364   3.848
18084WAT     H154494   7.226   3.441   3.829
18084WAT     H254495   7.071   3.393   3.835
18085WAT      O54496   1.598   8.732   3.729
18085WAT     H154497   1.686   8.686   3.731
18085WAT     H254498   1.570   8.756   3.822
18086WAT      O54499   2.477   2.819   8.025
18086WAT     H154500   2.554   2.789   8.082
18086WAT     H254501   2.429   2.894   8.071
18087WAT      O54502   1.548   4.717   1.857
18087WAT     H154503   1.465   4.725   1.913
18087WAT     H254504   1.618   4.778   1.894
18088WAT      O54505   2.882   9.649   5.132
18088WAT     H154506   2.932   9.566   5.105
18088WAT     H254507   2.799   9.656   5.077
18089WAT      O54508   8.627   3.452   3.415
18089WAT     H154509   8.620   3.418   3.321
18089WAT     H254510   8.536   3.476   3.449
18090WAT      O54511   8.552   7.191   6.379
18090WAT     H154512   8.599   7.110   6.416
18090WAT     H254513   8.497   7.233   6.451
18091WAT      O54514   8.103   6.793   2.647
18091WAT     H154515   8.125   6.810   2.743
18091WAT     H254516   8.005   6.774   2.638
18092WAT      O54517   7.796   4.579   3.484
18092WAT     H154518   7.820   4.625   3.398
18092WAT     H254519   7.809   4.642   3.560
18093WAT      O54520   6.386   0.136   3.729
18093WAT     H154521   6.364   0.176   3.639
18093WAT     H254522   6.483   0.110   3.730
18094WAT      O54523   4.343   8.461   7.194
18094WAT     H154524   4.330   8.501   7.285
18094WAT     H254525   4.424   8.500   7.151
18095WAT      O54526   6.224   8.724   5.504
18095WAT     H154527   6.185   8.815   5.518
18095WAT     H254528   6.235   8.679   5.592
18096WAT      O54529   5.580   8.972   7.031
18096WAT     H154530   5.525   8.970   6.947
18096WAT     H254531   5.538   9.034   7.097
18097WAT      O54532   4.680   1.077   9.516
18097WAT     H154533   4.700   1.069   9.418
18097WAT     H254534   4.634   0.994   9.547
18098WAT      O54535   5.096   2.709   4.813
18098WAT     H154536   5.074   2.660   4.729
18098WAT     H254537   5.130   2.801   4.790
18099WAT      O54538   4.610   3.542   2.635
18099WAT     H154539   4.558   3.607   2.691
18099WAT     H254540   4.550   3.465   2.610
18100WAT      O54541   5.608   3.440   5.343
18100WAT     H154542   5.702   3.444   5.311
18100WAT     H254543   5.558   3.370   5.293
18101WAT      O54544   2.342   4.080   2.656
18101WAT     H154545   2.320   4.010   2.587
18101WAT     H254546   2.282   4.069   2.735
18102WAT      O54547   8.004   0.456   1.352
18102WAT     H154548   7.987   0.374   1.297
18102WAT     H254549   7.918   0.506   1.366
18103WAT      O54550   2.808   8.812   4.145
18103WAT     H154551   2.852   8.730   4.181
18103WAT     H254552   2.745   8.786   4.071
18104WAT      O54553   6.554   2.578   8.956
18104WAT     H154554   6.636   2.625   8.987
18104WAT     H254555   6.505   2.541   9.035
18105WAT      O54556   3.297   2.195   2.452
18105WAT     H154557   3.295   2.160   2.358
18105WAT     H254558   3.374   2.257   2.463
18106WAT      O54559   2.918   3.578   8.479
18106WAT     H154560   2.855   3.589   8.403
18106WAT     H254561   3.010   3.560   8.445
18107WAT      O54562   8.897   2.890   7.861
18107WAT     H154563   8.860   2.931   7.778
18107WAT     H254564   8.921   2.962   7.926
18108WAT      O54565   2.770   9.072   7.284
18108WAT     H154566   2.723   9.074   7.372
18108WAT     H254567   2.868   9.087   7.298
18109WAT      O54568   1.206   1.482   3.857
18109WAT     H154569   1.217   1.520   3.949
18109WAT     H254570   1.165   1.551   3.797
18110WAT      O54571   9.007   2.880   9.355
18110WAT     H154572   9.011   2.959   9.293
18110WAT     H254573   8.949   2.809   9.315
18111WAT      O54574   3.818   5.334   8.033
18111WAT     H154575   3.761   5.393   8.090
18111WAT     H254576   3.913   5.341   8.063
18112WAT      O54577   3.230   0.292   9.325
18112WAT     H154578   3.258   0.198   9.348
18112WAT     H254579   3.162   0.323   9.391
18113WAT      O54580   2.928   7.783   6.126
18113WAT     H154581   2.984   7.702   6.143
18113WAT     H254582   2.968   7.862   6.172
18114WAT      O54583   2.209   8.465   2.186
18114WAT     H154584   2.153   8.394   2.144
18114WAT     H254585   2.151   8.544   2.208
18115WAT      O54586   6.180   5.883   0.653
18115WAT     H154587   6.145   5.792   0.676
18115WAT     H254588   6.213   5.883   0.558
18116WAT      O54589   4.414   0.247   3.968
18116WAT     H154590   4.360   0.279   3.890
18116WAT     H254591   4.375   0.283   4.052
18117WAT      O54592   0.422   6.230   3.264
18117WAT     H154593   0.387   6.322   3.283
18117WAT     H254594   0.521   6.234   3.252
18118WAT      O54595   6.058   3.560   6.800
18118WAT     H154596   6.113   3.486   6.837
18118WAT     H254597   5.964   3.553   6.834
18119WAT      O54598   4.676   5.423   6.520
18119WAT     H154599   4.732   5.481   6.462
18119WAT     H254600   4.729   5.343   6.548
18120WAT      O54601   7.255   7.679   7.023
18120WAT     H154602   7.170   7.629   7.007
18120WAT     H254603   7.323   7.620   7.066
18121WAT      O54604   8.580   0.508   5.384
18121WAT     H154605   8.494   0.459   5.365
18121WAT     H254606   8.579   0.540   5.479
18122WAT      O54607   0.623   0.709   2.519
18122WAT     H154608   0.561   0.787   2.503
18122WAT     H254609   0.631   0.694   2.617
18123WAT      O54610   8.519   2.287   7.146
18123WAT     H154611   8.566   2.246   7.224
18123WAT     H254612   8.464   2.217   7.100
18124WAT      O54613   2.444   7.956   5.335
18124WAT     H154614   2.451   7.883   5.403
18124WAT     H254615   2.490   8.038   5.367
18125WAT      O54616   7.775   6.223   2.816
18125WAT     H154617   7.719   6.156   2.865
18125WAT     H254618   7.837   6.267   2.881
18126WAT      O54619   3.278   2.504   4.270
18126WAT     H154620   3.280   2.497   4.170
18126WAT     H254621   3.194   2.464   4.305
18127WAT      O54622   9.672   8.920   3.259
18127WAT     H154623   9.614   8.907   3.179
18127WAT     H254624   9.762   8.881   3.241
18128WAT      O54625   2.691   7.394   3.035
18128WAT     H154626   2.759   7.451   2.987
18128WAT     H254627   2.682   7.307   2.988
18129WAT      O54628   5.309   9.620   7.836
18129WAT     H154629   5.302   9.540   7.895
18129WAT     H254630   5.220   9.642   7.798
18130WAT      O54631   3.478   3.532   9.543
18130WAT     H154632   3.400   3.508   9.600
18130WAT     H254633   3.562   3.496   9.585
18131WAT      O54634   9.094   7.771   0.485
18131WAT     H154635   9.022   7.798   0.421
18131WAT     H254636   9.120   7.676   0.466
18132WAT      O54637   0.791   5.894   9.670
18132WAT     H154638   0.755   5.897   9.763
18132WAT     H254639   0.749   5.967   9.616
18133WAT      O54640   0.889   2.646   1.943
18133WAT     H154641   0.988   2.635   1.936
18133WAT     H254642   0.846   2.623   1.855
18134WAT      O54643   4.577   4.656   7.823
18134WAT     H154644   4.631   4.606   7.755
18134WAT     H254645   4.485   4.619   7.827
18135WAT      O54646   0.973   7.921   2.150
18135WAT     H154647   1.031   7.881   2.221
18135WAT     H254648   1.029   7.978   2.090
18136WAT      O54649   7.344   7.258   9.362
18136WAT     H154650   7.360   7.324   9.289
18136WAT     H254651   7.372   7.167   9.332
18137WAT      O54652   4.119   9.114   8.195
18137WAT     H154653   4.150   9.117   8.100
18137WAT     H254654   4.189   9.155   8.254
18138WAT      O54655   6.826   2.777   6.062
18138WAT     H154656   6.864   2.869   6.078
18138WAT     H254657   6.805   2.734   6.150
18139WAT      O54658   4.419   5.999   9.844
18139WAT     H154659   4.328   6.031   9.818
18139WAT     H254660   4.477   6.077   9.867
18140WAT      O54661   6.633   3.584   8.540
18140WAT     H154662   6.727   3.583   8.573
18140WAT     H254663   6.572   3.618   8.612
18141WAT      O54664   1.209   4.079   7.660
18141WAT     H154665   1.260   4.142   7.602
18141WAT     H254666   1.156   4.016   7.603
18142WAT      O54667   7.466   7.026   9.269
18142WAT     H154668   7.500   7.014   9.176
18142WAT     H254669   7.516   6.965   9.331
18143WAT      O54670   4.760   2.386   4.754
18143WAT     H154671   4.675   2.362   4.801
18143WAT     H254672   4.784   2.481   4.776
18144WAT      O54673   6.217   7.565   3.395
18144WAT     H154674   6.138   7.569   3.334
18144WAT     H254675   6.209   7.638   3.464
18145WAT      O54676   8.564   1.145   4.892
18145WAT     H154677   8.526   1.227   4.850
18145WAT     H254678   8.490   1.080   4.912
18146WAT      O54679   4.470   4.167   9.637
18146WAT     H154680   4.428   4.086   9.595
18146WAT     H254681   4.441   4.173   9.732
18147WAT      O54682   5.443   0.764   3.510
18147WAT     H154683   5.393   0.822   3.575
18147WAT     H254684   5.533   0.804   3.494
18148WAT      O54685   8.431   0.678   6.148
18148WAT     H154686   8.345   0.725   6.131
18148WAT     H254687   8.415   0.593   6.196
18149WAT      O54688   3.069   3.498   4.321
18149WAT     H154689   3.006   3.496   4.399
18149WAT     H254690   3.050   3.580   4.266
18150WAT      O54691   8.091   0.954   4.497
18150WAT     H154692   8.097   1.047   4.534
18150WAT     H254693   8.037   0.955   4.413
18151WAT      O54694   4.844   1.277   4.122
18151WAT     H154695   4.907   1.346   4.156
18151WAT     H254696   4.826   1.292   4.025
18152WAT      O54697   3.620   2.496   0.256
18152WAT     H154698   3.704   2.544   0.231
18152WAT     H254699   3.643   2.418   0.314
18153WAT      O54700   2.499   0.589   8.798
18153WAT     H154701   2.548   0.502   8.811
18153WAT     H254702   2.401   0.573   8.801
18154WAT      O54703   7.151   9.567   9.386
18154WAT     H154704   7.091   9.487   9.393
18154WAT     H254705   7.146   9.619   9.471
18155WAT      O54706   5.811   1.344   1.777
18155WAT     H154707   5.804   1.369   1.874
18155WAT     H254708   5.730   1.378   1.729
18156WAT      O54709   0.825   6.222   9.842
18156WAT     H154710   0.801   6.282   9.919
18156WAT     H254711   0.892   6.154   9.873
18157WAT      O54712   6.288   6.484   7.044
18157WAT     H154713   6.303   6.452   6.950
18157WAT     H254714   6.323   6.416   7.108
18158WAT      O54715   7.776   5.927   8.268
18158WAT     H154716   7.871   5.960   8.266
18158WAT     H254717   7.728   5.957   8.186
18159WAT      O54718   2.230   5.372   5.861
18159WAT     H154719   2.245   5.455   5.807
18159WAT     H254720   2.132   5.348   5.859
18160WAT      O54721   7.613   6.358   7.913
18160WAT     H154722   7.521   6.372   7.952
18160WAT     H254723   7.674   6.325   7.985
18161WAT      O54724   7.916   7.676   3.706
18161WAT     H154725   7.930   7.646   3.801
18161WAT     H254726   7.982   7.631   3.647
18162WAT      O54727   7.465   4.736   8.434
18162WAT     H154728   7.411   4.792   8.497
18162WAT     H254729   7.558   4.771   8.429
18163WAT      O54730   2.559   8.570   6.137
18163WAT     H154731   2.497   8.558   6.215
18163WAT     H254732   2.510   8.617   6.063
18164WAT      O54733   2.866   3.419   5.765
18164WAT     H154734   2.938   3.384   5.705
18164WAT     H254735   2.853   3.516   5.748
18165WAT      O54736   3.552   1.207   1.782
18165WAT     H154737   3.585   1.285   1.836
18165WAT     H254738   3.489   1.152   1.836
18166WAT      O54739   8.447   8.687   8.293
18166WAT     H154740   8.450   8.754   8.219
18166WAT     H254741   8.397   8.606   8.263
18167WAT      O54742   6.064   1.852   3.638
18167WAT     H154743   6.053   1.776   3.701
18167WAT     H254744   6.141   1.835   3.577
18168WAT      O54745   1.205   6.561   6.679
18168WAT     H154746   1.186   6.477   6.628
18168WAT     H254747   1.290   6.550   6.730
18169WAT      O54748   1.898   5.730   9.861
18169WAT     H154749   1.890   5.646   9.808
18169WAT     H254750   1.993   5.762   9.859
18170WAT      O54751   1.501   9.408   2.623
18170WAT     H154752   1.530   9.496   2.587
18170WAT     H254753   1.569   9.338   2.598
18171WAT      O54754   0.999   9.530   5.772
18171WAT     H154755   1.085   9.529   5.823
18171WAT     H254756   0.979   9.623   5.743
18172WAT      O54757   8.936   2.416   7.686
18172WAT     H154758   8.903   2.510   7.697
18172WAT     H254759   9.013   2.401   7.747
18173WAT      O54760   5.542   5.374   3.694
18173WAT     H154761   5.474   5.441   3.664
18173WAT     H254762   5.520   5.345   3.787
18174WAT      O54763   5.916   4.731   2.266
18174WAT     H154764   5.980   4.736   2.189
18174WAT     H254765   5.940   4.799   2.335
18175WAT      O54766   2.161   0.478   6.420
18175WAT     H154767   2.209   0.438   6.498
18175WAT     H254768   2.224   0.539   6.371
18176WAT      O54769   9.488   1.240   6.793
18176WAT     H154770   9.456   1.153   6.755
18176WAT     H254771   9.411   1.302   6.804
18177WAT      O54772   3.900   0.057   1.877
18177WAT     H154773   3.958   0.027   1.953
18177WAT     H254774   3.941   0.136   1.832
18178WAT      O54775   5.536   4.092   9.662
18178WAT     H154776   5.634   4.111   9.659
18178WAT     H254777   5.510   4.035   9.584
18179WAT      O54778   5.129   4.168   9.131
18179WAT     H154779   5.186   4.133   9.056
18179WAT     H254780   5.182   4.168   9.216
18180WAT      O54781   5.955   6.871   9.593
18180WAT     H154782   6.043   6.919   9.592
18180WAT     H254783   5.954   6.807   9.669
18181WAT      O54784   2.730   4.084   9.490
18181WAT     H154785   2.827   4.090   9.467
18181WAT     H254786   2.709   3.991   9.521
18182WAT      O54787   2.100   6.756   1.991
18182WAT     H154788   2.134   6.807   2.070
18182WAT     H254789   2.125   6.660   1.999
18183WAT      O54790   0.154   8.014   7.911
18183WAT     H154791   0.240   7.970   7.940
18183WAT     H254792   0.124   7.973   7.824
18184WAT      O54793   7.288   7.266   3.649
18184WAT     H154794   7.347   7.186   3.663
18184WAT     H254795   7.305   7.333   3.721
18185WAT      O54796   1.798   3.493   5.190
18185WAT     H154797   1.858   3.530   5.261
18185WAT     H254798   1.737   3.565   5.157
18186WAT      O54799   6.158   1.521   1.104
18186WAT     H154800   6.088   1.550   1.040
18186WAT     H254801   6.242   1.497   1.054
18187WAT      O54802   5.368   4.420   4.262
18187WAT     H154803   5.289   4.363   4.286
18187WAT     H254804   5.338   4.500   4.211
18188WAT      O54805   7.153   1.178   2.508
18188WAT     H154806   7.199   1.207   2.424
18188WAT     H254807   7.054   1.186   2.497
18189WAT      O54808   2.109   8.363   1.404
18189WAT     H154809   2.206   8.360   1.377
18189WAT     H254810   2.090   8.286   1.465
18190WAT      O54811   1.675   6.874   1.730
18190WAT     H154812   1.704   6.961   1.690
18190WAT     H254813   1.686   6.801   1.662
18191WAT      O54814   0.996   7.359   8.743
18191WAT     H154815   1.023   7.395   8.832
18191WAT     H254816   0.966   7.264   8.753
18192WAT      O54817   1.448   2.552   7.202
18192WAT     H154818   1.381   2.506   7.143
18192WAT     H254819   1.532   2.569   7.150
18193WAT      O54820   0.359   5.476   7.868
18193WAT     H154821   0.276   5.457   7.816
18193WAT     H254822   0.335   5.527   7.951
18194WAT      O54823   9.402   1.631   6.149
18194WAT     H154824   9.498   1.656   6.157
18194WAT     H254825   9.350   1.675   6.223
18195WAT      O54826   8.888   9.664   7.532
18195WAT     H154827   8.796   9.626   7.532
18195WAT     H254828   8.900   9.723   7.451
18196WAT      O54829   8.987   5.637   7.465
18196WAT     H154830   9.014   5.557   7.519
18196WAT     H254831   8.953   5.709   7.526
18197WAT      O54832   6.727   8.908   7.836
18197WAT     H154833   6.771   8.829   7.793
18197WAT     H254834   6.634   8.883   7.864
18198WAT      O54835   2.533   2.026   1.077
18198WAT     H154836   2.624   1.997   1.047
18198WAT     H254837   2.466   2.009   1.004
18199WAT      O54838   6.383   3.550   5.189
18199WAT     H154839   6.396   3.545   5.090
18199WAT     H254840   6.286   3.560   5.209
18200WAT      O54841   5.855   7.809   8.655
18200WAT     H154842   5.944   7.826   8.613
18200WAT     H254843   5.819   7.721   8.622
18201WAT      O54844   3.669   8.457   2.370
18201WAT     H154845   3.659   8.539   2.314
18201WAT     H254846   3.761   8.419   2.358
18202WAT      O54847   1.202   1.289   3.555
18202WAT     H154848   1.282   1.302   3.613
18202WAT     H254849   1.216   1.337   3.468
18203WAT      O54850   0.476   7.380   5.666
18203WAT     H154851   0.430   7.293   5.682
18203WAT     H254852   0.539   7.371   5.588
18204WAT      O54853   8.040   4.760   8.408
18204WAT     H154854   8.106   4.819   8.362
18204WAT     H254855   7.997   4.699   8.342
18205WAT      O54856   8.063   9.788   2.340
18205WAT     H154857   8.006   9.841   2.402
18205WAT     H254858   8.105   9.711   2.390
18206WAT      O54859   9.777   8.709   5.895
18206WAT     H154860   9.723   8.769   5.836
18206WAT     H254861   9.872   8.711   5.866
18207WAT      O54862   1.380   1.258   5.758
18207WAT     H154863   1.464   1.219   5.721
18207WAT     H254864   1.386   1.261   5.858
18208WAT      O54865   6.762   7.462   2.596
18208WAT     H154866   6.690   7.530   2.594
18208WAT     H254867   6.758   7.411   2.683
18209WAT      O54868   2.765   3.428   2.326
18209WAT     H154869   2.703   3.495   2.367
18209WAT     H254870   2.844   3.475   2.286
18210WAT      O54871   0.009   4.166   3.150
18210WAT     H154872   0.062   4.183   3.067
18210WAT     H254873  -0.082   4.133   3.125
18211WAT      O54874   0.399   7.342   4.249
18211WAT     H154875   0.394   7.269   4.317
18211WAT     H254876   0.464   7.317   4.177
18212WAT      O54877   4.079   5.254   0.919
18212WAT     H154878   4.137   5.225   0.995
18212WAT     H254879   4.021   5.179   0.890
18213WAT      O54880   6.470   2.407   0.832
18213WAT     H154881   6.446   2.446   0.743
18213WAT     H254882   6.492   2.481   0.896
18214WAT      O54883   7.068   8.680   0.946
18214WAT     H154884   7.096   8.776   0.951
18214WAT     H254885   6.969   8.673   0.960
18215WAT      O54886   3.492   9.302   4.590
18215WAT     H154887   3.455   9.290   4.681
18215WAT     H254888   3.565   9.235   4.574
18216WAT      O54889   4.481   1.883   4.846
18216WAT     H154890   4.499   1.981   4.846
18216WAT     H254891   4.515   1.842   4.762
18217WAT      O54892   3.931   0.884   4.195
18217WAT     H154893   3.865   0.939   4.142
18217WAT     H254894   4.008   0.942   4.221
18218WAT      O54895   5.112   4.967   0.384
18218WAT     H154896   5.197   5.015   0.403
18218WAT     H254897   5.040   5.033   0.360
18219WAT      O54898   5.757   1.148   4.755
18219WAT     H154899   5.849   1.124   4.786
18219WAT     H254900   5.694   1.142   4.832
18220WAT      O54901   4.154   5.701   3.241
18220WAT     H154902   4.234   5.647   3.267
18220WAT     H254903   4.079   5.638   3.219
18221WAT      O54904   4.961   5.465   3.632
18221WAT     H154905   4.881   5.408   3.652
18221WAT     H254906   4.979   5.525   3.710
18222WAT      O54907   1.076   7.607   2.172
18222WAT     H154908   1.066   7.657   2.258
18222WAT     H254909   0.985   7.589   2.134
18223WAT      O54910   4.051   3.616   5.968
18223WAT     H154911   4.098   3.703   5.981
18223WAT     H254912   4.022   3.607   5.872
18224WAT      O54913   2.732   5.493   5.481
18224WAT     H154914   2.820   5.508   5.436
18224WAT     H254915   2.742   5.504   5.580
18225WAT      O54916   4.103   1.699   1.189
18225WAT     H154917   4.098   1.762   1.267
18225WAT     H254918   4.071   1.609   1.218
18226WAT      O54919   7.868   4.550   4.338
18226WAT     H154920   7.844   4.497   4.257
18226WAT     H254921   7.841   4.500   4.420
18227WAT      O54922   3.053   6.840   4.085
18227WAT     H154923   2.993   6.802   4.156
18227WAT     H254924   3.134   6.880   4.127
18228WAT      O54925   2.488   9.414   8.075
18228WAT     H154926   2.425   9.339   8.095
18228WAT     H254927   2.530   9.446   8.161
18229WAT      O54928   6.895   4.334   1.986
18229WAT     H154929   6.960   4.327   1.910
18229WAT     H254930   6.944   4.336   2.072
18230WAT      O54931   0.015   9.402   2.929
18230WAT     H154932   0.001   9.304   2.919
18230WAT     H254933  -0.074   9.448   2.933
18231WAT      O54934   4.494   0.779   6.325
18231WAT     H154935   4.514   0.696   6.274
18231WAT     H254936   4.575   0.807   6.377
18232WAT      O54937   9.358   8.131   8.494
18232WAT     H154938   9.398   8.074   8.422
18232WAT     H254939   9.284   8.081   8.539
18233WAT      O54940   8.119   8.621   0.316
18233WAT     H154941   8.036   8.670   0.342
18233WAT     H254942   8.097   8.524   0.304
18234WAT      O54943   3.962   5.295   0.222
18234WAT     H154944   3.886   5.241   0.186
18234WAT     H254945   3.992   5.256   0.309
18235WAT      O54946   5.754   1.667   1.610
18235WAT     H154947   5.820   1.688   1.538
18235WAT     H254948   5.718   1.575   1.595
18236WAT      O54949   7.100   5.558   0.223
18236WAT     H154950   7.114   5.618   0.301
18236WAT     H254951   7.006   5.569   0.189
18237WAT      O54952   0.773   8.842   0.555
18237WAT     H154953   0.863   8.867   0.520
18237WAT     H254954   0.719   8.799   0.482
18238WAT      O54955   4.190   1.668   2.244
18238WAT     H154956   4.224   1.726   2.319
18238WAT     H254957   4.102   1.629   2.270
18239WAT      O54958   9.710   9.417   8.311
18239WAT     H154959   9.740   9.510   8.331
18239WAT     H254960   9.657   9.382   8.389
18240WAT      O54961   1.459   4.569   2.230
18240WAT     H154962   1.450   4.653   2.283
18240WAT     H254963   1.491   4.495   2.291
18241WAT      O54964   2.902   3.334   3.469
18241WAT     H154965   3.002   3.328   3.473
18241WAT     H254966   2.870   3.298   3.382
18242WAT      O54967   3.788   0.119   9.679
18242WAT     H154968   3.845   0.062   9.620
18242WAT     H254969   3.801   0.216   9.654
18243WAT      O54970   7.527   7.671   8.723
18243WAT     H154971   7.562   7.746   8.779
18243WAT     H254972   7.551   7.583   8.765
18244WAT      O54973   8.312   3.905   3.436
18244WAT     H154974   8.271   3.964   3.506
18244WAT     H254975   8.244   3.883   3.367
18245WAT      O54976   3.565   6.953   6.245
18245WAT     H154977   3.477   6.905   6.247
18245WAT     H254978   3.583   6.992   6.335
18246WAT      O54979   8.327   1.529   3.116
18246WAT     H154980   8.349   1.615   3.160
18246WAT     H254981   8.255   1.482   3.167
18247WAT      O54982   2.424   0.047   0.890
18247WAT     H154983   2.507   0.059   0.835
18247WAT     H254984   2.449   0.045   0.987
18248WAT      O54985   0.971   0.468   5.750
18248WAT     H154986   1.020   0.540   5.700
18248WAT     H254987   0.988   0.478   5.848
18249WAT      O54988   3.706   5.102   8.800
18249WAT     H154989   3.721   5.088   8.898
18249WAT     H254990   3.639   5.037   8.766
18250WAT      O54991   3.714   8.483   1.463
18250WAT     H154992   3.661   8.407   1.502
18250WAT     H254993   3.671   8.513   1.378
18251WAT      O54994   3.262   2.974   7.448
18251WAT     H154995   3.353   2.951   7.485
18251WAT     H254996   3.253   3.073   7.440
18252WAT      O54997   1.367   7.946   7.417
18252WAT     H154998   1.346   8.044   7.412
18252WAT     H254999   1.460   7.933   7.449
18253WAT      O55000   7.724   3.414   5.477
18253WAT     H155001   7.687   3.422   5.570
18253WAT     H255002   7.822   3.397   5.482
18254WAT      O55003   7.033   3.749   5.077
18254WAT     H155004   6.982   3.821   5.031
18254WAT     H255005   6.969   3.682   5.115
18255WAT      O55006   1.776   5.281   1.084
18255WAT     H155007   1.809   5.309   0.993
18255WAT     H255008   1.853   5.271   1.146
18256WAT      O55009   7.131   2.432   4.561
18256WAT     H155010   7.218   2.410   4.519
18256WAT     H255011   7.147   2.466   4.654
18257WAT      O55012   4.448   6.846   7.698
18257WAT     H155013   4.352   6.876   7.694
18257WAT     H255014   4.452   6.756   7.739
18258WAT      O55015   5.175   9.346   7.733
18258WAT     H155016   5.195   9.363   7.830
18258WAT     H255017   5.079   9.322   7.722
18259WAT      O55018   1.122   6.612   5.798
18259WAT     H155019   1.103   6.669   5.878
18259WAT     H255020   1.046   6.548   5.783
18260WAT      O55021   6.637   9.192   5.281
18260WAT     H155022   6.633   9.118   5.215
18260WAT     H255023   6.726   9.193   5.326
18261WAT      O55024   9.445   3.203   2.287
18261WAT     H155025   9.432   3.136   2.360
18261WAT     H255026   9.529   3.254   2.304
18262WAT      O55027   7.629   7.287   3.460
18262WAT     H155028   7.578   7.371   3.479
18262WAT     H255029   7.727   7.308   3.460
18263WAT      O55030   3.656   4.652   4.152
18263WAT     H155031   3.734   4.713   4.136
18263WAT     H255032   3.641   4.641   4.250
18264WAT      O55033   7.285   4.547   3.375
18264WAT     H155034   7.225   4.607   3.322
18264WAT     H255035   7.359   4.514   3.317
18265WAT      O55036   5.027   9.621   6.425
18265WAT     H155037   4.968   9.596   6.501
18265WAT     H255038   4.983   9.693   6.371
18266WAT      O55039   3.102   6.537   6.265
18266WAT     H155040   3.194   6.558   6.234
18266WAT     H255041   3.042   6.616   6.251
18267WAT      O55042   5.798   4.040   0.202
18267WAT     H155043   5.885   4.003   0.234
18267WAT     H255044   5.723   3.993   0.249
18268WAT      O55045   1.704   0.516   3.682
18268WAT     H155046   1.729   0.606   3.716
18268WAT     H255047   1.774   0.484   3.618
18269WAT      O55048   4.333   0.473   1.434
18269WAT     H155049   4.415   0.419   1.451
18269WAT     H255050   4.301   0.514   1.520
18270WAT      O55051   2.487   5.020   5.296
18270WAT     H155052   2.570   5.059   5.256
18270WAT     H255053   2.411   5.032   5.232
18271WAT      O55054   2.550   6.924   3.473
18271WAT     H155055   2.523   6.953   3.565
18271WAT     H255056   2.647   6.900   3.472
18272WAT      O55057   7.709   3.909   2.307
18272WAT     H155058   7.787   3.950   2.259
18272WAT     H255059   7.644   3.980   2.333
18273WAT      O55060   6.668   4.044   6.417
18273WAT     H155061   6.630   3.981   6.485
18273WAT     H255062   6.632   4.019   6.326
18274WAT      O55063   6.765   0.266   2.812
18274WAT     H155064   6.859   0.292   2.790
18274WAT     H255065   6.703   0.338   2.782
18275WAT      O55066   6.879   5.515   8.035
18275WAT     H155067   6.908   5.539   8.128
18275WAT     H255068   6.952   5.464   7.989
18276WAT      O55069   3.769   4.304   3.774
18276WAT     H155070   3.680   4.295   3.730
18276WAT     H255071   3.757   4.337   3.868
18277WAT      O55072   1.650   2.798   6.095
18277WAT     H155073   1.566   2.786   6.148
18277WAT     H255074   1.658   2.893   6.065
18278WAT      O55075   3.164   5.436   3.287
18278WAT     H155076   3.194   5.481   3.203
18278WAT     H255077   3.091   5.490   3.329
18279WAT      O55078   3.658   1.350   0.398
18279WAT     H155079   3.628   1.442   0.371
18279WAT     H255080   3.697   1.303   0.319
18280WAT      O55081   8.774   8.101   8.840
18280WAT     H155082   8.799   8.150   8.756
18280WAT     H255083   8.792   8.003   8.828
18281WAT      O55084   1.992   4.687   6.641
18281WAT     H155085   2.017   4.783   6.650
18281WAT     H255086   1.988   4.645   6.732
18282WAT      O55087   3.574   6.253   8.078
18282WAT     H155088   3.609   6.193   8.150
18282WAT     H255089   3.639   6.254   8.002
18283WAT      O55090   5.990   1.516   9.518
18283WAT     H155091   6.043   1.596   9.545
18283WAT     H255092   6.000   1.500   9.420
18284WAT      O55093   6.044   8.737   0.491
18284WAT     H155094   6.137   8.703   0.479
18284WAT     H255095   5.980   8.674   0.447
18285WAT      O55096   4.641   5.263   1.152
18285WAT     H155097   4.657   5.311   1.239
18285WAT     H255098   4.597   5.326   1.087
18286WAT      O55099   3.366   7.091   0.399
18286WAT     H155100   3.457   7.131   0.407
18286WAT     H255101   3.297   7.163   0.397
18287WAT      O55102   0.699   2.639   4.818
18287WAT     H155103   0.609   2.640   4.774
18287WAT     H255104   0.747   2.555   4.793
18288WAT      O55105   7.337   3.501   5.513
18288WAT     H155106   7.397   3.484   5.591
18288WAT     H255107   7.318   3.415   5.466
18289WAT      O55108   7.561   9.493   3.542
18289WAT     H155109   7.655   9.528   3.537
18289WAT     H255110   7.520   9.523   3.628
18290WAT      O55111   8.639   2.405   0.062
18290WAT     H155112   8.668   2.418  -0.032
18290WAT     H255113   8.623   2.308   0.080
18291WAT      O55114   0.735   2.454   2.063
18291WAT     H155115   0.733   2.457   2.163
18291WAT     H255116   0.777   2.539   2.028
18292WAT      O55117   2.646   4.815   3.697
18292WAT     H155118   2.563   4.759   3.689
18292WAT     H255119   2.671   4.850   3.607
18293WAT      O55120   1.251   8.136   5.170
18293WAT     H155121   1.173   8.158   5.228
18293WAT     H255122   1.220   8.085   5.090
18294WAT      O55123   2.132   3.965   5.797
18294WAT     H155124   2.221   3.952   5.755
18294WAT     H255125   2.135   4.043   5.860
18295WAT      O55126   3.950   8.002   8.779
18295WAT     H155127   3.874   8.010   8.715
18295WAT     H255128   3.914   7.994   8.872
18296WAT      O55129   5.633   7.826   2.884
18296WAT     H155130   5.611   7.920   2.909
18296WAT     H255131   5.702   7.827   2.811
18297WAT      O55132   2.563   2.602   2.069
18297WAT     H155133   2.527   2.695   2.063
18297WAT     H255134   2.492   2.536   2.046
18298WAT      O55135   2.286   9.501   7.508
18298WAT     H155136   2.325   9.528   7.596
18298WAT     H255137   2.359   9.464   7.450
18299WAT      O55138   5.604   5.217   2.718
18299WAT     H155139   5.634   5.309   2.744
18299WAT     H255140   5.564   5.171   2.797
18300WAT      O55141   4.251   7.610   9.883
18300WAT     H155142   4.248   7.696   9.834
18300WAT     H255143   4.326   7.554   9.847
18301WAT      O55144   7.543   6.508   0.215
18301WAT     H155145   7.472   6.578   0.219
18301WAT     H255146   7.574   6.486   0.308
18302WAT      O55147   5.328   5.431   7.211
18302WAT     H155148   5.358   5.524   7.233
18302WAT     H255149   5.254   5.435   7.144
18303WAT      O55150   9.172   5.656   5.423
18303WAT     H155151   9.187   5.587   5.352
18303WAT     H255152   9.074   5.662   5.443
18304WAT      O55153   1.550   3.534   3.542
18304WAT     H155154   1.496   3.587   3.477
18304WAT     H255155   1.645   3.531   3.512
18305WAT      O55156   5.940   1.030   9.154
18305WAT     H155157   5.992   1.099   9.204
18305WAT     H255158   6.000   0.982   9.090
18306WAT      O55159   5.939   3.164   0.351
18306WAT     H155160   5.868   3.093   0.348
18306WAT     H255161   5.897   3.252   0.376
18307WAT      O55162   0.592   5.611   2.331
18307WAT     H155163   0.681   5.653   2.343
18307WAT     H255164   0.588   5.526   2.383
18308WAT      O55165   0.739   6.280   6.055
18308WAT     H155166   0.681   6.222   5.998
18308WAT     H255167   0.769   6.359   6.001
18309WAT      O55168   5.923   8.119   2.349
18309WAT     H155169   5.837   8.169   2.334
18309WAT     H255170   5.902   8.027   2.381
18310WAT      O55171   1.665   8.063   4.688
18310WAT     H155172   1.623   8.140   4.639
18310WAT     H255173   1.601   8.029   4.757
18311WAT      O55174   9.574   3.955   2.257
18311WAT     H155175   9.511   4.017   2.305
18311WAT     H255176   9.523   3.898   2.193
18312WAT      O55177   1.139   7.170   0.718
18312WAT     H155178   1.167   7.101   0.651
18312WAT     H255179   1.053   7.211   0.689
18313WAT      O55180   2.850   5.071   4.293
18313WAT     H155181   2.909   5.132   4.347
18313WAT     H255182   2.884   4.977   4.300
18314WAT      O55183   2.493   3.800   8.189
18314WAT     H155184   2.552   3.720   8.175
18314WAT     H255185   2.522   3.874   8.128
18315WAT      O55186   2.363   8.744   1.001
18315WAT     H155187   2.323   8.695   1.079
18315WAT     H255188   2.412   8.824   1.034
18316WAT      O55189   7.843   8.424   0.168
18316WAT     H155190   7.908   8.440   0.242
18316WAT     H255191   7.857   8.491   0.095
18317WAT      O55192   1.836   7.696   0.973
18317WAT     H155193   1.917   7.703   0.915
18317WAT     H255194   1.847   7.621   1.038
18318WAT      O55195   6.589   7.026   5.726
18318WAT     H155196   6.581   7.095   5.654
18318WAT     H255197   6.504   6.973   5.732
18319WAT      O55198   9.483   6.519   6.999
18319WAT     H155199   9.558   6.581   6.973
18319WAT     H255200   9.510   6.468   7.080
18320WAT      O55201   0.928   7.663   4.563
18320WAT     H155202   0.919   7.566   4.542
18320WAT     H255203   0.928   7.716   4.479
18321WAT      O55204   4.084   6.174   9.485
18321WAT     H155205   4.131   6.241   9.428
18321WAT     H255206   4.019   6.122   9.428
18322WAT      O55207   7.127   2.364   2.177
18322WAT     H155208   7.107   2.447   2.124
18322WAT     H255209   7.149   2.390   2.271
18323WAT      O55210   5.668   7.560   6.907
18323WAT     H155211   5.704   7.651   6.887
18323WAT     H255212   5.743   7.499   6.935
18324WAT      O55213   4.399   2.759   5.871
18324WAT     H155214   4.381   2.756   5.969
18324WAT     H255215   4.334   2.700   5.823
18325WAT      O55216   7.287   0.415   0.715
18325WAT     H155217   7.199   0.456   0.740
18325WAT     H255218   7.294   0.325   0.757
18326WAT      O55219   4.481   8.678   3.907
18326WAT     H155220   4.541   8.598   3.910
18326WAT     H255221   4.492   8.724   3.819
18327WAT      O55222   1.535   1.576   7.065
18327WAT     H155223   1.632   1.595   7.054
18327WAT     H255224   1.501   1.526   6.985
18328WAT      O55225   6.458   2.357   4.668
18328WAT     H155226   6.441   2.321   4.577
18328WAT     H255227   6.435   2.288   4.736
18329WAT      O55228   8.024   6.537   0.271
18329WAT     H155229   8.060   6.565   0.182
18329WAT     H255230   8.099   6.504   0.328
18330WAT      O55231   8.885   6.467   5.364
18330WAT     H155232   8.800   6.450   5.412
18330WAT     H255233   8.875   6.439   5.268
18331WAT      O55234   4.426   3.703   3.151
18331WAT     H155235   4.331   3.735   3.154
18331WAT     H255236   4.487   3.782   3.147
18332WAT      O55237   5.083   6.982   1.293
18332WAT     H155238   5.175   7.022   1.291
18332WAT     H255239   5.086   6.891   1.253
18333WAT      O55240   5.395   5.491   2.034
18333WAT     H155241   5.368   5.478   2.129
18333WAT     H255242   5.408   5.588   2.015
18334WAT      O55243   5.223   9.488   9.414
18334WAT     H155244   5.270   9.431   9.481
18334WAT     H255245   5.142   9.441   9.380
18335WAT      O55246   4.811   1.891   2.650
18335WAT     H155247   4.772   1.979   2.678
18335WAT     H255248   4.825   1.833   2.730
18336WAT      O55249   8.909   2.708   5.443
18336WAT     H155250   8.834   2.700   5.378
18336WAT     H255251   8.882   2.768   5.518
18337WAT      O55252   7.178   9.087   7.120
18337WAT     H155253   7.108   9.039   7.173
18337WAT     H255254   7.244   9.128   7.183
18338WAT      O55255   5.757   5.303   9.174
18338WAT     H155256   5.800   5.376   9.228
18338WAT     H255257   5.786   5.311   9.079
18339WAT      O55258   2.731   6.695   9.599
18339WAT     H155259   2.724   6.782   9.550
18339WAT     H255260   2.821   6.654   9.581
18340WAT      O55261   6.059   3.749   2.540
18340WAT     H155262   5.969   3.787   2.517
18340WAT     H255263   6.131   3.811   2.507
18341WAT      O55264   5.870   3.820   5.700
18341WAT     H155265   5.837   3.883   5.630
18341WAT     H255266   5.793   3.783   5.751
18342WAT      O55267   1.755   1.393   2.093
18342WAT     H155268   1.765   1.294   2.099
18342WAT     H255269   1.729   1.429   2.183
18343WAT      O55270   8.953   6.999   9.634
18343WAT     H155271   9.046   7.015   9.604
18343WAT     H255272   8.931   6.902   9.625
18344WAT      O55273   3.063   0.957   8.821
18344WAT     H155274   3.131   0.884   8.810
18344WAT     H255275   2.977   0.929   8.778
18345WAT      O55276   2.653   8.269   1.200
18345WAT     H155277   2.737   8.320   1.181
18345WAT     H255278   2.672   8.192   1.260
18346WAT      O55279   3.851   6.797   6.419
18346WAT     H155280   3.883   6.884   6.458
18346WAT     H255281   3.918   6.764   6.352
18347WAT      O55282   2.788   0.887   7.848
18347WAT     H155283   2.719   0.914   7.916
18347WAT     H255284   2.760   0.920   7.758
18348WAT      O55285   8.251   3.877   8.769
18348WAT     H155286   8.248   3.972   8.738
18348WAT     H255287   8.188   3.864   8.845
18349WAT      O55288   5.914   3.986   9.780
18349WAT     H155289   5.856   3.906   9.769
18349WAT     H255290   5.985   3.967   9.849
18350WAT      O55291   7.282   5.998   1.317
18350WAT     H155292   7.231   5.932   1.263
18350WAT     H255293   7.380   5.975   1.314
18351WAT      O55294   9.410   8.679   9.333
18351WAT     H155295   9.370   8.679   9.425
18351WAT     H255296   9.496   8.731   9.335
18352WAT      O55297   8.173   7.508   0.628
18352WAT     H155298   8.116   7.543   0.702
18352WAT     H255299   8.240   7.444   0.666
18353WAT      O55300   3.707   4.033   7.722
18353WAT     H155301   3.704   3.933   7.719
18353WAT     H255302   3.623   4.067   7.765
18354WAT      O55303   3.494   4.974   6.833
18354WAT     H155304   3.463   5.006   6.743
18354WAT     H255305   3.440   4.895   6.860
18355WAT      O55306   9.865   6.637   0.358
18355WAT     H155307   9.801   6.694   0.307
18355WAT     H255308   9.831   6.622   0.451
18356WAT      O55309   5.555   3.578   7.665
18356WAT     H155310   5.458   3.601   7.660
18356WAT     H255311   5.604   3.621   7.589
18357WAT      O55312   7.840   8.142   0.209
18357WAT     H155313   7.891   8.121   0.293
18357WAT     H255314   7.839   8.240   0.195
18358WAT      O55315   5.264   6.114   1.878
18358WAT     H155316   5.275   6.166   1.963
18358WAT     H255317   5.354   6.081   1.848
18359WAT      O55318   4.638   1.244   0.900
18359WAT     H155319   4.686   1.182   0.962
18359WAT     H255320   4.542   1.250   0.927
18360WAT      O55321   6.886   1.385   8.979
18360WAT     H155322   6.875   1.286   8.975
18360WAT     H255323   6.880   1.423   8.886
18361WAT      O55324   0.810   6.971   7.129
18361WAT     H155325   0.773   7.042   7.070
18361WAT     H255326   0.797   6.881   7.085
18362WAT      O55327   3.122   4.407   2.730
18362WAT     H155328   3.136   4.453   2.817
18362WAT     H255329   3.200   4.425   2.670
18363WAT      O55330   1.225   6.763   8.716
18363WAT     H155331   1.199   6.691   8.653
18363WAT     H255332   1.154   6.775   8.785
18364WAT      O55333   5.618   1.437   0.253
18364WAT     H155334   5.533   1.417   0.205
18364WAT     H255335   5.662   1.516   0.210
18365WAT      O55336   8.380   6.208   7.788
18365WAT     H155337   8.459   6.228   7.730
18365WAT     H255338   8.372   6.109   7.800
18366WAT      O55339   0.700   3.659   8.334
18366WAT     H155340   0.722   3.588   8.401
18366WAT     H255341   0.755   3.646   8.252
18367WAT      O55342   0.958   1.131   0.683
18367WAT     H155343   0.972   1.096   0.775
18367WAT     H255344   0.896   1.209   0.685
18368WAT      O55345   9.393   0.644   6.183
18368WAT     H155346   9.349   0.562   6.221
18368WAT     H255347   9.421   0.627   6.089
18369WAT      O55348   0.211   1.775   9.523
18369WAT     H155349   0.224   1.789   9.425
18369WAT     H255350   0.120   1.808   9.549
18370WAT      O55351   8.250   9.467   3.668
18370WAT     H155352   8.347   9.460   3.646
18370WAT     H255353   8.238   9.469   3.768
18371WAT      O55354   5.885   2.445   4.801
18371WAT     H155355   5.880   2.474   4.706
18371WAT     H255356   5.932   2.516   4.854
18372WAT      O55357   7.333   9.414   8.496
18372WAT     H155358   7.330   9.403   8.397
18372WAT     H255359   7.241   9.398   8.534
18373WAT      O55360   6.891   5.935   4.925
18373WAT     H155361   6.873   6.030   4.897
18373WAT     H255362   6.942   5.934   5.011
18374WAT      O55363   1.619   4.579   0.119
18374WAT     H155364   1.605   4.556   0.022
18374WAT     H255365   1.710   4.550   0.147
18375WAT      O55366   8.361   9.188   6.029
18375WAT     H155367   8.365   9.198   5.930
18375WAT     H255368   8.342   9.277   6.071
18376WAT      O55369   3.306   3.870   5.080
18376WAT     H155370   3.386   3.813   5.095
18376WAT     H255371   3.298   3.892   4.983
18377WAT      O55372   7.324   9.240   3.196
18377WAT     H155373   7.376   9.156   3.185
18377WAT     H255374   7.381   9.308   3.244
18378WAT      O55375   3.744   3.058   3.440
18378WAT     H155376   3.659   3.106   3.419
18378WAT     H255377   3.814   3.125   3.467
18379WAT      O55378   4.917   3.963   4.976
18379WAT     H155379   4.839   4.002   5.025
18379WAT     H255380   4.967   3.900   5.036
18380WAT      O55381   8.956   6.073   5.095
18380WAT     H155382   8.964   5.973   5.088
18380WAT     H255383   9.040   6.116   5.061
18381WAT      O55384   0.623   8.821   0.304
18381WAT     H155385   0.686   8.889   0.266
18381WAT     H255386   0.557   8.867   0.364
18382WAT      O55387   6.735   5.937   1.687
18382WAT     H155388   6.795   6.017   1.677
18382WAT     H255389   6.775   5.860   1.638
18383WAT      O55390   3.870   4.475   9.074
18383WAT     H155391   3.854   4.562   9.121
18383WAT     H255392   3.954   4.481   9.020
18384WAT      O55393   1.013   3.792   0.496
18384WAT     H155394   1.094   3.734   0.487
18384WAT     H255395   0.956   3.759   0.572
18385WAT      O55396   6.636   8.505   0.974
18385WAT     H155397   6.582   8.441   1.029
18385WAT     H255398   6.577   8.579   0.940
18386WAT      O55399   7.917   7.161   9.669
18386WAT     H155400   7.930   7.064   9.688
18386WAT     H255401   7.964   7.185   9.584
18387WAT      O55402   7.577   9.592   2.207
18387WAT     H155403   7.548   9.580   2.112
18387WAT     H255404   7.627   9.678   2.217
18388WAT      O55405   7.085   6.696   6.492
18388WAT     H155406   7.005   6.638   6.504
18388WAT     H255407   7.079   6.774   6.555
18389WAT      O55408   5.191   8.323   2.864
18389WAT     H155409   5.243   8.395   2.909
18389WAT     H255410   5.094   8.349   2.859
18390WAT      O55411   1.067   5.096   5.339
18390WAT     H155412   0.979   5.123   5.376
18390WAT     H255413   1.109   5.174   5.293
18391WAT      O55414   2.408   4.782   2.249
18391WAT     H155415   2.489   4.765   2.193
18391WAT     H255416   2.414   4.873   2.289
18392WAT      O55417   8.668   3.786   6.770
18392WAT     H155418   8.591   3.795   6.708
18392WAT     H255419   8.753   3.800   6.720
18393WAT      O55420   2.174   7.988   7.790
18393WAT     H155421   2.215   7.986   7.882
18393WAT     H255422   2.205   7.909   7.738
18394WAT      O55423   7.191   6.694   4.988
18394WAT     H155424   7.126   6.619   4.978
18394WAT     H255425   7.169   6.766   4.921
18395WAT      O55426   6.421   2.200   4.396
18395WAT     H155427   6.340   2.142   4.386
18395WAT     H255428   6.442   2.244   4.309
18396WAT      O55429   7.779   6.777   1.742
18396WAT     H155430   7.789   6.859   1.685
18396WAT     H255431   7.775   6.696   1.683
18397WAT      O55432   9.863   8.679   1.286
18397WAT     H155433   9.954   8.697   1.321
18397WAT     H255434   9.851   8.580   1.275
18398WAT      O55435   2.176   4.715   8.320
18398WAT     H155436   2.197   4.672   8.232
18398WAT     H255437   2.083   4.693   8.346
18399WAT      O55438   1.874   3.925   6.039
18399WAT     H155439   1.965   3.909   6.078
18399WAT     H255440   1.860   4.024   6.029
18400WAT      O55441   9.690   8.901   3.541
18400WAT     H155442   9.630   8.978   3.562
18400WAT     H255443   9.699   8.892   3.442
18401WAT      O55444   7.255   3.976   4.836
18401WAT     H155445   7.238   3.906   4.905
18401WAT     H255446   7.301   3.935   4.757
18402WAT      O55447   2.779   4.803   6.879
18402WAT     H155448   2.819   4.718   6.843
18402WAT     H255449   2.848   4.875   6.878
18403WAT      O55450   4.924   1.073   7.057
18403WAT     H155451   4.856   1.002   7.071
18403WAT     H255452   4.895   1.133   6.981
18404WAT      O55453   9.715   2.806   9.340
18404WAT     H155454   9.649   2.862   9.290
18404WAT     H255455   9.778   2.764   9.275
18405WAT      O55456   8.087   4.224   4.243
18405WAT     H155457   8.013   4.254   4.183
18405WAT     H255458   8.160   4.183   4.188
18406WAT      O55459   2.284   8.980   4.399
18406WAT     H155460   2.282   9.029   4.311
18406WAT     H255461   2.374   8.990   4.440
18407WAT      O55462   9.297   5.126   9.845
18407WAT     H155463   9.226   5.056   9.843
18407WAT     H255464   9.310   5.159   9.938
18408WAT      O55465   4.380   4.781   7.212
18408WAT     H155466   4.356   4.743   7.302
18408WAT     H255467   4.447   4.722   7.168
18409WAT      O55468   7.226   3.341   2.626
18409WAT     H155469   7.225   3.349   2.726
18409WAT     H255470   7.184   3.255   2.599
18410WAT      O55471   3.441   1.567   1.422
18410WAT     H155472   3.509   1.612   1.364
18410WAT     H255473   3.487   1.503   1.484
18411WAT      O55474   0.787   2.862   4.330
18411WAT     H155475   0.831   2.831   4.245
18411WAT     H255476   0.753   2.782   4.380
18412WAT      O55477   7.414   8.182   2.428
18412WAT     H155478   7.334   8.123   2.414
18412WAT     H255479   7.400   8.269   2.380
18413WAT      O55480   4.086   0.293   2.281
18413WAT     H155481   4.121   0.217   2.336
18413WAT     H255482   4.136   0.376   2.303
18414WAT      O55483   0.808   0.131   9.152
18414WAT     H155484   0.762   0.214   9.185
18414WAT     H255485   0.835   0.075   9.230
18415WAT      O55486   0.916   2.580   8.640
18415WAT     H155487   1.001   2.626   8.616
18415WAT     H255488   0.859   2.643   8.693
18416WAT      O55489   8.781   0.196   3.316
18416WAT     H155490   8.784   0.222   3.412
18416WAT     H255491   8.685   0.190   3.286
18417WAT      O55492   9.349   1.010   2.722
18417WAT     H155493   9.333   0.947   2.646
18417WAT     H255494   9.271   1.006   2.785
18418WAT      O55495   9.197   4.185   6.710
18418WAT     H155496   9.280   4.186   6.654
18418WAT     H255497   9.117   4.197   6.651
18419WAT      O55498   7.350   1.758   5.736
18419WAT     H155499   7.337   1.847   5.692
18419WAT     H255500   7.314   1.761   5.829
18420WAT      O55501   3.342   2.524   8.924
18420WAT     H155502   3.327   2.536   8.826
18420WAT     H255503   3.431   2.564   8.949
18421WAT      O55504   1.228   1.894   3.838
18421WAT     H155505   1.231   1.990   3.808
18421WAT     H255506   1.175   1.887   3.922
18422WAT      O55507   3.123   9.078   7.937
18422WAT     H155508   3.027   9.099   7.954
18422WAT     H255509   3.144   8.988   7.975
18423WAT      O55510   1.641   1.730   1.923
18423WAT     H155511   1.694   1.677   1.857
18423WAT     H255512   1.559   1.766   1.878
18424WAT      O55513   6.056   8.846   3.803
18424WAT     H155514   5.964   8.831   3.767
18424WAT     H255515   6.120   8.858   3.727
18425WAT      O55516   7.150   4.465   8.523
18425WAT     H155517   7.141   4.459   8.424
18425WAT     H255518   7.073   4.419   8.566
18426WAT      O55519   6.900   1.032   3.541
18426WAT     H155520   6.930   0.949   3.493
18426WAT     H255521   6.854   1.006   3.626
18427WAT      O55522   5.341   9.677   7.108
18427WAT     H155523   5.311   9.712   7.196
18427WAT     H255524   5.416   9.612   7.121
18428WAT      O55525   7.556   7.537   3.531
18428WAT     H155526   7.584   7.559   3.624
18428WAT     H255527   7.462   7.570   3.516
18429WAT      O55528   9.006   1.498   4.168
18429WAT     H155529   9.103   1.473   4.179
18429WAT     H255530   8.996   1.554   4.086
18430WAT      O55531   5.409   2.577   3.993
18430WAT     H155532   5.398   2.641   3.917
18430WAT     H255533   5.324   2.525   4.005
18431WAT      O55534   4.098   1.466   4.128
18431WAT     H155535   4.095   1.422   4.039
18431WAT     H255536   4.192   1.464   4.163
18432WAT      O55537   2.136   0.690   9.142
18432WAT     H155538   2.154   0.747   9.223
18432WAT     H255539   2.221   0.649   9.110
18433WAT      O55540   7.188   2.411   3.791
18433WAT     H155541   7.155   2.317   3.804
18433WAT     H255542   7.138   2.454   3.716
18434WAT      O55543   9.242   1.526   4.792
18434WAT     H155544   9.210   1.588   4.864
18434WAT     H255545   9.174   1.454   4.778
18435WAT      O55546   0.221   8.234   4.176
18435WAT     H155547   0.306   8.212   4.129
18435WAT     H255548   0.227   8.205   4.271
18436WAT      O55549   2.354   7.403   4.811
18436WAT     H155550   2.397   7.483   4.854
18436WAT     H255551   2.413   7.324   4.824
18437WAT      O55552   6.913   0.583   8.973
18437WAT     H155553   6.869   0.524   9.041
18437WAT     H255554   7.009   0.558   8.964
18438WAT      O55555   5.554   2.355   8.930
18438WAT     H155556   5.457   2.331   8.939
18438WAT     H255557   5.566   2.452   8.948
18439WAT      O55558   6.546   6.953   9.586
18439WAT     H155559   6.481   6.883   9.615
18439WAT     H255560   6.496   7.032   9.549
18440WAT      O55561   9.327   2.484   0.362
18440WAT     H155562   9.311   2.552   0.434
18440WAT     H255563   9.267   2.503   0.284
18441WAT      O55564   4.511   3.621   1.153
18441WAT     H155565   4.425   3.662   1.123
18441WAT     H255566   4.588   3.669   1.111
18442WAT      O55567   6.993   2.978   4.087
18442WAT     H155568   6.941   3.056   4.123
18442WAT     H255569   7.025   2.999   3.994
18443WAT      O55570   4.103   3.060   1.561
18443WAT     H155571   4.134   3.090   1.471
18443WAT     H255572   4.085   3.140   1.619
18444WAT      O55573   3.954   9.347   8.095
18444WAT     H155574   3.969   9.259   8.140
18444WAT     H255575   4.042   9.384   8.065
18445WAT      O55576   4.171   5.118   0.095
18445WAT     H155577   4.226   5.152   0.019
18445WAT     H255578   4.091   5.176   0.107
18446WAT      O55579   7.322   7.861   8.084
18446WAT     H155580   7.370   7.826   8.164
18446WAT     H255581   7.268   7.941   8.110
18447WAT      O55582   7.217   0.659   2.774
18447WAT     H155583   7.139   0.633   2.830
18447WAT     H255584   7.248   0.751   2.800
18448WAT      O55585   1.871   1.052   8.553
18448WAT     H155586   1.968   1.034   8.570
18448WAT     H255587   1.852   1.149   8.571
18449WAT      O55588   9.062   6.791   5.875
18449WAT     H155589   9.114   6.866   5.835
18449WAT     H255590   9.089   6.779   5.970
18450WAT      O55591   2.072   0.517   0.131
18450WAT     H155592   2.117   0.448   0.187
18450WAT     H255593   2.058   0.481   0.038
18451WAT      O55594   2.374   7.149   7.620
18451WAT     H155595   2.427   7.232   7.601
18451WAT     H255596   2.306   7.136   7.547
18452WAT      O55597   9.681   2.800   4.553
18452WAT     H155598   9.584   2.780   4.541
18452WAT     H255599   9.692   2.889   4.598
18453WAT      O55600   9.453   8.407   2.025
18453WAT     H155601   9.523   8.422   1.955
18453WAT     H255602   9.368   8.377   1.982
18454WAT      O55603   9.885   9.298   8.178
18454WAT     H155604   9.878   9.198   8.188
18454WAT     H255605   9.818   9.342   8.238
18455WAT      O55606   5.720   4.266   2.598
18455WAT     H155607   5.786   4.191   2.599
18455WAT     H255608   5.635   4.236   2.554
18456WAT      O55609   9.263   7.084   4.004
18456WAT     H155610   9.318   7.167   4.018
18456WAT     H255611   9.183   7.087   4.063
18457WAT      O55612   8.332   0.692   4.890
18457WAT     H155613   8.297   0.662   4.801
18457WAT     H255614   8.379   0.616   4.935
18458WAT      O55615   5.543   4.618   5.699
18458WAT     H155616   5.635   4.644   5.725
18458WAT     H255617   5.539   4.600   5.601
18459WAT      O55618   4.151   0.778   3.518
18459WAT     H155619   4.246   0.751   3.499
18459WAT     H255620   4.134   0.773   3.617
18460WAT      O55621   9.027   4.165   5.352
18460WAT     H155622   9.028   4.066   5.364
18460WAT     H255623   9.121   4.199   5.352
18461WAT      O55624   4.812   9.240   5.464
18461WAT     H155625   4.838   9.212   5.557
18461WAT     H255626   4.719   9.211   5.446
18462WAT      O55627   9.466   2.387   1.918
18462WAT     H155628   9.474   2.288   1.919
18462WAT     H255629   9.400   2.416   1.987
18463WAT      O55630   2.134   1.556   3.881
18463WAT     H155631   2.066   1.625   3.907
18463WAT     H255632   2.216   1.567   3.937
18464WAT      O55633   2.313   6.723   5.897
18464WAT     H155634   2.279   6.629   5.894
18464WAT     H255635   2.403   6.728   5.853
18465WAT      O55636   0.197   7.942   0.608
18465WAT     H155637   0.172   8.011   0.540
18465WAT     H255638   0.231   7.987   0.691
18466WAT      O55639   1.618   8.811   1.939
18466WAT     H155640   1.598   8.793   2.036
18466WAT     H255641   1.696   8.755   1.910
18467WAT      O55642   8.117   1.405   2.190
18467WAT     H155643   8.170   1.327   2.224
18467WAT     H255644   8.072   1.379   2.105
18468WAT      O55645   0.100   2.503   9.505
18468WAT     H155646   0.023   2.558   9.538
18468WAT     H255647   0.132   2.442   9.578
18469WAT      O55648   4.634   7.618   9.014
18469WAT     H155649   4.652   7.648   9.108
18469WAT     H255650   4.647   7.519   9.008
18470WAT      O55651   6.477   0.788   9.796
18470WAT     H155652   6.438   0.749   9.880
18470WAT     H255653   6.412   0.777   9.721
18471WAT      O55654   5.526   0.512   6.626
18471WAT     H155655   5.449   0.525   6.564
18471WAT     H255656   5.573   0.427   6.603
18472WAT      O55657   1.097   0.579   1.184
18472WAT     H155658   1.012   0.574   1.237
18472WAT     H255659   1.162   0.512   1.219
18473WAT      O55660   7.399   7.061   1.568
18473WAT     H155661   7.324   7.106   1.615
18473WAT     H255662   7.368   7.030   1.478
18474WAT      O55663   8.298   4.081   4.099
18474WAT     H155664   8.315   3.992   4.056
18474WAT     H255665   8.367   4.146   4.070
18475WAT      O55666   7.303   1.344   3.809
18475WAT     H155667   7.282   1.255   3.769
18475WAT     H255668   7.224   1.405   3.799
18476WAT      O55669   9.819   7.783   3.449
18476WAT     H155670   9.739   7.741   3.492
18476WAT     H255671   9.890   7.797   3.518
18477WAT      O55672   1.503   5.026   4.018
18477WAT     H155673   1.410   5.011   3.984
18477WAT     H255674   1.543   4.939   4.045
18478WAT      O55675   3.979   9.466   1.061
18478WAT     H155676   3.917   9.460   1.140
18478WAT     H255677   3.976   9.558   1.023
18479WAT      O55678   9.664   7.383   3.422
18479WAT     H155679   9.690   7.406   3.329
18479WAT     H255680   9.699   7.452   3.485
18480WAT      O55681   1.099   3.791   2.571
18480WAT     H155682   1.148   3.878   2.563
18480WAT     H255683   1.014   3.806   2.622
18481WAT      O55684   8.453   1.388   4.794
18481WAT     H155685   8.356   1.382   4.771
18481WAT     H255686   8.506   1.410   4.712
18482WAT      O55687   5.217   9.800   3.875
18482WAT     H155688   5.118   9.785   3.880
18482WAT     H255689   5.237   9.860   3.797
18483WAT      O55690   3.762   9.077   0.994
18483WAT     H155691   3.789   9.149   1.058
18483WAT     H255692   3.768   8.988   1.039
18484WAT      O55693   7.309   1.497   7.396
18484WAT     H155694   7.371   1.421   7.416
18484WAT     H255695   7.351   1.583   7.424
18485WAT      O55696   2.000   1.678   0.614
18485WAT     H155697   1.998   1.628   0.528
18485WAT     H255698   1.907   1.709   0.636
18486WAT      O55699   8.868   9.045   4.189
18486WAT     H155700   8.856   8.999   4.101
18486WAT     H255701   8.966   9.050   4.211
18487WAT      O55702   0.860   1.446   6.050
18487WAT     H155703   0.903   1.430   6.139
18487WAT     H255704   0.931   1.463   5.982
18488WAT      O55705   7.932   1.028   2.022
18488WAT     H155706   7.946   1.124   1.997
18488WAT     H255707   7.923   0.973   1.939
18489WAT      O55708   2.136   3.172   1.768
18489WAT     H155709   2.146   3.090   1.824
18489WAT     H255710   2.147   3.253   1.826
18490WAT      O55711   3.411   8.149   3.633
18490WAT     H155712   3.461   8.232   3.658
18490WAT     H255713   3.464   8.069   3.660
18491WAT      O55714   1.233   3.530   4.944
18491WAT     H155715   1.217   3.583   4.860
18491WAT     H255716   1.154   3.539   5.004
18492WAT      O55717   3.984   9.149   4.315
18492WAT     H155718   3.893   9.191   4.318
18492WAT     H255719   3.985   9.075   4.247
18493WAT      O55720   1.990   0.620   0.902
18493WAT     H155721   2.054   0.669   0.844
18493WAT     H255722   1.957   0.538   0.854
18494WAT      O55723   5.798   0.022   2.490
18494WAT     H155724   5.879   0.015   2.547
18494WAT     H255725   5.774  -0.068   2.454
18495WAT      O55726   1.799   9.740   4.398
18495WAT     H155727   1.810   9.640   4.399
18495WAT     H255728   1.852   9.780   4.472
18496WAT      O55729   8.766   3.309   0.767
18496WAT     H155730   8.670   3.305   0.738
18496WAT     H255731   8.814   3.230   0.731
18497WAT      O55732   4.215   9.817   9.619
18497WAT     H155733   4.313   9.828   9.607
18497WAT     H255734   4.191   9.720   9.611
18498WAT      O55735   3.585   6.844   5.581
18498WAT     H155736   3.563   6.858   5.485
18498WAT     H255737   3.542   6.760   5.613
18499WAT      O55738   7.116   3.751   1.223
18499WAT     H155739   7.071   3.666   1.198
18499WAT     H255740   7.203   3.731   1.268
18500WAT      O55741   3.462   6.906   8.634
18500WAT     H155742   3.526   6.983   8.630
18500WAT     H255743   3.491   6.834   8.571
18501WAT      O55744   9.792   5.981   1.965
18501WAT     H155745   9.785   5.932   1.879
18501WAT     H255746   9.719   6.049   1.972
18502WAT      O55747   1.457   1.900   3.142
18502WAT     H155748   1.433   1.803   3.146
18502WAT     H255749   1.421   1.940   3.058
18503WAT      O55750   7.198   6.568   8.918
18503WAT     H155751   7.212   6.489   8.977
18503WAT     H255752   7.135   6.632   8.963
18504WAT      O55753   0.614   7.707   0.468
18504WAT     H155754   0.551   7.750   0.531
18504WAT     H255755   0.662   7.632   0.514
18505WAT      O55756   0.522   4.388   8.884
18505WAT     H155757   0.506   4.434   8.797
18505WAT     H255758   0.610   4.416   8.922
18506WAT      O55759   6.572   4.157   6.801
18506WAT     H155760   6.519   4.092   6.747
18506WAT     H255761   6.563   4.248   6.761
18507WAT      O55762   6.648   5.435   4.171
18507WAT     H155763   6.622   5.353   4.221
18507WAT     H255764   6.572   5.463   4.111
18508WAT      O55765   7.799   5.535   5.700
18508WAT     H155766   7.777   5.438   5.692
18508WAT     H255767   7.765   5.585   5.620
18509WAT      O55768   5.443   6.589   8.125
18509WAT     H155769   5.365   6.623   8.073
18509WAT     H255770   5.527   6.608   8.075
18510WAT      O55771   6.644   3.685   9.114
18510WAT     H155772   6.703   3.747   9.166
18510WAT     H255773   6.568   3.654   9.171
18511WAT      O55774   1.947   6.772   4.035
18511WAT     H155775   1.858   6.812   4.058
18511WAT     H255776   1.957   6.767   3.936
18512WAT      O55777   0.647   6.993   0.439
18512WAT     H155778   0.744   6.994   0.462
18512WAT     H255779   0.598   6.933   0.501
18513WAT      O55780   4.113   7.391   3.931
18513WAT     H155781   4.116   7.465   3.998
18513WAT     H255782   4.163   7.419   3.849
18514WAT      O55783   8.047   5.923   8.303
18514WAT     H155784   8.108   5.960   8.233
18514WAT     H255785   8.064   5.970   8.390
18515WAT      O55786   5.891   4.720   7.498
18515WAT     H155787   5.901   4.819   7.489
18515WAT     H255788   5.979   4.676   7.482
18516WAT      O55789   5.245   8.109   7.173
18516WAT     H155790   5.308   8.180   7.140
18516WAT     H255791   5.152   8.132   7.144
18517WAT      O55792   2.335   7.427   9.430
18517WAT     H155793   2.322   7.379   9.343
18517WAT     H255794   2.429   7.460   9.436
18518WAT      O55795   8.755   5.144   9.250
18518WAT     H155796   8.793   5.177   9.164
18518WAT     H255797   8.713   5.054   9.237
18519WAT      O55798   8.779   2.877   5.639
18519WAT     H155799   8.689   2.893   5.597
18519WAT     H255800   8.814   2.964   5.675
18520WAT      O55801   8.965   5.540   1.815
18520WAT     H155802   8.909   5.622   1.806
18520WAT     H255803   9.061   5.563   1.798
18521WAT      O55804   3.281   2.173   7.434
18521WAT     H155805   3.381   2.165   7.439
18521WAT     H255806   3.254   2.185   7.339
18522WAT      O55807   9.550   9.329   7.652
18522WAT     H155808   9.470   9.272   7.671
18522WAT     H255809   9.610   9.329   7.732
18523WAT      O55810   8.234   5.077   6.923
18523WAT     H155811   8.269   5.137   6.852
18523WAT     H255812   8.151   5.032   6.890
18524WAT      O55813   7.077   8.577   5.070
18524WAT     H155814   7.098   8.624   4.984
18524WAT     H255815   6.999   8.515   5.055
18525WAT      O55816   2.413   5.091   5.921
18525WAT     H155817   2.393   5.112   5.825
18525WAT     H255818   2.502   5.130   5.946
18526WAT      O55819   9.177   7.183   8.899
18526WAT     H155820   9.157   7.170   8.996
18526WAT     H255821   9.199   7.095   8.857
18527WAT      O55822   4.162   6.372   9.310
18527WAT     H155823   4.242   6.384   9.252
18527WAT     H255824   4.103   6.453   9.302
18528WAT      O55825   1.436   7.660   5.539
18528WAT     H155826   1.528   7.655   5.580
18528WAT     H255827   1.420   7.580   5.482
18529WAT      O55828   2.739   6.960   1.094
18529WAT     H155829   2.761   7.033   1.160
18529WAT     H255830   2.774   6.873   1.128
18530WAT      O55831   0.288   8.295   4.908
18530WAT     H155832   0.342   8.337   4.980
18530WAT     H255833   0.242   8.366   4.855
18531WAT      O55834   7.642   2.776   3.073
18531WAT     H155835   7.550   2.802   3.044
18531WAT     H255836   7.683   2.716   3.004
18532WAT      O55837   6.623   3.519   6.373
18532WAT     H155838   6.588   3.469   6.452
18532WAT     H255839   6.675   3.456   6.315
18533WAT      O55840   5.877   8.685   5.351
18533WAT     H155841   5.879   8.731   5.440
18533WAT     H255842   5.920   8.595   5.360
18534WAT      O55843   6.717   8.561   3.599
18534WAT     H155844   6.747   8.629   3.531
18534WAT     H255845   6.759   8.581   3.687
18535WAT      O55846   4.657   5.861   4.620
18535WAT     H155847   4.686   5.789   4.558
18535WAT     H255848   4.621   5.821   4.704
18536WAT      O55849   1.837   6.709   3.537
18536WAT     H155850   1.907   6.769   3.576
18536WAT     H255851   1.778   6.676   3.610
18537WAT      O55852   8.786   4.490   4.948
18537WAT     H155853   8.822   4.444   5.029
18537WAT     H255854   8.697   4.531   4.969
18538WAT      O55855   5.824   9.084   1.005
18538WAT     H155856   5.804   9.022   0.929
18538WAT     H255857   5.842   9.176   0.970
18539WAT      O55858   6.068   6.059   0.353
18539WAT     H155859   6.021   6.134   0.400
18539WAT     H255860   6.005   6.014   0.290
18540WAT      O55861   9.634   4.932   5.748
18540WAT     H155862   9.663   5.028   5.749
18540WAT     H255863   9.707   4.875   5.785
18541WAT      O55864   5.821   0.223   5.744
18541WAT     H155865   5.769   0.271   5.674
18541WAT     H255866   5.760   0.194   5.818
18542WAT      O55867   4.411   3.954   5.132
18542WAT     H155868   4.407   3.955   5.232
18542WAT     H255869   4.503   3.981   5.102
18543WAT      O55870   7.351   0.686   9.410
18543WAT     H155871   7.365   0.779   9.378
18543WAT     H255872   7.259   0.676   9.447
18544WAT      O55873   7.206   1.006   3.409
18544WAT     H155874   7.130   0.957   3.366
18544WAT     H255875   7.180   1.031   3.503
18545WAT      O55876   6.284   2.797   9.057
18545WAT     H155877   6.374   2.829   9.085
18545WAT     H255878   6.259   2.839   8.969
18546WAT      O55879   0.628   8.948   7.548
18546WAT     H155880   0.541   8.997   7.554
18546WAT     H255881   0.703   9.013   7.543
18547WAT      O55882   9.230   7.677   9.526
18547WAT     H155883   9.318   7.691   9.479
18547WAT     H255884   9.157   7.668   9.459
18548WAT      O55885   8.831   2.510   4.457
18548WAT     H155886   8.923   2.471   4.468
18548WAT     H255887   8.838   2.607   4.435
18549WAT      O55888   1.952   6.094   0.080
18549WAT     H155889   2.024   6.160   0.099
18549WAT     H255890   1.920   6.106  -0.014
18550WAT      O55891   4.232   4.582   9.024
18550WAT     H155892   4.164   4.572   8.952
18550WAT     H255893   4.247   4.494   9.070
18551WAT      O55894   6.766   3.123   0.504
18551WAT     H155895   6.714   3.209   0.502
18551WAT     H255896   6.863   3.143   0.521
18552WAT      O55897   3.642   9.573   9.852
18552WAT     H155898   3.557   9.600   9.807
18552WAT     H255899   3.702   9.527   9.786
18553WAT      O55900   2.786   6.120   4.049
18553WAT     H155901   2.860   6.093   3.988
18553WAT     H255902   2.788   6.220   4.062
18554WAT      O55903   0.607   1.185   7.519
18554WAT     H155904   0.536   1.145   7.462
18554WAT     H255905   0.684   1.214   7.462
18555WAT      O55906   7.497   1.384   2.586
18555WAT     H155907   7.443   1.404   2.667
18555WAT     H255908   7.439   1.388   2.505
18556WAT      O55909   5.605   2.517   5.320
18556WAT     H155910   5.557   2.459   5.255
18556WAT     H255911   5.596   2.478   5.412
18557WAT      O55912   4.557   2.502   1.674
18557WAT     H155913   4.537   2.442   1.752
18557WAT     H255914   4.557   2.448   1.590
18558WAT      O55915   9.538   1.882   3.804
18558WAT     H155916   9.492   1.794   3.798
18558WAT     H255917   9.617   1.875   3.865
18559WAT      O55918   9.420   7.972   3.710
18559WAT     H155919   9.427   7.967   3.610
18559WAT     H255920   9.346   8.035   3.735
18560WAT      O55921   0.621   9.676   4.360
18560WAT     H155922   0.614   9.644   4.265
18560WAT     H255923   0.669   9.764   4.361
18561WAT      O55924   2.593   3.210   6.538
18561WAT     H155925   2.508   3.192   6.489
18561WAT     H255926   2.670   3.169   6.488
18562WAT      O55927   6.193   4.129   7.026
18562WAT     H155928   6.165   4.075   6.947
18562WAT     H255929   6.220   4.068   7.101
18563WAT      O55930   3.668   8.733   4.162
18563WAT     H155931   3.630   8.641   4.169
18563WAT     H255932   3.733   8.748   4.237
18564WAT      O55933   0.925   4.715   8.293
18564WAT     H155934   0.986   4.744   8.220
18564WAT     H255935   0.969   4.643   8.347
18565WAT      O55936   8.085   3.174   1.193
18565WAT     H155937   7.998   3.143   1.153
18565WAT     H255938   8.132   3.096   1.234
18566WAT      O55939   5.958   6.862   8.816
18566WAT     H155940   5.948   6.956   8.850
18566WAT     H255941   5.974   6.863   8.718
18567WAT      O55942   3.671   0.854   7.786
18567WAT     H155943   3.618   0.930   7.823
18567WAT     H255944   3.609   0.780   7.760
18568WAT      O55945   5.695   7.932   9.227
18568WAT     H155946   5.780   7.923   9.279
18568WAT     H255947   5.711   7.904   9.132
18569WAT      O55948   2.268   1.198   5.755
18569WAT     H155949   2.259   1.271   5.823
18569WAT     H255950   2.349   1.214   5.699
18570WAT      O55951   3.014   4.449   7.538
18570WAT     H155952   3.081   4.522   7.526
18570WAT     H255953   2.922   4.485   7.520
18571WAT      O55954   5.658   6.125   2.123
18571WAT     H155955   5.695   6.218   2.121
18571WAT     H255956   5.733   6.060   2.130
18572WAT      O55957   3.275   6.213   5.542
18572WAT     H155958   3.325   6.127   5.554
18572WAT     H255959   3.188   6.195   5.496
18573WAT      O55960   2.939   9.610   1.798
18573WAT     H155961   2.916   9.534   1.737
18573WAT     H255962   2.974   9.687   1.744
18574WAT      O55963   6.699   3.300   7.953
18574WAT     H155964   6.647   3.322   7.871
18574WAT     H255965   6.731   3.384   7.996
18575WAT      O55966   1.669   2.244   8.703
18575WAT     H155967   1.592   2.238   8.767
18575WAT     H255968   1.634   2.264   8.612
18576WAT      O55969   8.535   3.948   8.095
18576WAT     H155970   8.471   4.020   8.071
18576WAT     H255971   8.589   3.976   8.174
18577WAT      O55972   9.196   8.405   0.780
18577WAT     H155973   9.104   8.407   0.819
18577WAT     H255974   9.233   8.498   0.776
18578WAT      O55975   0.862   9.034   6.219
18578WAT     H155976   0.797   9.034   6.296
18578WAT     H255977   0.814   9.059   6.135
18579WAT      O55978   1.974   2.301   1.456
18579WAT     H155979   1.890   2.355   1.451
18579WAT     H255980   2.053   2.360   1.435
18580WAT      O55981   7.475   0.083   5.030
18580WAT     H155982   7.493   0.017   5.103
18580WAT     H255983   7.377   0.101   5.025
18581WAT      O55984   3.707   3.123   2.522
18581WAT     H155985   3.630   3.147   2.581
18581WAT     H255986   3.739   3.205   2.474
18582WAT      O55987   6.990   5.063   6.903
18582WAT     H155988   6.920   5.074   6.832
18582WAT     H255989   7.006   5.152   6.947
18583WAT      O55990   3.438   8.374   0.329
18583WAT     H155991   3.454   8.397   0.425
18583WAT     H255992   3.512   8.317   0.295
18584WAT      O55993   8.709   1.016   4.040
18584WAT     H155994   8.771   0.999   4.116
18584WAT     H255995   8.747   0.975   3.957
18585WAT      O55996   4.341   6.368   4.478
18585WAT     H155997   4.275   6.340   4.408
18585WAT     H255998   4.421   6.308   4.474
18586WAT      O55999   5.218   6.335   7.588
18586WAT     H156000   5.154   6.285   7.646
18586WAT     H256001   5.307   6.339   7.634
18587WAT      O56002   7.358   9.458   2.994
18587WAT     H156003   7.454   9.440   3.017
18587WAT     H256004   7.303   9.378   3.018
18588WAT      O56005   6.339   2.154   2.773
18588WAT     H156006   6.278   2.075   2.780
18588WAT     H256007   6.430   2.123   2.747
18589WAT      O56008   1.791   8.719   3.125
18589WAT     H156009   1.790   8.809   3.081
18589WAT     H256010   1.787   8.648   3.055
18590WAT      O56011   9.295   4.068   5.262
18590WAT     H156012   9.257   4.001   5.326
18590WAT     H256013   9.262   4.048   5.170
18591WAT      O56014   4.034   6.891   6.753
18591WAT     H156015   4.063   6.950   6.829
18591WAT     H256016   3.989   6.946   6.683
18592WAT      O56017   5.256   4.555   8.896
18592WAT     H156018   5.315   4.588   8.969
18592WAT     H256019   5.186   4.494   8.934
18593WAT      O56020   9.632   3.225   4.558
18593WAT     H156021   9.572   3.302   4.580
18593WAT     H256022   9.707   3.257   4.500
18594WAT      O56023   1.159   1.562   7.255
18594WAT     H156024   1.183   1.485   7.315
18594WAT     H256025   1.131   1.528   7.166
18595WAT      O56026   0.710   2.182   8.465
18595WAT     H156027   0.791   2.167   8.408
18595WAT     H256028   0.700   2.280   8.482
18596WAT      O56029   3.301   2.146   2.157
18596WAT     H156030   3.370   2.089   2.111
18596WAT     H256031   3.309   2.240   2.124
18597WAT      O56032   3.902   7.309   8.954
18597WAT     H156033   3.907   7.366   8.871
18597WAT     H256034   3.995   7.279   8.978
18598WAT      O56035   7.032   2.524   3.595
18598WAT     H156036   6.992   2.448   3.545
18598WAT     H256037   7.079   2.585   3.531
18599WAT      O56038   9.457   0.782   6.774
18599WAT     H156039   9.389   0.714   6.748
18599WAT     H256040   9.547   0.752   6.744
18600WAT      O56041   7.595   5.586   7.230
18600WAT     H156042   7.593   5.492   7.196
18600WAT     H256043   7.564   5.648   7.157
18601WAT      O56044   9.034   5.957   7.375
18601WAT     H156045   9.094   5.981   7.300
18601WAT     H256046   8.979   5.877   7.350
18602WAT      O56047   2.475   7.371   3.546
18602WAT     H156048   2.465   7.296   3.482
18602WAT     H256049   2.401   7.368   3.613
18603WAT      O56050   2.170   3.383   8.966
18603WAT     H156051   2.182   3.324   9.046
18603WAT     H256052   2.246   3.447   8.960
18604WAT      O56053   7.594   9.785   5.840
18604WAT     H156054   7.676   9.734   5.812
18604WAT     H256055   7.519   9.721   5.858
18605WAT      O56056   3.534   7.770   3.267
18605WAT     H156057   3.500   7.749   3.359
18605WAT     H256058   3.620   7.821   3.275
18606WAT      O56059   1.198   1.327   0.105
18606WAT     H156060   1.115   1.347   0.158
18606WAT     H256061   1.199   1.230   0.081
18607WAT      O56062   9.050   9.420   4.331
18607WAT     H156063   9.060   9.470   4.245
18607WAT     H256064   9.060   9.484   4.407
18608WAT      O56065   9.249   7.291   5.801
18608WAT     H156066   9.323   7.350   5.831
18608WAT     H256067   9.217   7.235   5.877
18609WAT      O56068   2.825   6.836   4.735
18609WAT     H156069   2.803   6.787   4.819
18609WAT     H256070   2.743   6.880   4.699
18610WAT      O56071   5.315   2.194   4.414
18610WAT     H156072   5.411   2.219   4.428
18610WAT     H256073   5.296   2.190   4.316
18611WAT      O56074   2.826   0.497   4.871
18611WAT     H156075   2.763   0.507   4.948
18611WAT     H256076   2.846   0.400   4.857
18612WAT      O56077   0.906   6.427   5.731
18612WAT     H156078   0.889   6.477   5.646
18612WAT     H256079   0.844   6.460   5.802
18613WAT      O56080   2.576   6.860   1.309
18613WAT     H156081   2.652   6.853   1.374
18613WAT     H256082   2.600   6.923   1.235
18614WAT      O56083   5.073   3.652   0.618
18614WAT     H156084   5.026   3.643   0.530
18614WAT     H256085   5.157   3.704   0.607
18615WAT      O56086   0.851   8.262   2.132
18615WAT     H156087   0.823   8.355   2.109
18615WAT     H256088   0.926   8.235   2.072
18616WAT      O56089   1.234   6.199   9.282
18616WAT     H156090   1.319   6.148   9.271
18616WAT     H256091   1.174   6.181   9.204
18617WAT      O56092   5.708   5.892   8.111
18617WAT     H156093   5.624   5.840   8.127
18617WAT     H256094   5.746   5.868   8.021
18618WAT      O56095   5.233   9.218   9.160
18618WAT     H156096   5.169   9.281   9.204
18618WAT     H256097   5.317   9.214   9.213
18619WAT      O56098   2.347   4.572   8.080
18619WAT     H156099   2.402   4.535   8.005
18619WAT     H256100   2.392   4.551   8.167
18620WAT      O56101   3.663   6.118   0.568
18620WAT     H156102   3.739   6.182   0.560
18620WAT     H256103   3.584   6.153   0.517
18621WAT      O56104   2.712   1.122   2.320
18621WAT     H156105   2.663   1.035   2.313
18621WAT     H256106   2.772   1.133   2.241
18622WAT      O56107   6.124   4.267   5.987
18622WAT     H156108   6.167   4.234   5.903
18622WAT     H256109   6.040   4.216   6.004
18623WAT      O56110   7.138   5.612   7.041
18623WAT     H156111   7.215   5.669   7.071
18623WAT     H256112   7.055   5.640   7.089
18624WAT      O56113   2.696   9.239   9.725
18624WAT     H156114   2.630   9.169   9.753
18624WAT     H256115   2.767   9.197   9.668
18625WAT      O56116   3.374   3.866   9.851
18625WAT     H156117   3.293   3.922   9.862
18625WAT     H256118   3.425   3.896   9.770
18626WAT      O56119   2.551   9.215   8.785
18626WAT     H156120   2.546   9.219   8.885
18626WAT     H256121   2.460   9.232   8.747
18627WAT      O56122   8.341   0.975   8.961
18627WAT     H156123   8.388   0.901   8.913
18627WAT     H256124   8.320   1.049   8.897
18628WAT      O56125   9.118   4.761   1.699
18628WAT     H156126   9.152   4.847   1.659
18628WAT     H256127   9.093   4.697   1.627
18629WAT      O56128   4.105   3.060   8.609
18629WAT     H156129   4.023   3.008   8.585
18629WAT     H256130   4.106   3.146   8.558
18630WAT      O56131   7.930   3.322   1.856
18630WAT     H156132   7.891   3.242   1.811
18630WAT     H256133   7.953   3.299   1.951
18631WAT      O56134   4.997   6.964   3.730
18631WAT     H156135   5.097   6.959   3.736
18631WAT     H256136   4.963   6.889   3.674
18632WAT      O56137   4.951   2.526   4.365
18632WAT     H156138   4.981   2.453   4.303
18632WAT     H256139   4.862   2.502   4.403
18633WAT      O56140   3.459   1.607   7.470
18633WAT     H156141   3.532   1.538   7.478
18633WAT     H256142   3.388   1.588   7.537
18634WAT      O56143   2.624   4.381   0.061
18634WAT     H156144   2.702   4.348   0.114
18634WAT     H256145   2.542   4.381   0.119
18635WAT      O56146   6.683   8.457   5.451
18635WAT     H156147   6.708   8.548   5.485
18635WAT     H256148   6.617   8.415   5.512
18636WAT      O56149   2.635   5.224   7.918
18636WAT     H156150   2.611   5.240   7.822
18636WAT     H256151   2.646   5.125   7.932
18637WAT      O56152   2.927   7.049   5.487
18637WAT     H156153   3.020   7.031   5.455
18637WAT     H256154   2.862   6.995   5.434
18638WAT      O56155   2.366   4.511   4.371
18638WAT     H156156   2.373   4.413   4.349
18638WAT     H256157   2.313   4.557   4.299
18639WAT      O56158   8.666   4.906   3.630
18639WAT     H156159   8.648   4.979   3.564
18639WAT     H256160   8.591   4.839   3.627
18640WAT      O56161   0.386   2.082   2.934
18640WAT     H156162   0.411   2.104   2.840
18640WAT     H256163   0.308   2.138   2.962
18641WAT      O56164   0.600   3.188   4.651
18641WAT     H156165   0.585   3.106   4.707
18641WAT     H256166   0.610   3.161   4.555
18642WAT      O56167   1.304   9.205   3.665
18642WAT     H156168   1.350   9.173   3.747
18642WAT     H256169   1.296   9.305   3.668
18643WAT      O56170   3.880   9.122   2.797
18643WAT     H156171   3.897   9.171   2.882
18643WAT     H256172   3.861   9.189   2.724
18644WAT      O56173   1.130   2.508   6.520
18644WAT     H156174   1.069   2.429   6.506
18644WAT     H256175   1.088   2.571   6.585
18645WAT      O56176   9.162   8.199   7.608
18645WAT     H156177   9.066   8.200   7.636
18645WAT     H256178   9.193   8.293   7.590
18646WAT      O56179   6.442   4.832   2.641
18646WAT     H156180   6.373   4.777   2.688
18646WAT     H256181   6.411   4.927   2.637
18647WAT      O56182   5.427   7.268   8.736
18647WAT     H156183   5.344   7.269   8.680
18647WAT     H256184   5.491   7.337   8.702
18648WAT      O56185   0.249   6.374   5.037
18648WAT     H156186   0.293   6.421   5.113
18648WAT     H256187   0.314   6.368   4.960
18649WAT      O56188   8.400   9.179   1.815
18649WAT     H156189   8.434   9.263   1.774
18649WAT     H256190   8.307   9.161   1.781
18650WAT      O56191   3.813   1.894   8.116
18650WAT     H156192   3.806   1.963   8.188
18650WAT     H256193   3.743   1.824   8.129
18651WAT      O56194   2.744   5.676   2.293
18651WAT     H156195   2.669   5.627   2.250
18651WAT     H256196   2.830   5.651   2.249
18652WAT      O56197   2.110   8.382   3.219
18652WAT     H156198   2.155   8.317   3.280
18652WAT     H256199   2.028   8.340   3.181
18653WAT      O56200   9.481   1.500   5.100
18653WAT     H156201   9.531   1.532   5.019
18653WAT     H256202   9.434   1.415   5.079
18654WAT      O56203   1.203   9.617   3.899
18654WAT     H156204   1.215   9.571   3.811
18654WAT     H256205   1.139   9.693   3.889
18655WAT      O56206   7.431   1.810   7.834
18655WAT     H156207   7.333   1.814   7.851
18655WAT     H256208   7.448   1.808   7.736
18656WAT      O56209   6.982   5.231   2.538
18656WAT     H156210   6.994   5.275   2.627
18656WAT     H256211   7.044   5.153   2.530
18657WAT      O56212   7.497   5.748   1.574
18657WAT     H156213   7.520   5.748   1.477
18657WAT     H256214   7.580   5.765   1.627
18658WAT      O56215   3.684   8.301   4.785
18658WAT     H156216   3.754   8.233   4.769
18658WAT     H256217   3.605   8.259   4.830
18659WAT      O56218   5.390   8.196   0.124
18659WAT     H156219   5.485   8.213   0.149
18659WAT     H256220   5.355   8.274   0.072
18660WAT      O56221   7.556   0.534   7.019
18660WAT     H156222   7.552   0.560   7.115
18660WAT     H256223   7.568   0.616   6.963
18661WAT      O56224   1.038   0.548   4.466
18661WAT     H156225   0.990   0.566   4.552
18661WAT     H256226   1.002   0.608   4.395
18662WAT      O56227   4.138   7.691   1.411
18662WAT     H156228   4.098   7.782   1.425
18662WAT     H256229   4.230   7.701   1.373
18663WAT      O56230   8.579   3.774   9.270
18663WAT     H156231   8.575   3.864   9.226
18663WAT     H256232   8.497   3.761   9.326
18664WAT      O56233   6.656   9.726   3.482
18664WAT     H156234   6.659   9.633   3.445
18664WAT     H256235   6.616   9.788   3.414
18665WAT      O56236   9.693   6.406   8.216
18665WAT     H156237   9.615   6.381   8.158
18665WAT     H256238   9.731   6.493   8.184
18666WAT      O56239   9.101   0.399   1.844
18666WAT     H156240   9.162   0.386   1.765
18666WAT     H256241   9.124   0.333   1.915
18667WAT      O56242   2.251   6.428   0.616
18667WAT     H156243   2.279   6.489   0.542
18667WAT     H256244   2.174   6.469   0.666
18668WAT      O56245   5.982   1.028   7.592
18668WAT     H156246   6.002   1.095   7.663
18668WAT     H256247   5.902   1.056   7.540
18669WAT      O56248   2.666   8.797   0.396
18669WAT     H156249   2.697   8.716   0.347
18669WAT     H256250   2.591   8.840   0.346
18670WAT      O56251   5.017   0.365   2.613
18670WAT     H156252   5.092   0.303   2.592
18670WAT     H256253   5.027   0.401   2.706
18671WAT      O56254   3.945   4.954   9.155
18671WAT     H156255   3.909   4.860   9.153
18671WAT     H256256   3.870   5.019   9.148
18672WAT      O56257   6.506   9.702   4.809
18672WAT     H156258   6.594   9.738   4.842
18672WAT     H256259   6.433   9.767   4.831
18673WAT      O56260   5.438   3.372   7.948
18673WAT     H156261   5.436   3.381   8.048
18673WAT     H256262   5.346   3.382   7.912
18674WAT      O56263   7.030   0.573   5.698
18674WAT     H156264   6.957   0.534   5.755
18674WAT     H256265   7.110   0.593   5.755
18675WAT      O56266   6.745   2.084   1.861
18675WAT     H156267   6.827   2.130   1.894
18675WAT     H256268   6.736   2.098   1.762
18676WAT      O56269   9.338   5.880   5.147
18676WAT     H156270   9.333   5.979   5.138
18676WAT     H256271   9.370   5.856   5.239
18677WAT      O56272   5.851   7.813   3.513
18677WAT     H156273   5.835   7.751   3.436
18677WAT     H256274   5.765   7.828   3.562
18678WAT      O56275   8.816   2.418   2.869
18678WAT     H156276   8.793   2.458   2.958
18678WAT     H256277   8.736   2.422   2.809
18679WAT      O56278   9.466   1.003   9.254
18679WAT     H156279   9.476   1.053   9.340
18679WAT     H256280   9.431   0.912   9.273
18680WAT      O56281   7.077   8.275   2.548
18680WAT     H156282   7.078   8.342   2.474
18680WAT     H256283   7.117   8.189   2.515
18681WAT      O56284   4.746   2.145   8.496
18681WAT     H156285   4.709   2.082   8.427
18681WAT     H256286   4.726   2.239   8.469
18682WAT      O56287   6.847   7.771   0.639
18682WAT     H156288   6.749   7.762   0.658
18682WAT     H256289   6.881   7.856   0.678
18683WAT      O56290   7.100   5.354   7.969
18683WAT     H156291   7.169   5.360   8.041
18683WAT     H256292   7.043   5.273   7.984
18684WAT      O56293   8.169   2.984   0.783
18684WAT     H156294   8.250   2.989   0.842
18684WAT     H256295   8.177   3.054   0.712
18685WAT      O56296   8.121   4.195   2.482
18685WAT     H156297   8.175   4.122   2.524
18685WAT     H256298   8.156   4.284   2.510
18686WAT      O56299   1.104   3.924   1.107
18686WAT     H156300   1.170   3.898   1.177
18686WAT     H256301   1.146   3.988   1.043
18687WAT      O56302   4.636   4.574   1.274
18687WAT     H156303   4.588   4.502   1.324
18687WAT     H256304   4.733   4.573   1.298
18688WAT      O56305   1.477   0.901   2.526
18688WAT     H156306   1.520   0.814   2.550
18688WAT     H256307   1.491   0.919   2.428
18689WAT      O56308   9.436   7.955   8.296
18689WAT     H156309   9.358   7.971   8.236
18689WAT     H256310   9.502   7.894   8.251
18690WAT      O56311   7.033   5.271   5.675
18690WAT     H156312   6.963   5.324   5.629
18690WAT     H256313   7.062   5.318   5.758
18691WAT      O56314   3.017   6.964   0.154
18691WAT     H156315   2.957   6.888   0.179
18691WAT     H256316   2.975   7.017   0.081
18692WAT      O56317   0.429   6.861   5.700
18692WAT     H156318   0.399   6.951   5.732
18692WAT     H256319   0.434   6.798   5.777
18693WAT      O56320   1.830   2.352   3.249
18693WAT     H156321   1.897   2.405   3.300
18693WAT     H256322   1.803   2.271   3.302
18694WAT      O56323   3.514   7.462   4.139
18694WAT     H156324   3.521   7.486   4.236
18694WAT     H256325   3.543   7.367   4.127
18695WAT      O56326   8.357   0.983   4.636
18695WAT     H156327   8.324   0.967   4.729
18695WAT     H256328   8.278   1.001   4.576
18696WAT      O56329   3.655   7.296   5.083
18696WAT     H156330   3.745   7.316   5.044
18696WAT     H256331   3.658   7.311   5.182
18697WAT      O56332   9.309   6.550   2.993
18697WAT     H156333   9.329   6.647   2.993
18697WAT     H256334   9.375   6.502   2.935
18698WAT      O56335   3.560   1.891   5.754
18698WAT     H156336   3.510   1.956   5.811
18698WAT     H256337   3.534   1.903   5.659
18699WAT      O56338   7.985   5.072   0.281
18699WAT     H156339   8.024   5.075   0.188
18699WAT     H256340   8.033   5.139   0.339
18700WAT      O56341   6.316   0.989   7.968
18700WAT     H156342   6.313   1.011   7.870
18700WAT     H256343   6.258   1.053   8.018
18701WAT      O56344   8.416   1.678   3.796
18701WAT     H156345   8.392   1.728   3.879
18701WAT     H256346   8.333   1.653   3.747
18702WAT      O56347   7.517   2.033   1.080
18702WAT     H156348   7.499   2.130   1.065
18702WAT     H256349   7.565   2.020   1.166
18703WAT      O56350   4.622   8.016   2.373
18703WAT     H156351   4.698   8.080   2.364
18703WAT     H256352   4.566   8.040   2.452
18704WAT      O56353   5.751   5.567   1.057
18704WAT     H156354   5.748   5.470   1.082
18704WAT     H256355   5.834   5.585   1.004
18705WAT      O56356   3.700   4.185   8.200
18705WAT     H156357   3.689   4.226   8.109
18705WAT     H256358   3.615   4.195   8.252
18706WAT      O56359   3.933   0.182   7.633
18706WAT     H156360   3.882   0.204   7.550
18706WAT     H256361   3.935   0.261   7.693
18707WAT      O56362   2.140   5.247   8.680
18707WAT     H156363   2.071   5.281   8.744
18707WAT     H256364   2.198   5.323   8.650
18708WAT      O56365   8.650   6.082   7.773
18708WAT     H156366   8.733   6.101   7.721
18708WAT     H256367   8.579   6.047   7.712
18709WAT      O56368   7.169   5.678   5.115
18709WAT     H156369   7.114   5.601   5.081
18709WAT     H256370   7.192   5.662   5.211
18710WAT      O56371   5.775   5.356   7.593
18710WAT     H156372   5.794   5.449   7.624
18710WAT     H256373   5.710   5.358   7.517
18711WAT      O56374   4.041   7.610   5.546
18711WAT     H156375   3.998   7.550   5.477
18711WAT     H256376   4.140   7.596   5.544
18712WAT      O56377   8.269   9.720   3.817
18712WAT     H156378   8.256   9.647   3.885
18712WAT     H256379   8.254   9.808   3.861
18713WAT      O56380   6.485   2.536   1.458
18713WAT     H156381   6.512   2.606   1.392
18713WAT     H256382   6.501   2.569   1.550
18714WAT      O56383   5.104   8.594   8.774
18714WAT     H156384   5.038   8.586   8.699
18714WAT     H256385   5.196   8.608   8.737
18715WAT      O56386   4.024   3.215   3.097
18715WAT     H156387   3.979   3.276   3.163
18715WAT     H256388   4.108   3.180   3.137
18716WAT      O56389   2.716   8.235   8.545
18716WAT     H156390   2.770   8.157   8.512
18716WAT     H256391   2.619   8.218   8.529
18717WAT      O56392   1.149   4.143   1.493
18717WAT     H156393   1.139   4.127   1.591
18717WAT     H256394   1.247   4.152   1.470
18718WAT      O56395   0.073   6.333   1.606
18718WAT     H156396   0.058   6.257   1.670
18718WAT     H256397   0.091   6.417   1.659
18719WAT      O56398   7.905   8.682   4.718
18719WAT     H156399   7.870   8.647   4.631
18719WAT     H256400   8.003   8.700   4.709
18720WAT      O56401   5.844   0.390   7.825
18720WAT     H156402   5.911   0.454   7.786
18720WAT     H256403   5.752   0.420   7.801
18721WAT      O56404   8.482   0.474   3.948
18721WAT     H156405   8.495   0.375   3.939
18721WAT     H256406   8.564   0.522   3.916
18722WAT      O56407   8.770   3.853   3.243
18722WAT     H156408   8.757   3.767   3.193
18722WAT     H256409   8.682   3.898   3.256
18723WAT      O56410   2.713   6.207   8.380
18723WAT     H156411   2.739   6.295   8.340
18723WAT     H256412   2.757   6.133   8.329
18724WAT      O56413   5.474   3.380   4.949
18724WAT     H156414   5.530   3.349   4.873
18724WAT     H256415   5.482   3.316   5.025
18725WAT      O56416   6.946   9.828   2.531
18725WAT     H156417   6.918   9.755   2.469
18725WAT     H256418   6.865   9.884   2.554
18726WAT      O56419   5.545   5.631   6.415
18726WAT     H156420   5.471   5.566   6.398
18726WAT     H256421   5.533   5.673   6.505
18727WAT      O56422   6.424   9.046   8.127
18727WAT     H156423   6.371   9.010   8.203
18727WAT     H256424   6.449   8.971   8.065
18728WAT      O56425   3.665   0.206   1.860
18728WAT     H156426   3.741   0.146   1.887
18728WAT     H256427   3.699   0.278   1.800
18729WAT      O56428   2.962   1.483   6.734
18729WAT     H156429   3.049   1.525   6.709
18729WAT     H256430   2.898   1.554   6.763
18730WAT      O56431   2.401   0.388   1.077
18730WAT     H156432   2.318   0.444   1.082
18730WAT     H256433   2.448   0.404   0.990
18731WAT      O56434   2.841   8.274   7.360
18731WAT     H156435   2.928   8.232   7.337
18731WAT     H256436   2.841   8.300   7.457
18732WAT      O56437   1.784   1.236   5.970
18732WAT     H156438   1.749   1.241   5.876
18732WAT     H256439   1.765   1.322   6.017
18733WAT      O56440   0.132   5.372   6.056
18733WAT     H156441   0.061   5.400   6.120
18733WAT     H256442   0.205   5.324   6.106
18734WAT      O56443   5.400   7.657   2.855
18734WAT     H156444   5.488   7.702   2.869
18734WAT     H256445   5.411   7.558   2.867
18735WAT      O56446   1.639   2.659   7.572
18735WAT     H156447   1.733   2.687   7.593
18735WAT     H256448   1.576   2.706   7.635
18736WAT      O56449   7.257   4.718   8.238
18736WAT     H156450   7.349   4.729   8.275
18736WAT     H256451   7.255   4.640   8.176
18737WAT      O56452   1.985   0.166   4.300
18737WAT     H156453   1.940   0.250   4.269
18737WAT     H256454   1.961   0.148   4.396
18738WAT      O56455   6.662   8.956   2.017
18738WAT     H156456   6.595   9.019   1.977
18738WAT     H256457   6.727   9.007   2.073
18739WAT      O56458   9.590   0.371   7.681
18739WAT     H156459   9.585   0.419   7.769
18739WAT     H256460   9.596   0.438   7.607
18740WAT      O56461   4.824   9.697   4.352
18740WAT     H156462   4.906   9.701   4.410
18740WAT     H256463   4.851   9.697   4.256
18741WAT      O56464   2.964   1.243   0.335
18741WAT     H156465   2.999   1.308   0.268
18741WAT     H256466   2.975   1.281   0.427
18742WAT      O56467   0.428   0.337   2.041
18742WAT     H156468   0.417   0.436   2.031
18742WAT     H256469   0.354   0.290   1.993
18743WAT      O56470   2.519   7.989   1.755
18743WAT     H156471   2.551   8.080   1.780
18743WAT     H256472   2.511   7.981   1.656
18744WAT      O56473   8.980   4.710   0.084
18744WAT     H156474   9.030   4.747   0.006
18744WAT     H256475   8.902   4.656   0.051
18745WAT      O56476   8.214   0.954   4.136
18745WAT     H156477   8.227   1.041   4.182
18745WAT     H256478   8.267   0.952   4.051
18746WAT      O56479   4.576   2.187   6.624
18746WAT     H156480   4.549   2.183   6.720
18746WAT     H256481   4.527   2.116   6.573
18747WAT      O56482   5.806   2.247   0.268
18747WAT     H156483   5.792   2.247   0.367
18747WAT     H256484   5.900   2.272   0.247
18748WAT      O56485   8.190   2.047   2.458
18748WAT     H156486   8.283   2.073   2.487
18748WAT     H256487   8.128   2.053   2.537
18749WAT      O56488   3.510   8.694   3.288
18749WAT     H156489   3.589   8.723   3.341
18749WAT     H256490   3.466   8.616   3.333
18750WAT      O56491   4.580   2.397   3.065
18750WAT     H156492   4.484   2.371   3.073
18750WAT     H256493   4.619   2.409   3.157
18751WAT      O56494   2.201   8.142   4.408
18751WAT     H156495   2.218   8.043   4.415
18751WAT     H256496   2.288   8.191   4.409
18752WAT      O56497   0.224   6.776   8.130
18752WAT     H156498   0.317   6.745   8.148
18752WAT     H256499   0.192   6.833   8.206
18753WAT      O56500   1.925   8.769   0.501
18753WAT     H156501   1.853   8.839   0.494
18753WAT     H256502   1.950   8.739   0.409
18754WAT      O56503   9.606   3.390   3.323
18754WAT     H156504   9.627   3.486   3.342
18754WAT     H256505   9.685   3.348   3.278
18755WAT      O56506   5.424   5.678   7.319
18755WAT     H156507   5.386   5.749   7.378
18755WAT     H256508   5.524   5.677   7.329
18756WAT      O56509   0.792   3.160   8.229
18756WAT     H156510   0.843   3.155   8.315
18756WAT     H256511   0.812   3.080   8.173
18757WAT      O56512   7.565   6.523   7.129
18757WAT     H156513   7.629   6.521   7.052
18757WAT     H256514   7.552   6.617   7.159
18758WAT      O56515   1.894   1.895   0.887
18758WAT     H156516   1.845   1.976   0.855
18758WAT     H256517   1.986   1.894   0.848
18759WAT      O56518   6.942   2.124   4.422
18759WAT     H156519   6.859   2.074   4.445
18759WAT     H256520   6.925   2.222   4.430
18760WAT      O56521   2.965   5.400   6.208
18760WAT     H156522   2.943   5.490   6.170
18760WAT     H256523   2.964   5.332   6.134
18761WAT      O56524   1.824   4.930   1.482
18761WAT     H156525   1.853   4.839   1.513
18761WAT     H256526   1.810   4.928   1.384
18762WAT      O56527   9.298   2.090   4.793
18762WAT     H156528   9.251   2.031   4.727
18762WAT     H256529   9.234   2.158   4.829
18763WAT      O56530   4.082   7.075   7.978
18763WAT     H156531   4.115   6.999   7.921
18763WAT     H256532   4.082   7.159   7.925
18764WAT      O56533   6.227   9.427   1.977
18764WAT     H156534   6.145   9.465   2.020
18764WAT     H256535   6.200   9.367   1.902
18765WAT      O56536   6.885   4.283   0.311
18765WAT     H156537   6.893   4.185   0.327
18765WAT     H256538   6.844   4.300   0.221
18766WAT      O56539   1.675   8.075   2.056
18766WAT     H156540   1.755   8.108   2.005
18766WAT     H256541   1.596   8.072   1.996
18767WAT      O56542   3.683   9.526   4.265
18767WAT     H156543   3.590   9.529   4.228
18767WAT     H256544   3.744   9.578   4.206
18768WAT      O56545   3.057   7.557   8.077
18768WAT     H156546   2.989   7.576   8.006
18768WAT     H256547   3.031   7.604   8.161
18769WAT      O56548   9.754   8.145   0.559
18769WAT     H156549   9.698   8.095   0.624
18769WAT     H256550   9.697   8.177   0.483
18770WAT      O56551   3.106   2.801   4.602
18770WAT     H156552   3.148   2.814   4.691
18770WAT     H256553   3.070   2.708   4.596
18771WAT      O56554   0.259   5.519   9.725
18771WAT     H156555   0.211   5.445   9.677
18771WAT     H256556   0.274   5.493   9.821
18772WAT      O56557   6.499   0.729   8.543
18772WAT     H156558   6.488   0.761   8.449
18772WAT     H256559   6.433   0.777   8.601
18773WAT      O56560   6.729   8.056   6.718
18773WAT     H156561   6.704   8.150   6.744
18773WAT     H256562   6.783   8.015   6.792
18774WAT      O56563   6.816   9.287   7.128
18774WAT     H156564   6.746   9.359   7.128
18774WAT     H256565   6.829   9.253   7.035
18775WAT      O56566   4.095   7.106   0.722
18775WAT     H156567   4.027   7.042   0.756
18775WAT     H256568   4.136   7.155   0.798
18776WAT      O56569   3.311   2.597   2.786
18776WAT     H156570   3.252   2.561   2.714
18776WAT     H256571   3.370   2.669   2.748
18777WAT      O56572   5.191   6.233   5.303
18777WAT     H156573   5.113   6.271   5.353
18777WAT     H256574   5.260   6.304   5.291
18778WAT      O56575   1.885   8.947   4.840
18778WAT     H156576   1.892   9.045   4.819
18778WAT     H256577   1.976   8.906   4.836
18779WAT      O56578   4.121   0.892   0.108
18779WAT     H156579   4.220   0.904   0.101
18779WAT     H256580   4.095   0.892   0.205
18780WAT      O56581   5.207   2.553   8.731
18780WAT     H156582   5.229   2.584   8.824
18780WAT     H256583   5.218   2.628   8.667
18781WAT      O56584   7.037   0.818   0.646
18781WAT     H156585   6.939   0.796   0.649
18781WAT     H256586   7.065   0.833   0.552
18782WAT      O56587   1.024   0.442   6.007
18782WAT     H156588   1.116   0.402   5.997
18782WAT     H256589   1.027   0.516   6.074
18783WAT      O56590   1.416   2.368   1.637
18783WAT     H156591   1.341   2.305   1.616
18783WAT     H256592   1.498   2.340   1.587
18784WAT      O56593   9.132   9.260   4.043
18784WAT     H156594   9.179   9.177   4.013
18784WAT     H256595   9.178   9.340   4.003
18785WAT      O56596   3.034   8.004   6.209
18785WAT     H156597   3.018   8.098   6.240
18785WAT     H256598   3.130   7.994   6.182
18786WAT      O56599   2.675   7.843   6.110
18786WAT     H156600   2.637   7.777   6.045
18786WAT     H256601   2.774   7.832   6.113
18787WAT      O56602   3.702   4.008   0.378
18787WAT     H156603   3.772   3.968   0.318
18787WAT     H256604   3.687   4.103   0.352
18788WAT      O56605   6.986   4.080   8.329
18788WAT     H156606   7.054   4.064   8.402
18788WAT     H256607   6.979   4.177   8.311
18789WAT      O56608   4.750   1.065   9.270
18789WAT     H156609   4.799   0.980   9.250
18789WAT     H256610   4.679   1.080   9.201
18790WAT      O56611   6.743   1.815   6.708
18790WAT     H156612   6.814   1.776   6.768
18790WAT     H256613   6.674   1.861   6.764
18791WAT      O56614   8.814   3.582   5.723
18791WAT     H156615   8.810   3.519   5.645
18791WAT     H256616   8.752   3.550   5.795
18792WAT      O56617   4.959   6.959   4.261
18792WAT     H156618   4.960   6.896   4.338
18792WAT     H256619   5.031   7.028   4.273
18793WAT      O56620   0.319   6.036   3.436
18793WAT     H156621   0.373   6.095   3.376
18793WAT     H256622   0.301   5.949   3.390
18794WAT      O56623   8.701   5.227   5.065
18794WAT     H156624   8.756   5.300   5.106
18794WAT     H256625   8.637   5.267   4.999
18795WAT      O56626   7.217   4.411   6.546
18795WAT     H156627   7.252   4.494   6.502
18795WAT     H256628   7.198   4.430   6.642
18796WAT      O56629   9.735   4.557   1.046
18796WAT     H156630   9.716   4.465   1.012
18796WAT     H256631   9.728   4.622   0.971
18797WAT      O56632   3.339   7.627   9.800
18797WAT     H156633   3.367   7.695   9.733
18797WAT     H256634   3.338   7.536   9.757
18798WAT      O56635   3.567   9.161   3.213
18798WAT     H156636   3.533   9.083   3.268
18798WAT     H256637   3.663   9.146   3.191
18799WAT      O56638   6.896   1.003   5.117
18799WAT     H156639   6.889   1.026   5.020
18799WAT     H256640   6.991   0.991   5.143
18800WAT      O56641   4.597   6.140   2.682
18800WAT     H156642   4.546   6.105   2.604
18800WAT     H256643   4.650   6.220   2.655
18801WAT      O56644   0.128   1.484   7.790
18801WAT     H156645   0.077   1.402   7.816
18801WAT     H256646   0.196   1.461   7.721
18802WAT      O56647   2.623   2.227   7.654
18802WAT     H156648   2.665   2.141   7.628
18802WAT     H256649   2.593   2.223   7.749
18803WAT      O56650   7.524   3.321   2.612
18803WAT     H156651   7.540   3.289   2.519
18803WAT     H256652   7.429   3.305   2.637
18804WAT      O56653   9.655   7.409   9.217
18804WAT     H156654   9.664   7.420   9.316
18804WAT     H256655   9.742   7.378   9.178
18805WAT      O56656   6.514   9.377   3.074
18805WAT     H156657   6.451   9.335   3.139
18805WAT     H256658   6.462   9.424   3.002
18806WAT      O56659   3.757   8.732   2.617
18806WAT     H156660   3.682   8.742   2.551
18806WAT     H256661   3.724   8.683   2.697
18807WAT      O56662   8.523   5.763   7.621
18807WAT     H156663   8.472   5.708   7.686
18807WAT     H256664   8.620   5.764   7.646
18808WAT      O56665   8.133   8.113   2.023
18808WAT     H156666   8.105   8.046   1.954
18808WAT     H256667   8.059   8.178   2.038
18809WAT      O56668   0.831   2.113   8.881
18809WAT     H156669   0.767   2.148   8.949
18809WAT     H256670   0.864   2.188   8.824
18810WAT      O56671   5.882   7.391   6.947
18810WAT     H156672   5.961   7.443   6.980
18810WAT     H256673   5.888   7.297   6.979
18811WAT      O56674   5.264   5.468   5.985
18811WAT     H156675   5.308   5.558   5.987
18811WAT     H256676   5.306   5.410   6.055
18812WAT      O56677   2.869   6.247   1.439
18812WAT     H156678   2.848   6.310   1.364
18812WAT     H256679   2.967   6.228   1.441
18813WAT      O56680   0.182   8.540   4.839
18813WAT     H156681   0.098   8.542   4.892
18813WAT     H256682   0.185   8.621   4.779
18814WAT      O56683   5.981   9.002   4.341
18814WAT     H156684   5.989   9.077   4.275
18814WAT     H256685   5.955   9.038   4.430
18815WAT      O56686   0.874   7.192   5.534
18815WAT     H156687   0.870   7.097   5.567
18815WAT     H256688   0.886   7.192   5.435
18816WAT      O56689   6.524   4.715   4.694
18816WAT     H156690   6.583   4.647   4.651
18816WAT     H256691   6.496   4.782   4.625
18817WAT      O56692   1.083   1.895   3.408
18817WAT     H156693   1.183   1.893   3.405
18817WAT     H256694   1.049   1.804   3.433
18818WAT      O56695   2.637   2.269   4.501
18818WAT     H156696   2.590   2.310   4.423
18818WAT     H256697   2.733   2.295   4.499
18819WAT      O56698   7.651   9.639   3.001
18819WAT     H156699   7.617   9.597   2.917
18819WAT     H256700   7.576   9.649   3.066
18820WAT      O56701   4.875   2.646   0.941
18820WAT     H156702   4.929   2.579   0.891
18820WAT     H256703   4.798   2.676   0.884
18821WAT      O56704   2.422   5.597   8.866
18821WAT     H156705   2.489   5.526   8.889
18821WAT     H256706   2.461   5.658   8.798
18822WAT      O56707   0.174   6.975   8.649
18822WAT     H156708   0.084   6.998   8.611
18822WAT     H256709   0.233   7.056   8.647
18823WAT      O56710   1.408   3.434   9.481
18823WAT     H156711   1.339   3.402   9.417
18823WAT     H256712   1.499   3.404   9.450
18824WAT      O56713   7.679   1.453   2.073
18824WAT     H156714   7.617   1.525   2.104
18824WAT     H256715   7.652   1.366   2.113
18825WAT      O56716   1.572   5.415   4.289
18825WAT     H156717   1.616   5.361   4.217
18825WAT     H256718   1.642   5.455   4.349
18826WAT      O56719   9.246   5.034   8.811
18826WAT     H156720   9.182   5.111   8.820
18826WAT     H256721   9.212   4.956   8.864
18827WAT      O56722   7.552   8.500   3.149
18827WAT     H156723   7.466   8.507   3.199
18827WAT     H256724   7.534   8.480   3.053
18828WAT      O56725   6.010   7.705   7.898
18828WAT     H156726   5.952   7.721   7.977
18828WAT     H256727   6.026   7.791   7.850
18829WAT      O56728   3.800   3.247   6.291
18829WAT     H156729   3.819   3.310   6.367
18829WAT     H256730   3.818   3.293   6.204
18830WAT      O56731   0.435   2.371   8.638
18830WAT     H156732   0.416   2.339   8.730
18830WAT     H256733   0.473   2.296   8.583
18831WAT      O56734   4.494   9.169   7.136
18831WAT     H156735   4.523   9.074   7.123
18831WAT     H256736   4.395   9.176   7.119
18832WAT      O56737   0.511   9.620   7.082
18832WAT     H156738   0.419   9.658   7.086
18832WAT     H256739   0.573   9.678   7.136
18833WAT      O56740   7.998   3.447   9.118
18833WAT     H156741   7.986   3.545   9.134
18833WAT     H256742   8.041   3.432   9.029
18834WAT      O56743   6.427   8.619   8.621
18834WAT     H156744   6.333   8.653   8.621
18834WAT     H256745   6.486   8.684   8.572
18835WAT      O56746   8.973   0.782   3.191
18835WAT     H156747   8.979   0.684   3.212
18835WAT     H256748   8.948   0.794   3.095
18836WAT      O56749   7.344   5.984   2.262
18836WAT     H156750   7.350   6.061   2.326
18836WAT     H256751   7.251   5.977   2.227
18837WAT      O56752   1.637   5.644   5.027
18837WAT     H156753   1.706   5.631   5.098
18837WAT     H256754   1.671   5.705   4.957
18838WAT      O56755   6.658   1.102   6.918
18838WAT     H156756   6.569   1.100   6.872
18838WAT     H256757   6.675   1.193   6.953
18839WAT      O56758   5.606   6.638   6.739
18839WAT     H156759   5.675   6.710   6.731
18839WAT     H256760   5.516   6.681   6.748
18840WAT      O56761   8.310   7.099   9.064
18840WAT     H156762   8.371   7.041   9.010
18840WAT     H256763   8.361   7.178   9.098
18841WAT      O56764   4.839   1.762   4.400
18841WAT     H156765   4.906   1.788   4.470
18841WAT     H256766   4.749   1.751   4.442
18842WAT      O56767   2.141   3.340   4.437
18842WAT     H156768   2.116   3.318   4.532
18842WAT     H256769   2.196   3.265   4.399
18843WAT      O56770   1.762   4.096   3.763
18843WAT     H156771   1.823   4.130   3.691
18843WAT     H256772   1.784   4.141   3.850
18844WAT      O56773   2.017   0.814   4.319
18844WAT     H156774   2.033   0.905   4.279
18844WAT     H256775   1.971   0.824   4.407
18845WAT      O56776   5.314   7.288   3.705
18845WAT     H156777   5.233   7.347   3.709
18845WAT     H256778   5.384   7.333   3.650
18846WAT      O56779   0.103   7.332   5.698
18846WAT     H156780   0.091   7.369   5.790
18846WAT     H256781   0.142   7.240   5.703
18847WAT      O56782   2.018   1.636   4.776
18847WAT     H156783   2.003   1.728   4.811
18847WAT     H256784   2.073   1.584   4.842
18848WAT      O56785   4.962   9.432   3.974
18848WAT     H156786   4.908   9.417   3.891
18848WAT     H256787   4.933   9.367   4.044
18849WAT      O56788   8.196   5.799   4.485
18849WAT     H156789   8.217   5.724   4.548
18849WAT     H256790   8.281   5.846   4.461
18850WAT      O56791   4.409   9.780   8.804
18850WAT     H156792   4.315   9.758   8.777
18850WAT     H256793   4.460   9.696   8.821
18851WAT      O56794   0.068   6.315   3.271
18851WAT     H156795   0.036   6.323   3.176
18851WAT     H256796   0.127   6.393   3.293
18852WAT      O56797   9.595   7.480   7.117
18852WAT     H156798   9.548   7.553   7.067
18852WAT     H256799   9.570   7.485   7.214
18853WAT      O56800   5.562   7.043   2.108
18853WAT     H156801   5.535   7.110   2.178
18853WAT     H256802   5.508   7.058   2.025
18854WAT      O56803   8.732   7.627   0.671
18854WAT     H156804   8.657   7.663   0.615
18854WAT     H256805   8.729   7.669   0.762
18855WAT      O56806   5.397   0.694   5.151
18855WAT     H156807   5.361   0.785   5.128
18855WAT     H256808   5.327   0.641   5.197
18856WAT      O56809   6.537   5.836   6.798
18856WAT     H156810   6.463   5.815   6.862
18856WAT     H256811   6.497   5.868   6.712
18857WAT      O56812   8.671   9.211   0.599
18857WAT     H156813   8.690   9.188   0.503
18857WAT     H256814   8.583   9.258   0.605
18858WAT      O56815   0.422   6.635   9.515
18858WAT     H156816   0.471   6.712   9.473
18858WAT     H256817   0.392   6.572   9.443
18859WAT      O56818   9.146   7.977   8.609
18859WAT     H156819   9.053   8.009   8.596
18859WAT     H256820   9.151   7.923   8.693
18860WAT      O56821   0.426   5.873   5.699
18860WAT     H156822   0.395   5.849   5.791
18860WAT     H256823   0.519   5.841   5.685
18861WAT      O56824   0.228   7.865   5.344
18861WAT     H156825   0.323   7.836   5.357
18861WAT     H256826   0.186   7.808   5.273
18862WAT      O56827   6.920   9.141   1.625
18862WAT     H156828   6.908   9.172   1.719
18862WAT     H256829   6.952   9.046   1.624
18863WAT      O56830   5.688   4.973   6.899
18863WAT     H156831   5.602   5.015   6.930
18863WAT     H256832   5.669   4.884   6.859
18864WAT      O56833   5.175   8.945   7.146
18864WAT     H156834   5.085   8.938   7.103
18864WAT     H256835   5.164   8.975   7.241
18865WAT      O56836   8.784   0.686   9.712
18865WAT     H156837   8.796   0.610   9.648
18865WAT     H256838   8.688   0.690   9.740
18866WAT      O56839   8.325   8.102   7.488
18866WAT     H156840   8.392   8.111   7.414
18866WAT     H256841   8.365   8.052   7.564
18867WAT      O56842   4.949   3.926   6.433
18867WAT     H156843   4.978   4.018   6.407
18867WAT     H256844   4.973   3.862   6.360
18868WAT      O56845   9.630   0.537   0.925
18868WAT     H156846   9.714   0.484   0.918
18868WAT     H256847   9.632   0.594   1.007
18869WAT      O56848   3.690   5.351   7.054
18869WAT     H156849   3.694   5.350   6.954
18869WAT     H256850   3.641   5.270   7.086
18870WAT      O56851   5.203   2.090   0.565
18870WAT     H156852   5.216   2.170   0.623
18870WAT     H256853   5.292   2.056   0.533
18871WAT      O56854   0.056   2.149   9.470
18871WAT     H156855   0.125   2.199   9.524
18871WAT     H256856  -0.029   2.200   9.470
18872WAT      O56857   7.149   4.967   4.994
18872WAT     H156858   7.192   5.056   5.012
18872WAT     H256859   7.199   4.920   4.921
18873WAT      O56860   5.774   3.750   6.756
18873WAT     H156861   5.864   3.762   6.715
18873WAT     H256862   5.764   3.655   6.787
18874WAT      O56863   5.235   7.866   6.345
18874WAT     H156864   5.295   7.926   6.293
18874WAT     H256865   5.249   7.771   6.315
18875WAT      O56866   8.434   9.317   5.364
18875WAT     H156867   8.350   9.362   5.331
18875WAT     H256868   8.459   9.356   5.452
18876WAT      O56869   4.570   6.496   3.706
18876WAT     H156870   4.472   6.485   3.721
18876WAT     H256871   4.619   6.417   3.743
18877WAT      O56872   6.285   6.068   5.849
18877WAT     H156873   6.203   6.011   5.841
18877WAT     H256874   6.267   6.143   5.913
18878WAT      O56875   3.675   9.558   1.108
18878WAT     H156876   3.700   9.581   1.202
18878WAT     H256877   3.604   9.621   1.076
18879WAT      O56878   9.406   9.789   9.731
18879WAT     H156879   9.334   9.731   9.693
18879WAT     H256880   9.463   9.824   9.657
18880WAT      O56881   3.790   0.073   6.776
18880WAT     H156882   3.782   0.102   6.872
18880WAT     H256883   3.870   0.116   6.735
18881WAT      O56884   5.521   4.360   7.043
18881WAT     H156885   5.536   4.451   7.004
18881WAT     H256886   5.555   4.359   7.137
18882WAT      O56887   1.489   1.280   7.514
18882WAT     H156888   1.529   1.319   7.431
18882WAT     H256889   1.500   1.180   7.512
18883WAT      O56890   3.221   5.092   4.140
18883WAT     H156891   3.148   5.160   4.135
18883WAT     H256892   3.309   5.137   4.123
18884WAT      O56893   9.702   9.106   6.900
18884WAT     H156894   9.651   9.190   6.917
18884WAT     H256895   9.793   9.113   6.942
18885WAT      O56896   1.832   9.372   5.655
18885WAT     H156897   1.882   9.328   5.730
18885WAT     H256898   1.737   9.384   5.681
18886WAT      O56899   8.225   0.649   1.872
18886WAT     H156900   8.135   0.689   1.854
18886WAT     H256901   8.226   0.554   1.840
18887WAT      O56902   2.623   8.978   8.344
18887WAT     H156903   2.584   8.930   8.422
18887WAT     H256904   2.601   9.075   8.350
18888WAT      O56905   2.317   6.250   7.622
18888WAT     H156906   2.335   6.212   7.712
18888WAT     H256907   2.228   6.296   7.622
18889WAT      O56908   4.879   8.464   5.414
18889WAT     H156909   4.941   8.522   5.361
18889WAT     H256910   4.912   8.456   5.507
18890WAT      O56911   2.727   6.365   4.821
18890WAT     H156912   2.640   6.327   4.852
18890WAT     H256913   2.802   6.305   4.848
18891WAT      O56914   6.833   1.809   5.827
18891WAT     H156915   6.892   1.728   5.826
18891WAT     H256916   6.751   1.791   5.772
18892WAT      O56917   4.601   6.141   2.959
18892WAT     H156918   4.682   6.183   3.000
18892WAT     H256919   4.623   6.105   2.869
18893WAT      O56920   3.730   6.500   4.865
18893WAT     H156921   3.736   6.517   4.963
18893WAT     H256922   3.727   6.402   4.848
18894WAT      O56923   1.722   2.269   3.480
18894WAT     H156924   1.698   2.351   3.532
18894WAT     H256925   1.643   2.207   3.477
18895WAT      O56926   0.336   8.947   5.454
18895WAT     H156927   0.375   8.858   5.480
18895WAT     H256928   0.343   8.958   5.354
18896WAT      O56929   9.576   2.599   3.056
18896WAT     H156930   9.618   2.546   3.130
18896WAT     H256931   9.486   2.560   3.034
18897WAT      O56932   9.137   5.789   6.752
18897WAT     H156933   9.123   5.729   6.831
18897WAT     H256934   9.069   5.768   6.682
18898WAT      O56935   3.938   9.326   3.016
18898WAT     H156936   3.936   9.395   2.944
18898WAT     H256937   3.887   9.359   3.096
18899WAT      O56938   3.768   0.367   1.651
18899WAT     H156939   3.861   0.332   1.665
18899WAT     H256940   3.735   0.339   1.561
18900WAT      O56941   6.015   9.215   8.305
18900WAT     H156942   6.010   9.155   8.225
18900WAT     H256943   5.924   9.251   8.325
18901WAT      O56944   5.667   0.189   2.983
18901WAT     H156945   5.671   0.192   3.083
18901WAT     H256946   5.602   0.119   2.954
18902WAT      O56947   0.611   4.774   7.156
18902WAT     H156948   0.596   4.846   7.223
18902WAT     H256949   0.658   4.697   7.199
18903WAT      O56950   2.751   8.304   7.612
18903WAT     H156951   2.652   8.314   7.626
18903WAT     H256952   2.799   8.321   7.698
18904WAT      O56953   4.590   9.272   6.905
18904WAT     H156954   4.574   9.225   6.992
18904WAT     H256955   4.535   9.229   6.834
18905WAT      O56956   6.386   5.466   6.964
18905WAT     H156957   6.301   5.517   6.981
18905WAT     H256958   6.443   5.467   7.046
18906WAT      O56959   9.704   4.005   8.408
18906WAT     H156960   9.715   4.097   8.446
18906WAT     H256961   9.699   4.010   8.308
18907WAT      O56962   2.387   8.689   5.947
18907WAT     H156963   2.452   8.763   5.963
18907WAT     H256964   2.384   8.667   5.849
18908WAT      O56965   5.983   3.300   0.726
18908WAT     H156966   5.911   3.356   0.768
18908WAT     H256967   5.944   3.215   0.692
18909WAT      O56968   7.186   7.937   7.100
18909WAT     H156969   7.187   7.845   7.060
18909WAT     H256970   7.135   7.999   7.040
18910WAT      O56971   3.206   9.063   1.692
18910WAT     H156972   3.203   9.161   1.714
18910WAT     H256973   3.119   9.021   1.716
18911WAT      O56974   3.456   6.748   2.379
18911WAT     H156975   3.474   6.846   2.383
18911WAT     H256976   3.412   6.726   2.292
18912WAT      O56977   4.795   1.177   7.735
18912WAT     H156978   4.828   1.093   7.777
18912WAT     H256979   4.737   1.156   7.657
18913WAT      O56980   9.457   3.394   0.527
18913WAT     H156981   9.363   3.388   0.494
18913WAT     H256982   9.510   3.317   0.489
18914WAT      O56983   2.685   7.670   8.596
18914WAT     H156984   2.736   7.602   8.649
18914WAT     H256985   2.650   7.627   8.512
18915WAT      O56986   4.363   9.069   7.515
18915WAT     H156987   4.412   9.066   7.428
18915WAT     H256988   4.368   8.980   7.559
18916WAT      O56989   6.647   6.308   8.159
18916WAT     H156990   6.664   6.250   8.239
18916WAT     H256991   6.606   6.395   8.190
18917WAT      O56992   2.098   9.715   7.229
18917WAT     H156993   2.060   9.664   7.307
18917WAT     H256994   2.156   9.789   7.262
18918WAT      O56995   3.125   1.367   2.949
18918WAT     H156996   3.075   1.284   2.927
18918WAT     H256997   3.211   1.344   2.996
18919WAT      O56998   5.153   3.499   2.155
18919WAT     H156999   5.179   3.409   2.120
18919WAT     H257000   5.222   3.567   2.130
18920WAT      O57001   0.181   0.841   6.801
18920WAT     H157002   0.235   0.774   6.750
18920WAT     H257003   0.101   0.867   6.748
18921WAT      O57004   1.092   6.643   6.947
18921WAT     H157005   1.085   6.623   6.849
18921WAT     H257006   1.157   6.718   6.962
18922WAT      O57007   4.954   9.828   0.793
18922WAT     H157008   4.893   9.868   0.861
18922WAT     H257009   4.935   9.730   0.784
18923WAT      O57010   7.424   2.514   8.261
18923WAT     H157011   7.339   2.553   8.225
18923WAT     H257012   7.486   2.588   8.287
18924WAT      O57013   7.004   4.896   1.972
18924WAT     H157014   6.906   4.913   1.981
18924WAT     H257015   7.021   4.839   1.891
18925WAT      O57016   0.652   1.093   9.137
18925WAT     H157017   0.685   1.039   9.059
18925WAT     H257018   0.695   1.183   9.136
18926WAT      O57019   9.112   1.557   8.726
18926WAT     H157020   9.171   1.622   8.773
18926WAT     H257021   9.024   1.552   8.773
18927WAT      O57022   7.127   9.037   5.013
18927WAT     H157023   7.043   9.021   4.961
18927WAT     H257024   7.206   9.014   4.957
18928WAT      O57025   7.316   1.316   9.309
18928WAT     H157026   7.270   1.237   9.350
18928WAT     H257027   7.262   1.350   9.232
18929WAT      O57028   5.395   1.896   0.819
18929WAT     H157029   5.322   1.954   0.856
18929WAT     H257030   5.354   1.817   0.774
18930WAT      O57031   0.432   5.495   2.175
18930WAT     H157032   0.493   5.543   2.237
18930WAT     H257033   0.413   5.552   2.095
18931WAT      O57034   6.955   5.018   7.683
18931WAT     H157035   7.017   4.942   7.698
18931WAT     H257036   6.898   4.999   7.603
18932WAT      O57037   1.350   6.104   8.481
18932WAT     H157038   1.446   6.100   8.508
18932WAT     H257039   1.342   6.078   8.384
18933WAT      O57040   1.039   2.584   1.203
18933WAT     H157041   1.055   2.682   1.217
18933WAT     H257042   1.110   2.532   1.250
18934WAT      O57043   1.692   2.186   7.883
18934WAT     H157044   1.710   2.235   7.968
18934WAT     H257045   1.599   2.207   7.852
18935WAT      O57046   4.374   8.877   5.924
18935WAT     H157047   4.302   8.808   5.918
18935WAT     H257048   4.461   8.834   5.945
18936WAT      O57049   8.902   3.728   0.371
18936WAT     H157050   8.965   3.796   0.332
18936WAT     H257051   8.943   3.688   0.453
18937WAT      O57052   6.569   7.935   7.868
18937WAT     H157053   6.475   7.966   7.887
18937WAT     H257054   6.602   7.882   7.945
18938WAT      O57055   5.159   6.373   7.092
18938WAT     H157056   5.182   6.452   7.036
18938WAT     H257057   5.073   6.390   7.141
18939WAT      O57058   2.754   4.944   3.083
18939WAT     H157059   2.814   4.973   3.158
18939WAT     H257060   2.723   5.025   3.033
18940WAT      O57061   1.588   0.260   0.217
18940WAT     H157062   1.551   0.296   0.131
18940WAT     H257063   1.657   0.190   0.197
18941WAT      O57064   4.496   1.245   0.422
18941WAT     H157065   4.520   1.246   0.519
18941WAT     H257066   4.564   1.193   0.371
18942WAT      O57067   6.541   1.261   7.407
18942WAT     H157068   6.521   1.316   7.487
18942WAT     H257069   6.539   1.319   7.325
18943WAT      O57070   2.007   3.860   4.455
18943WAT     H157071   2.060   3.925   4.402
18943WAT     H257072   2.028   3.767   4.425
18944WAT      O57073   1.898   4.516   1.286
18944WAT     H157074   1.888   4.428   1.330
18944WAT     H257075   1.808   4.554   1.265
18945WAT      O57076   0.562   1.214   0.034
18945WAT     H157077   0.524   1.127   0.066
18945WAT     H257078   0.559   1.216  -0.066
18946WAT      O57079   3.049   4.126   8.568
18946WAT     H157080   3.000   4.039   8.568
18946WAT     H257081   3.022   4.180   8.488
18947WAT      O57082   5.843   1.084   0.387
18947WAT     H157083   5.753   1.047   0.412
18947WAT     H257084   5.840   1.116   0.292
18948WAT      O57085   7.896   3.130   9.778
18948WAT     H157086   7.914   3.045   9.729
18948WAT     H257087   7.967   3.146   9.847
18949WAT      O57088   5.757   8.073   8.657
18949WAT     H157089   5.823   8.148   8.655
18949WAT     H257090   5.803   7.988   8.682
18950WAT      O57091   5.279   2.282   6.603
18950WAT     H157092   5.242   2.327   6.684
18950WAT     H257093   5.372   2.314   6.586
18951WAT      O57094   8.388   5.289   2.919
18951WAT     H157095   8.432   5.257   2.835
18951WAT     H257096   8.450   5.278   2.996
18952WAT      O57097   9.276   0.985   4.435
18952WAT     H157098   9.268   1.039   4.519
18952WAT     H257099   9.263   1.043   4.355
18953WAT      O57100   1.244   3.354   7.710
18953WAT     H157101   1.186   3.434   7.695
18953WAT     H257102   1.284   3.325   7.623
18954WAT      O57103   0.354   8.037   6.444
18954WAT     H157104   0.351   8.044   6.345
18954WAT     H257105   0.336   8.127   6.485
18955WAT      O57106   8.770   1.427   6.605
18955WAT     H157107   8.771   1.524   6.628
18955WAT     H257108   8.831   1.377   6.666
18956WAT      O57109   1.036   4.585   3.264
18956WAT     H157110   1.048   4.491   3.231
18956WAT     H257111   1.008   4.582   3.360
18957WAT      O57112   4.263   4.635   8.425
18957WAT     H157113   4.249   4.676   8.335
18957WAT     H257114   4.289   4.539   8.414
18958WAT      O57115   3.712   7.847   7.151
18958WAT     H157116   3.767   7.864   7.070
18958WAT     H257117   3.761   7.880   7.232
18959WAT      O57118   9.015   7.994   9.014
18959WAT     H157119   8.966   8.081   9.001
18959WAT     H257120   8.972   7.942   9.087
18960WAT      O57121   6.120   9.403   7.322
18960WAT     H157122   6.206   9.405   7.373
18960WAT     H257123   6.054   9.346   7.370
18961WAT      O57124   7.196   2.653   9.744
18961WAT     H157125   7.154   2.605   9.821
18961WAT     H257126   7.291   2.623   9.733
18962WAT      O57127   2.260   7.441   7.979
18962WAT     H157128   2.297   7.393   8.059
18962WAT     H257129   2.166   7.470   7.998
18963WAT      O57130   1.215   0.706   9.134
18963WAT     H157131   1.216   0.800   9.169
18963WAT     H257132   1.298   0.659   9.165
18964WAT      O57133   8.353   4.272   9.836
18964WAT     H157134   8.354   4.336   9.759
18964WAT     H257135   8.284   4.201   9.820
18965WAT      O57136   0.351   0.477   5.801
18965WAT     H157137   0.438   0.497   5.845
18965WAT     H257138   0.305   0.404   5.851
18966WAT      O57139   6.041   7.168   6.920
18966WAT     H157140   6.078   7.087   6.874
18966WAT     H257141   6.053   7.248   6.861
18967WAT      O57142   7.716   4.752   0.620
18967WAT     H157143   7.768   4.783   0.540
18967WAT     H257144   7.619   4.755   0.599
18968WAT      O57145   8.140   4.483   9.099
18968WAT     H157146   8.163   4.551   9.169
18968WAT     H257147   8.079   4.414   9.138
18969WAT      O57148   4.871   8.318   8.476
18969WAT     H157149   4.798   8.262   8.513
18969WAT     H257150   4.951   8.260   8.458
18970WAT      O57151   6.167   8.225   2.414
18970WAT     H157152   6.076   8.189   2.395
18970WAT     H257153   6.236   8.162   2.379
18971WAT      O57154   7.728   8.711   0.626
18971WAT     H157155   7.647   8.743   0.577
18971WAT     H257156   7.730   8.753   0.716
18972WAT      O57157   8.784   6.764   3.924
18972WAT     H157158   8.850   6.838   3.930
18972WAT     H257159   8.697   6.799   3.890
18973WAT      O57160   1.815   5.599   7.570
18973WAT     H157161   1.904   5.593   7.525
18973WAT     H257162   1.747   5.548   7.518
18974WAT      O57163   4.402   9.479   6.992
18974WAT     H157164   4.497   9.451   7.002
18974WAT     H257165   4.359   9.428   6.918
18975WAT      O57166   5.316   2.217   1.117
18975WAT     H157167   5.296   2.314   1.135
18975WAT     H257168   5.263   2.161   1.180
18976WAT      O57169   5.826   0.927   7.238
18976WAT     H157170   5.901   0.876   7.280
18976WAT     H257171   5.834   0.923   7.138
18977WAT      O57172   5.029   5.419   8.865
18977WAT     H157173   5.029   5.513   8.899
18977WAT     H257174   5.105   5.408   8.801
18978WAT      O57175   8.425   8.447   2.213
18978WAT     H157176   8.448   8.416   2.305
18978WAT     H257177   8.327   8.434   2.197
18979WAT      O57178   5.803   7.912   4.148
18979WAT     H157179   5.868   7.987   4.143
18979WAT     H257180   5.852   7.825   4.138
18980WAT      O57181   4.496   2.789   0.335
18980WAT     H157182   4.596   2.798   0.339
18980WAT     H257183   4.456   2.876   0.307
18981WAT      O57184   0.213   9.463   0.513
18981WAT     H157185   0.214   9.556   0.549
18981WAT     H257186   0.124   9.443   0.473
18982WAT      O57187   4.491   1.209   0.074
18982WAT     H157188   4.518   1.218  -0.022
18982WAT     H257189   4.490   1.299   0.117
18983WAT      O57190   7.229   9.310   7.720
18983WAT     H157191   7.285   9.390   7.743
18983WAT     H257192   7.140   9.318   7.763
18984WAT      O57193   6.336   9.763   8.996
18984WAT     H157194   6.337   9.798   9.090
18984WAT     H257195   6.425   9.726   8.973
18985WAT      O57196   7.868   6.751   0.334
18985WAT     H157197   7.906   6.659   0.337
18985WAT     H257198   7.845   6.774   0.239
18986WAT      O57199   8.703   7.868   6.533
18986WAT     H157200   8.675   7.786   6.583
18986WAT     H257201   8.630   7.935   6.535
18987WAT      O57202   0.002   2.516   8.558
18987WAT     H157203   0.096   2.552   8.567
18987WAT     H257204   0.005   2.416   8.552
18988WAT      O57205   4.964   2.214   4.807
18988WAT     H157206   5.038   2.232   4.742
18988WAT     H257207   4.907   2.295   4.816
18989WAT      O57208   7.300   2.854   2.059
18989WAT     H157209   7.373   2.847   2.127
18989WAT     H257210   7.247   2.937   2.075
18990WAT      O57211   2.999   1.356   9.106
18990WAT     H157212   3.033   1.265   9.083
18990WAT     H257213   3.050   1.392   9.184
18991WAT      O57214   5.363   3.605   6.696
18991WAT     H157215   5.427   3.659   6.641
18991WAT     H257216   5.277   3.594   6.647
18992WAT      O57217   9.515   6.870   8.784
18992WAT     H157218   9.420   6.901   8.789
18992WAT     H257219   9.576   6.941   8.820
18993WAT      O57220   3.082   2.000   5.674
18993WAT     H157221   2.984   1.982   5.683
18993WAT     H257222   3.103   2.089   5.714
18994WAT      O57223   8.326   7.682   1.813
18994WAT     H157224   8.301   7.620   1.887
18994WAT     H257225   8.376   7.632   1.742
18995WAT      O57226   0.799   1.317   0.097
18995WAT     H157227   0.860   1.241   0.075
18995WAT     H257228   0.704   1.285   0.094
18996WAT      O57229   5.944   1.066   5.108
18996WAT     H157230   5.985   0.994   5.163
18996WAT     H257231   5.965   1.155   5.148
18997WAT      O57232   1.234   8.097   7.793
18997WAT     H157233   1.213   8.087   7.890
18997WAT     H257234   1.314   8.156   7.783
18998WAT      O57235   5.825   3.389   3.715
18998WAT     H157236   5.842   3.312   3.654
18998WAT     H257237   5.912   3.433   3.739
18999WAT      O57238   3.826   8.337   4.178
18999WAT     H157239   3.772   8.287   4.111
18999WAT     H257240   3.764   8.382   4.243
19000WAT      O57241   1.075   8.368   7.995
19000WAT     H157242   1.103   8.428   8.070
19000WAT     H257243   1.109   8.276   8.012
19001WAT      O57244   0.374   6.739   7.592
19001WAT     H157245   0.435   6.662   7.575
19001WAT     H257246   0.294   6.707   7.642
19002WAT      O57247   5.401   6.979   6.275
19002WAT     H157248   5.324   6.962   6.336
19002WAT     H257249   5.486   6.967   6.326
19003WAT      O57250   4.813   6.640   8.202
19003WAT     H157251   4.890   6.704   8.198
19003WAT     H257252   4.759   6.658   8.283
19004WAT      O57253   0.019   4.390   7.958
19004WAT     H157254  -0.079   4.373   7.966
19004WAT     H257255   0.050   4.365   7.866
19005WAT      O57256   6.145   2.843   3.081
19005WAT     H157257   6.200   2.926   3.079
19005WAT     H257258   6.050   2.866   3.060
19006WAT      O57259   6.837   4.316   0.847
19006WAT     H157260   6.823   4.414   0.859
19006WAT     H257261   6.840   4.294   0.749
19007WAT      O57262   7.121   9.728   2.007
19007WAT     H157263   7.022   9.739   2.002
19007WAT     H257264   7.146   9.686   2.095
19008WAT      O57265   4.055   4.437   8.541
19008WAT     H157266   4.120   4.512   8.532
19008WAT     H257267   3.962   4.474   8.541
19009WAT      O57268   3.678   6.204   7.786
19009WAT     H157269   3.756   6.148   7.816
19009WAT     H257270   3.699   6.245   7.698
19010WAT      O57271   3.811   4.937   2.657
19010WAT     H157272   3.747   4.922   2.733
19010WAT     H257273   3.896   4.888   2.676
19011WAT      O57274   5.450   1.707   0.286
19011WAT     H157275   5.409   1.754   0.365
19011WAT     H257276   5.550   1.708   0.296
19012WAT      O57277   4.818   1.739   0.366
19012WAT     H157278   4.795   1.682   0.444
19012WAT     H257279   4.838   1.832   0.398
19013WAT      O57280   6.827   8.027   1.587
19013WAT     H157281   6.831   7.956   1.517
19013WAT     H257282   6.731   8.044   1.610
19014WAT      O57283   4.231   1.283   2.975
19014WAT     H157284   4.254   1.378   2.995
19014WAT     H257285   4.192   1.240   3.056
19015WAT      O57286   5.869   6.469   5.042
19015WAT     H157287   5.907   6.561   5.032
19015WAT     H257288   5.783   6.463   4.992
19016WAT      O57289   2.625   8.147   3.011
19016WAT     H157290   2.700   8.129   3.074
19016WAT     H257291   2.618   8.245   2.994
19017WAT      O57292   5.154   1.632   4.906
19017WAT     H157293   5.129   1.687   4.826
19017WAT     H257294   5.080   1.634   4.973
19018WAT      O57295   1.870   1.777   9.265
19018WAT     H157296   1.941   1.706   9.266
19018WAT     H257297   1.788   1.743   9.312
19019WAT      O57298   4.681   9.728   3.325
19019WAT     H157299   4.773   9.762   3.304
19019WAT     H257300   4.682   9.683   3.414
19020WAT      O57301   8.058   2.894   5.053
19020WAT     H157302   8.123   2.873   4.980
19020WAT     H257303   8.057   2.993   5.069
19021WAT      O57304   0.246   5.608   3.861
19021WAT     H157305   0.237   5.567   3.952
19021WAT     H257306   0.297   5.546   3.801
19022WAT      O57307   0.611   1.599   4.124
19022WAT     H157308   0.660   1.617   4.038
19022WAT     H257309   0.529   1.656   4.127
19023WAT      O57310   2.331   1.969   9.733
19023WAT     H157311   2.261   2.026   9.692
19023WAT     H257312   2.293   1.920   9.812
19024WAT      O57313   6.921   0.561   4.198
19024WAT     H157314   6.948   0.656   4.216
19024WAT     H257315   6.970   0.501   4.261
19025WAT      O57316   6.084   7.843   9.207
19025WAT     H157317   6.026   7.919   9.236
19025WAT     H257318   6.085   7.838   9.107
19026WAT      O57319   9.398   3.610   1.711
19026WAT     H157320   9.433   3.520   1.735
19026WAT     H257321   9.422   3.630   1.616
19027WAT      O57322   3.961   1.552   0.773
19027WAT     H157323   3.877   1.536   0.723
19027WAT     H257324   3.989   1.469   0.821
19028WAT      O57325   1.914   5.246   8.492
19028WAT     H157326   1.845   5.279   8.557
19028WAT     H257327   2.005   5.267   8.527
19029WAT      O57328   4.565   5.878   6.178
19029WAT     H157329   4.613   5.834   6.254
19029WAT     H257330   4.632   5.907   6.109
19030WAT      O57331   9.132   4.596   0.887
19030WAT     H157332   9.226   4.584   0.917
19030WAT     H257333   9.093   4.507   0.861
19031WAT      O57334   7.896   6.427   7.411
19031WAT     H157335   7.921   6.408   7.505
19031WAT     H257336   7.869   6.342   7.365
19032WAT      O57337   3.602   1.005   5.033
19032WAT     H157338   3.594   0.918   5.081
19032WAT     H257339   3.531   1.010   4.962
19033WAT      O57340   3.311   3.883   1.877
19033WAT     H157341   3.328   3.831   1.794
19033WAT     H257342   3.316   3.981   1.856
19034WAT      O57343   6.095   1.031   6.562
19034WAT     H157344   6.130   1.048   6.470
19034WAT     H257345   6.146   0.956   6.604
19035WAT      O57346   7.167   6.182   1.665
19035WAT     H157347   7.229   6.105   1.680
19035WAT     H257348   7.162   6.202   1.568
19036WAT      O57349   8.602   5.674   5.663
19036WAT     H157350   8.512   5.690   5.624
19036WAT     H257351   8.610   5.724   5.749
19037WAT      O57352   7.891   1.581   5.063
19037WAT     H157353   7.966   1.595   4.997
19037WAT     H257354   7.926   1.591   5.156
19038WAT      O57355   2.710   9.604   3.898
19038WAT     H157356   2.659   9.520   3.916
19038WAT     H257357   2.764   9.628   3.978
19039WAT      O57358   1.090   5.899   9.124
19039WAT     H157359   1.031   5.863   9.196
19039WAT     H257360   1.056   5.987   9.092
19040WAT      O57361   5.476   0.836   1.380
19040WAT     H157362   5.560   0.815   1.330
19040WAT     H257363   5.456   0.762   1.444
19041WAT      O57364   0.940   9.450   9.868
19041WAT     H157365   0.941   9.377   9.800
19041WAT     H257366   0.879   9.523   9.838
19042WAT      O57367   5.432   5.136   1.668
19042WAT     H157368   5.410   5.041   1.690
19042WAT     H257369   5.409   5.195   1.745
19043WAT      O57370   8.851   1.599   1.339
19043WAT     H157371   8.875   1.557   1.426
19043WAT     H257372   8.761   1.642   1.347
19044WAT      O57373   7.515   5.010   6.018
19044WAT     H157374   7.482   5.009   6.113
19044WAT     H257375   7.593   4.949   6.009
19045WAT      O57376   3.472   1.059   8.739
19045WAT     H157377   3.391   1.090   8.689
19045WAT     H257378   3.529   1.137   8.763
19046WAT      O57379   0.883   2.467   7.478
19046WAT     H157380   0.808   2.434   7.421
19046WAT     H257381   0.932   2.389   7.518
19047WAT      O57382   0.752   4.877   1.124
19047WAT     H157383   0.787   4.971   1.133
19047WAT     H257384   0.700   4.869   1.039
19048WAT      O57385   9.784   4.152   9.224
19048WAT     H157386   9.801   4.054   9.218
19048WAT     H257387   9.713   4.170   9.291
19049WAT      O57388   2.568   8.238   5.011
19049WAT     H157389   2.495   8.209   5.073
19049WAT     H257390   2.541   8.322   4.964
19050WAT      O57391   8.227   6.513   2.763
19050WAT     H157392   8.238   6.414   2.759
19050WAT     H257393   8.276   6.555   2.686
19051WAT      O57394   9.688   9.511   9.076
19051WAT     H157395   9.751   9.544   9.146
19051WAT     H257396   9.608   9.571   9.072
19052WAT      O57397   4.346   9.363   2.864
19052WAT     H157398   4.433   9.322   2.889
19052WAT     H257399   4.275   9.293   2.862
19053WAT      O57400   2.430   3.653   7.955
19053WAT     H157401   2.392   3.726   7.897
19053WAT     H257402   2.528   3.645   7.938
19054WAT      O57403   7.836   9.739   2.191
19054WAT     H157404   7.858   9.642   2.201
19054WAT     H257405   7.915   9.794   2.220
19055WAT      O57406   9.332   7.398   8.974
19055WAT     H157407   9.287   7.446   9.049
19055WAT     H257408   9.278   7.317   8.949
19056WAT      O57409   0.110   6.132   1.769
19056WAT     H157410   0.194   6.085   1.743
19056WAT     H257411   0.037   6.065   1.782
19057WAT      O57412   1.330   5.377   2.520
19057WAT     H157413   1.312   5.354   2.424
19057WAT     H257414   1.327   5.476   2.531
19058WAT      O57415   8.018   6.534   8.203
19058WAT     H157416   8.112   6.564   8.189
19058WAT     H257417   7.991   6.550   8.298
19059WAT      O57418   4.306   4.436   2.942
19059WAT     H157419   4.263   4.521   2.912
19059WAT     H257420   4.236   4.372   2.971
19060WAT      O57421   6.378   8.134   2.975
19060WAT     H157422   6.393   8.061   3.041
19060WAT     H257423   6.377   8.222   3.022
19061WAT      O57424   9.171   0.325   3.055
19061WAT     H157425   9.269   0.342   3.070
19061WAT     H257426   9.155   0.228   3.042
19062WAT      O57427   2.655   9.513   2.278
19062WAT     H157428   2.669   9.612   2.281
19062WAT     H257429   2.741   9.469   2.250
19063WAT      O57430   2.981   2.835   0.600
19063WAT     H157431   3.026   2.800   0.517
19063WAT     H257432   2.893   2.789   0.613
19064WAT      O57433   3.171   1.119   8.637
19064WAT     H157434   3.144   1.058   8.712
19064WAT     H257435   3.093   1.134   8.576
19065WAT      O57436   3.113   2.840   3.431
19065WAT     H157437   3.022   2.799   3.438
19065WAT     H257438   3.175   2.777   3.384
19066WAT      O57439   8.459   3.116   5.714
19066WAT     H157440   8.427   3.073   5.799
19066WAT     H257441   8.552   3.150   5.727
19067WAT      O57442   9.888   2.746   7.363
19067WAT     H157443   9.880   2.731   7.265
19067WAT     H257444   9.878   2.659   7.411
19068WAT      O57445   5.583   6.751   9.141
19068WAT     H157446   5.682   6.743   9.128
19068WAT     H257447   5.562   6.842   9.177
19069WAT      O57448   8.373   5.450   8.530
19069WAT     H157449   8.323   5.387   8.590
19069WAT     H257450   8.374   5.541   8.572
19070WAT      O57451   0.519   3.934   6.371
19070WAT     H157452   0.534   3.841   6.335
19070WAT     H257453   0.435   3.935   6.425
19071WAT      O57454   2.479   2.291   1.663
19071WAT     H157455   2.453   2.211   1.717
19071WAT     H257456   2.399   2.350   1.651
19072WAT      O57457   2.521   0.449   2.389
19072WAT     H157458   2.450   0.495   2.336
19072WAT     H257459   2.602   0.507   2.393
19073WAT      O57460   6.243   1.974   8.569
19073WAT     H157461   6.167   1.911   8.552
19073WAT     H257462   6.288   1.951   8.655
19074WAT      O57463   0.694   8.901   7.888
19074WAT     H157464   0.619   8.862   7.942
19074WAT     H257465   0.781   8.875   7.929
19075WAT      O57466   4.994   6.586   5.159
19075WAT     H157467   5.001   6.505   5.218
19075WAT     H257468   5.050   6.660   5.198
19076WAT      O57469   2.849   7.494   2.655
19076WAT     H157470   2.881   7.463   2.566
19076WAT     H257471   2.898   7.578   2.681
19077WAT      O57472   3.972   5.218   9.777
19077WAT     H157473   3.943   5.187   9.687
19077WAT     H257474   3.898   5.205   9.843
19078WAT      O57475   9.807   1.981   4.387
19078WAT     H157476   9.739   1.971   4.459
19078WAT     H257477   9.782   1.922   4.309
19079WAT      O57478   1.471   4.578   1.367
19079WAT     H157479   1.384   4.576   1.317
19079WAT     H257480   1.467   4.514   1.443
19080WAT      O57481   7.360   0.959   5.519
19080WAT     H157482   7.332   1.026   5.451
19080WAT     H257483   7.458   0.939   5.510
19081WAT      O57484   4.241   5.792   9.510
19081WAT     H157485   4.183   5.854   9.564
19081WAT     H257486   4.258   5.832   9.420
19082WAT      O57487   3.817   1.383   6.126
19082WAT     H157488   3.744   1.419   6.068
19082WAT     H257489   3.870   1.315   6.075
19083WAT      O57490   9.684   1.963   6.444
19083WAT     H157491   9.681   1.880   6.500
19083WAT     H257492   9.625   1.951   6.364
19084WAT      O57493   6.219   6.357   8.401
19084WAT     H157494   6.270   6.273   8.381
19084WAT     H257495   6.130   6.333   8.442
19085WAT      O57496   7.987   5.939   0.869
19085WAT     H157497   7.911   5.935   0.933
19085WAT     H257498   8.062   5.882   0.901
19086WAT      O57499   8.969   7.819   2.416
19086WAT     H157500   8.970   7.804   2.317
19086WAT     H257501   8.874   7.825   2.448
19087WAT      O57502   3.259   4.810   0.245
19087WAT     H157503   3.342   4.761   0.222
19087WAT     H257504   3.186   4.784   0.182
19088WAT      O57505   2.963   4.620   3.817
19088WAT     H157506   3.032   4.547   3.818
19088WAT     H257507   2.980   4.680   3.739
19089WAT      O57508   5.810   2.828   6.761
19089WAT     H157509   5.802   2.732   6.787
19089WAT     H257510   5.735   2.881   6.802
19090WAT      O57511   5.658   3.683   4.447
19090WAT     H157512   5.688   3.597   4.488
19090WAT     H257513   5.614   3.665   4.359
19091WAT      O57514   4.422   0.704   2.437
19091WAT     H157515   4.389   0.792   2.405
19091WAT     H257516   4.516   0.691   2.405
19092WAT      O57517   1.292   5.660   1.130
19092WAT     H157518   1.376   5.681   1.180
19092WAT     H257519   1.314   5.615   1.043
19093WAT      O57520   1.471   4.393   1.579
19093WAT     H157521   1.387   4.392   1.633
19093WAT     H257522   1.518   4.305   1.589
19094WAT      O57523   8.305   9.305   2.992
19094WAT     H157524   8.288   9.270   2.900
19094WAT     H257525   8.359   9.389   2.986
19095WAT      O57526   7.319   5.487   8.978
19095WAT     H157527   7.269   5.545   8.914
19095WAT     H257528   7.255   5.448   9.044
19096WAT      O57529   7.880   7.491   4.692
19096WAT     H157530   7.852   7.415   4.633
19096WAT     H257531   7.841   7.576   4.656
19097WAT      O57532   0.677   4.826   8.935
19097WAT     H157533   0.716   4.762   9.001
19097WAT     H257534   0.742   4.838   8.859
19098WAT      O57535   0.677   7.311   2.003
19098WAT     H157536   0.729   7.227   1.987
19098WAT     H257537   0.596   7.290   2.057
19099WAT      O57538   6.240   4.533   9.651
19099WAT     H157539   6.249   4.630   9.673
19099WAT     H257540   6.244   4.479   9.735
19100WAT      O57541   4.000   7.858   9.787
19100WAT     H157542   4.087   7.830   9.747
19100WAT     H257543   3.928   7.854   9.717
19101WAT      O57544   6.873   2.562   5.558
19101WAT     H157545   6.924   2.647   5.569
19101WAT     H257546   6.832   2.537   5.646
19102WAT      O57547   8.293   2.141   5.894
19102WAT     H157548   8.355   2.073   5.854
19102WAT     H257549   8.210   2.146   5.838
19103WAT      O57550   0.327   8.922   3.592
19103WAT     H157551   0.362   8.959   3.506
19103WAT     H257552   0.244   8.869   3.574
19104WAT      O57553   7.658   6.575   3.432
19104WAT     H157554   7.714   6.538   3.505
19104WAT     H257555   7.715   6.589   3.350
19105WAT      O57556   2.938   0.377   7.794
19105WAT     H157557   2.902   0.465   7.762
19105WAT     H257558   2.962   0.384   7.891
19106WAT      O57559   3.338   8.004   5.529
19106WAT     H157560   3.258   7.952   5.499
19106WAT     H257561   3.316   8.053   5.614
19107WAT      O57562   3.650   2.682   6.727
19107WAT     H157563   3.654   2.582   6.724
19107WAT     H257564   3.623   2.717   6.638
19108WAT      O57565   0.597   7.678   6.413
19108WAT     H157566   0.594   7.747   6.341
19108WAT     H257567   0.514   7.622   6.409
19109WAT      O57568   3.915   2.878   9.142
19109WAT     H157569   3.960   2.965   9.121
19109WAT     H257570   3.984   2.811   9.171
19110WAT      O57571   4.738   1.397   8.595
19110WAT     H157572   4.732   1.297   8.588
19110WAT     H257573   4.817   1.422   8.650
19111WAT      O57574   0.245   5.614   6.977
19111WAT     H157575   0.209   5.559   7.053
19111WAT     H257576   0.339   5.640   6.997
19112WAT      O57577   8.441   2.918   4.175
19112WAT     H157578   8.356   2.952   4.216
19112WAT     H257579   8.515   2.922   4.243
19113WAT      O57580   2.090   4.749   4.926
19113WAT     H157581   2.120   4.662   4.965
19113WAT     H257582   2.037   4.732   4.843
19114WAT      O57583   2.176   8.615   9.399
19114WAT     H157584   2.205   8.706   9.368
19114WAT     H257585   2.256   8.563   9.429
19115WAT      O57586   1.267   3.727   0.406
19115WAT     H157587   1.308   3.813   0.436
19115WAT     H257588   1.339   3.659   0.394
19116WAT      O57589   8.456   6.036   0.509
19116WAT     H157590   8.463   5.936   0.503
19116WAT     H257591   8.385   6.060   0.575
19117WAT      O57592   7.114   4.499   9.472
19117WAT     H157593   7.019   4.499   9.440
19117WAT     H257594   7.173   4.530   9.398
19118WAT      O57595   4.831   2.446   5.119
19118WAT     H157596   4.765   2.376   5.092
19118WAT     H257597   4.788   2.536   5.111
19119WAT      O57598   3.735   7.546   5.541
19119WAT     H157599   3.820   7.515   5.497
19119WAT     H257600   3.678   7.466   5.561
19120WAT      O57601   0.727   6.743   8.343
19120WAT     H157602   0.783   6.759   8.262
19120WAT     H257603   0.690   6.829   8.376
19121WAT      O57604   3.089   0.507   1.239
19121WAT     H157605   2.996   0.541   1.227
19121WAT     H257606   3.138   0.565   1.304
19122WAT      O57607   6.899   3.584   3.849
19122WAT     H157608   6.817   3.621   3.806
19122WAT     H257609   6.901   3.485   3.838
19123WAT      O57610   6.474   7.414   7.974
19123WAT     H157611   6.456   7.475   8.052
19123WAT     H257612   6.458   7.464   7.889
19124WAT      O57613   9.247   6.913   8.801
19124WAT     H157614   9.269   6.843   8.868
19124WAT     H257615   9.225   6.870   8.713
19125WAT      O57616   3.899   1.357   6.896
19125WAT     H157617   3.915   1.456   6.897
19125WAT     H257618   3.801   1.340   6.888
19126WAT      O57619   4.285   5.465   2.891
19126WAT     H157620   4.350   5.428   2.958
19126WAT     H257621   4.285   5.565   2.897
19127WAT      O57622   0.396   3.153   8.377
19127WAT     H157623   0.312   3.112   8.411
19127WAT     H257624   0.467   3.083   8.371
19128WAT      O57625   0.267   9.792   2.828
19128WAT     H157626   0.226   9.879   2.800
19128WAT     H257627   0.196   9.721   2.832
19129WAT      O57628   9.404   3.324   0.799
19129WAT     H157629   9.389   3.335   0.701
19129WAT     H257630   9.466   3.395   0.832
19130WAT      O57631   1.975   9.340   8.949
19130WAT     H157632   1.887   9.346   8.995
19130WAT     H257633   2.015   9.250   8.966
19131WAT      O57634   4.517   5.920   8.160
19131WAT     H157635   4.511   6.019   8.151
19131WAT     H257636   4.460   5.876   8.090
19132WAT      O57637   7.105   1.234   0.824
19132WAT     H157638   7.182   1.267   0.770
19132WAT     H257639   7.112   1.135   0.837
19133WAT      O57640   5.029   2.818   3.853
19133WAT     H157641   5.064   2.769   3.934
19133WAT     H257642   4.970   2.757   3.801
19134WAT      O57643   6.944   6.906   2.719
19134WAT     H157644   6.921   6.830   2.780
19134WAT     H257645   6.880   6.981   2.733
19135WAT      O57646   7.391   7.118   0.023
19135WAT     H157647   7.438   7.088  -0.060
19135WAT     H257648   7.362   7.037   0.075
19136WAT      O57649   9.103   8.243   0.118
19136WAT     H157650   9.130   8.148   0.098
19136WAT     H257651   9.147   8.304   0.053
19137WAT      O57652   2.836   4.153   5.499
19137WAT     H157653   2.865   4.226   5.438
19137WAT     H257654   2.901   4.145   5.575
19138WAT      O57655   4.484   7.430   4.831
19138WAT     H157656   4.388   7.406   4.818
19138WAT     H257657   4.536   7.402   4.750
19139WAT      O57658   0.288   2.718   2.866
19139WAT     H157659   0.210   2.717   2.804
19139WAT     H257660   0.339   2.804   2.856
19140WAT      O57661   0.518   4.106   2.367
19140WAT     H157662   0.531   4.028   2.428
19140WAT     H257663   0.421   4.129   2.362
19141WAT      O57664   1.799   9.077   5.745
19141WAT     H157665   1.884   9.086   5.693
19141WAT     H257666   1.729   9.036   5.688
19142WAT      O57667   4.067   5.246   8.235
19142WAT     H157668   4.098   5.197   8.316
19142WAT     H257669   4.061   5.184   8.157
19143WAT      O57670   0.151   0.420   1.628
19143WAT     H157671   0.083   0.349   1.649
19143WAT     H257672   0.167   0.476   1.710
19144WAT      O57673   0.729   7.413   6.312
19144WAT     H157674   0.759   7.407   6.407
19144WAT     H257675   0.769   7.495   6.270
19145WAT      O57676   3.930   2.041   6.219
19145WAT     H157677   3.898   1.956   6.177
19145WAT     H257678   3.852   2.097   6.245
19146WAT      O57679   1.332   0.445   1.251
19146WAT     H157680   1.402   0.482   1.190
19146WAT     H257681   1.354   0.468   1.345
19147WAT      O57682   9.334   8.370   3.055
19147WAT     H157683   9.289   8.424   3.126
19147WAT     H257684   9.330   8.418   2.968
19148WAT      O57685   0.703   3.771   4.356
19148WAT     H157686   0.706   3.870   4.343
19148WAT     H257687   0.686   3.750   4.452
19149WAT      O57688   5.412   3.552   4.658
19149WAT     H157689   5.364   3.638   4.642
19149WAT     H257690   5.361   3.477   4.616
19150WAT      O57691   2.887   7.133   2.281
19150WAT     H157692   2.961   7.177   2.229
19150WAT     H257693   2.803   7.185   2.268
19151WAT      O57694   2.520   2.625   4.171
19151WAT     H157695   2.580   2.657   4.244
19151WAT     H257696   2.569   2.629   4.083
19152WAT      O57697   8.939   9.142   7.101
19152WAT     H157698   8.975   9.069   7.159
19152WAT     H257699   8.876   9.199   7.153
19153WAT      O57700   1.649   5.509   2.734
19153WAT     H157701   1.641   5.497   2.635
19153WAT     H257702   1.682   5.424   2.776
19154WAT      O57703   1.155   1.716   8.368
19154WAT     H157704   1.240   1.702   8.319
19154WAT     H257705   1.156   1.661   8.452
19155WAT      O57706   9.874   3.514   2.545
19155WAT     H157707   9.798   3.520   2.610
19155WAT     H257708   9.930   3.434   2.566
19156WAT      O57709   5.409   5.637   4.604
19156WAT     H157710   5.421   5.652   4.505
19156WAT     H257711   5.461   5.706   4.654
19157WAT      O57712   7.991   7.807   9.077
19157WAT     H157713   7.964   7.899   9.104
19157WAT     H257714   7.937   7.740   9.127
19158WAT      O57715   3.731   1.063   5.291
19158WAT     H157716   3.741   1.091   5.195
19158WAT     H257717   3.782   1.127   5.349
19159WAT      O57718   2.360   4.263   7.560
19159WAT     H157719   2.280   4.292   7.507
19159WAT     H257720   2.396   4.178   7.521
19160WAT      O57721   0.553   0.545   3.439
19160WAT     H157722   0.596   0.455   3.432
19160WAT     H257723   0.507   0.553   3.528
19161WAT      O57724   5.027   9.207   2.172
19161WAT     H157725   5.118   9.166   2.169
19161WAT     H257726   4.958   9.135   2.181
19162WAT      O57727   7.990   6.349   2.431
19162WAT     H157728   7.908   6.322   2.481
19162WAT     H257729   7.989   6.306   2.340
19163WAT      O57730   5.063   5.628   3.843
19163WAT     H157731   5.001   5.706   3.852
19163WAT     H257732   5.147   5.658   3.799
19164WAT      O57733   1.755   3.895   8.603
19164WAT     H157734   1.818   3.827   8.640
19164WAT     H257735   1.750   3.885   8.503
19165WAT      O57736   5.891   4.649   6.030
19165WAT     H157737   5.795   4.643   6.002
19165WAT     H257738   5.898   4.639   6.129
19166WAT      O57739   2.027   6.002   9.404
19166WAT     H157740   2.058   6.071   9.470
19166WAT     H257741   2.034   6.038   9.311
19167WAT      O57742   1.362   4.317   4.726
19167WAT     H157743   1.309   4.246   4.771
19167WAT     H257744   1.302   4.393   4.700
19168WAT      O57745   1.855   6.132   1.663
19168WAT     H157746   1.774   6.180   1.630
19168WAT     H257747   1.937   6.172   1.623
19169WAT      O57748   0.862   0.826   3.206
19169WAT     H157749   0.780   0.883   3.201
19169WAT     H257750   0.837   0.730   3.190
19170WAT      O57751   1.845   0.252   6.535
19170WAT     H157752   1.804   0.344   6.533
19170WAT     H257753   1.926   0.252   6.592
19171WAT      O57754   3.240   4.490   7.880
19171WAT     H157755   3.334   4.502   7.911
19171WAT     H257756   3.202   4.579   7.853
19172WAT      O57757   6.273   5.902   0.393
19172WAT     H157758   6.357   5.948   0.363
19172WAT     H257759   6.193   5.953   0.361
19173WAT      O57760   3.843   0.309   4.966
19173WAT     H157761   3.932   0.299   5.011
19173WAT     H257762   3.832   0.403   4.935
19174WAT      O57763   3.446   3.334   7.553
19174WAT     H157764   3.535   3.370   7.524
19174WAT     H257765   3.415   3.384   7.633
19175WAT      O57766   9.409   7.453   1.118
19175WAT     H157767   9.447   7.457   1.211
19175WAT     H257768   9.448   7.526   1.063
19176WAT      O57769   6.229   1.485   6.030
19176WAT     H157770   6.133   1.461   6.048
19176WAT     H257771   6.245   1.483   5.931
19177WAT      O57772   8.063   6.190   6.053
19177WAT     H157773   8.144   6.223   6.101
19177WAT     H257774   7.985   6.248   6.075
19178WAT      O57775   5.722   3.451   6.529
19178WAT     H157776   5.723   3.546   6.560
19178WAT     H257777   5.672   3.395   6.596
19179WAT      O57778   1.438   4.123   1.411
19179WAT     H157779   1.441   4.023   1.405
19179WAT     H257780   1.428   4.162   1.320
19180WAT      O57781   8.241   2.798   2.541
19180WAT     H157782   8.209   2.767   2.630
19180WAT     H257783   8.248   2.898   2.541
19181WAT      O57784   5.177   8.430   5.537
19181WAT     H157785   5.125   8.349   5.565
19181WAT     H257786   5.253   8.444   5.601
19182WAT      O57787   9.544   9.750   5.493
19182WAT     H157788   9.495   9.796   5.419
19182WAT     H257789   9.484   9.740   5.572
19183WAT      O57790   8.378   2.790   6.600
19183WAT     H157791   8.312   2.719   6.625
19183WAT     H257792   8.451   2.792   6.668
19184WAT      O57793   2.446   6.927   6.382
19184WAT     H157794   2.416   7.005   6.326
19184WAT     H257795   2.441   6.844   6.328
19185WAT      O57796   5.539   6.529   3.987
19185WAT     H157797   5.481   6.460   4.030
19185WAT     H257798   5.485   6.580   3.920
19186WAT      O57799   4.293   2.844   6.111
19186WAT     H157800   4.279   2.892   6.197
19186WAT     H257801   4.255   2.898   6.036
19187WAT      O57802   8.469   0.006   6.957
19187WAT     H157803   8.409  -0.051   6.902
19187WAT     H257804   8.557   0.019   6.910
19188WAT      O57805   0.473   8.088   5.149
19188WAT     H157806   0.373   8.078   5.149
19188WAT     H257807   0.496   8.185   5.157
19189WAT      O57808   2.745   3.904   7.076
19189WAT     H157809   2.776   3.847   7.152
19189WAT     H257810   2.654   3.875   7.047
19190WAT      O57811   2.957   9.090   9.653
19190WAT     H157812   2.996   9.161   9.713
19190WAT     H257813   3.028   9.058   9.590
19191WAT      O57814   9.036   4.656   4.549
19191WAT     H157815   8.959   4.719   4.538
19191WAT     H257816   9.021   4.575   4.492
19192WAT      O57817   3.597   7.089   5.751
19192WAT     H157818   3.593   7.073   5.850
19192WAT     H257819   3.591   7.001   5.703
19193WAT      O57820   3.540   6.590   8.267
19193WAT     H157821   3.508   6.657   8.334
19193WAT     H257822   3.631   6.558   8.293
19194WAT      O57823   1.899   0.860   5.201
19194WAT     H157824   1.810   0.882   5.241
19194WAT     H257825   1.971   0.908   5.252
19195WAT      O57826   2.422   7.900   3.641
19195WAT     H157827   2.440   7.931   3.547
19195WAT     H257828   2.508   7.883   3.688
19196WAT      O57829   8.618   1.645   9.190
19196WAT     H157830   8.661   1.632   9.279
19196WAT     H257831   8.519   1.635   9.199
19197WAT      O57832   9.651   0.336   9.837
19197WAT     H157833   9.707   0.279   9.777
19197WAT     H257834   9.572   0.283   9.868
19198WAT      O57835   9.711   1.324   8.918
19198WAT     H157836   9.803   1.311   8.882
19198WAT     H257837   9.663   1.393   8.864
19199WAT      O57838   2.842   1.761   8.687
19199WAT     H157839   2.811   1.798   8.775
19199WAT     H257840   2.884   1.672   8.701
19200WAT      O57841   2.194   3.370   8.362
19200WAT     H157842   2.289   3.394   8.342
19200WAT     H257843   2.179   3.273   8.343
19201WAT      O57844   9.697   7.496   5.199
19201WAT     H157845   9.679   7.406   5.159
19201WAT     H257846   9.611   7.545   5.212
19202WAT      O57847   1.426   7.247   8.741
19202WAT     H157848   1.422   7.207   8.832
19202WAT     H257849   1.513   7.222   8.698
19203WAT      O57850   8.243   4.562   5.966
19203WAT     H157851   8.279   4.531   6.053
19203WAT     H257852   8.312   4.551   5.895
19204WAT      O57853   9.010   3.607   2.527
19204WAT     H157854   9.012   3.510   2.551
19204WAT     H257855   9.087   3.653   2.572
19205WAT      O57856   6.945   2.404   4.385
19205WAT     H157857   6.970   2.427   4.291
19205WAT     H257858   7.021   2.424   4.446
19206WAT      O57859   8.032   5.060   8.733
19206WAT     H157860   7.976   5.075   8.815
19206WAT     H257861   8.127   5.047   8.761
19207WAT      O57862   1.698   2.955   9.176
19207WAT     H157863   1.759   2.876   9.176
19207WAT     H257864   1.684   2.986   9.082
19208WAT      O57865   5.997   0.555   7.678
19208WAT     H157866   5.982   0.648   7.709
19208WAT     H257867   6.047   0.556   7.591
19209WAT      O57868   9.743   0.746   5.245
19209WAT     H157869   9.717   0.774   5.337
19209WAT     H257870   9.726   0.822   5.181
19210WAT      O57871   7.120   2.781   8.593
19210WAT     H157872   7.196   2.847   8.600
19210WAT     H257873   7.156   2.693   8.564
19211WAT      O57874   8.297   3.665   4.227
19211WAT     H157875   8.384   3.650   4.272
19211WAT     H257876   8.305   3.742   4.163
19212WAT      O57877   6.625   7.638   9.583
19212WAT     H157878   6.578   7.570   9.638
19212WAT     H257879   6.723   7.617   9.580
19213WAT      O57880   1.385   4.246   1.157
19213WAT     H157881   1.314   4.315   1.168
19213WAT     H257882   1.459   4.283   1.100
19214WAT      O57883   5.451   6.722   1.604
19214WAT     H157884   5.468   6.788   1.677
19214WAT     H257885   5.467   6.629   1.638
19215WAT      O57886   1.128   4.960   9.102
19215WAT     H157887   1.194   4.960   9.027
19215WAT     H257888   1.043   5.003   9.072
19216WAT      O57889   1.646   6.519   5.850
19216WAT     H157890   1.550   6.548   5.852
19216WAT     H257891   1.692   6.561   5.772
19217WAT      O57892   8.382   7.571   8.420
19217WAT     H157893   8.388   7.527   8.331
19217WAT     H257894   8.297   7.624   8.426
19218WAT      O57895   7.836   8.147   3.967
19218WAT     H157896   7.905   8.217   3.951
19218WAT     H257897   7.762   8.157   3.901
19219WAT      O57898   5.639   3.409   0.631
19219WAT     H157899   5.592   3.320   0.631
19219WAT     H257900   5.644   3.444   0.724
19220WAT      O57901   0.868   2.392   6.225
19220WAT     H157902   0.920   2.307   6.237
19220WAT     H257903   0.914   2.451   6.159
19221WAT      O57904   5.780   0.191   3.540
19221WAT     H157905   5.833   0.265   3.498
19221WAT     H257906   5.843   0.120   3.572
19222WAT      O57907   1.833   9.140   4.022
19222WAT     H157908   1.772   9.217   4.004
19222WAT     H257909   1.823   9.073   3.948
19223WAT      O57910   1.234   6.899   8.457
19223WAT     H157911   1.224   6.854   8.546
19223WAT     H257912   1.215   6.996   8.466
19224WAT      O57913   2.926   1.627   4.054
19224WAT     H157914   2.840   1.576   4.053
19224WAT     H257915   2.969   1.619   4.144
19225WAT      O57916   6.238   0.195   2.177
19225WAT     H157917   6.207   0.284   2.143
19225WAT     H257918   6.327   0.174   2.136
19226WAT      O57919   6.384   1.202   6.379
19226WAT     H157920   6.460   1.197   6.444
19226WAT     H257921   6.399   1.278   6.316
19227WAT      O57922   6.378   9.638   5.082
19227WAT     H157923   6.354   9.594   5.168
19227WAT     H257924   6.397   9.569   5.013
19228WAT      O57925   1.391   3.660   6.352
19228WAT     H157926   1.448   3.693   6.276
19228WAT     H257927   1.382   3.561   6.347
19229WAT      O57928   8.274   8.815   2.583
19229WAT     H157929   8.233   8.846   2.669
19229WAT     H257930   8.269   8.889   2.516
19230WAT      O57931   8.553   3.207   0.151
19230WAT     H157932   8.489   3.272   0.110
19230WAT     H257933   8.510   3.116   0.154
19231WAT      O57934   8.048   4.032   3.059
19231WAT     H157935   8.057   4.093   2.981
19231WAT     H257936   8.117   4.055   3.128
19232WAT      O57937   4.254   2.329   2.260
19232WAT     H157938   4.323   2.258   2.277
19232WAT     H257939   4.189   2.295   2.191
19233WAT      O57940   7.760   1.476   1.431
19233WAT     H157941   7.691   1.475   1.504
19233WAT     H257942   7.720   1.517   1.349
19234WAT      O57943   0.059   1.968   6.069
19234WAT     H157944   0.011   2.056   6.060
19234WAT     H257945   0.048   1.933   6.161
19235WAT      O57946   6.673   4.543   2.626
19235WAT     H157947   6.654   4.613   2.696
19235WAT     H257948   6.746   4.576   2.566
19236WAT      O57949   8.845   8.833   6.994
19236WAT     H157950   8.940   8.847   7.021
19236WAT     H257951   8.832   8.862   6.899
19237WAT      O57952   3.168   8.527   5.603
19237WAT     H157953   3.172   8.433   5.638
19237WAT     H257954   3.073   8.556   5.599
19238WAT      O57955   0.321   1.532   7.416
19238WAT     H157956   0.324   1.445   7.464
19238WAT     H257957   0.306   1.606   7.482
19239WAT      O57958   8.684   7.315   8.018
19239WAT     H157959   8.719   7.326   7.925
19239WAT     H257960   8.585   7.319   8.017
19240WAT      O57961   8.036   9.239   1.999
19240WAT     H157962   8.076   9.152   1.971
19240WAT     H257963   7.936   9.231   2.002
19241WAT      O57964   8.568   8.063   2.912
19241WAT     H157965   8.480   8.088   2.953
19241WAT     H257966   8.564   8.077   2.813
19242WAT      O57967   9.804   5.771   3.704
19242WAT     H157968   9.793   5.705   3.629
19242WAT     H257969   9.791   5.863   3.668
19243WAT      O57970   0.092   6.184   4.240
19243WAT     H157971   0.069   6.282   4.239
19243WAT     H257972   0.010   6.132   4.265
19244WAT      O57973   6.146   9.087   2.865
19244WAT     H157974   6.235   9.133   2.868
19244WAT     H257975   6.081   9.144   2.815
19245WAT      O57976   3.236   2.632   3.046
19245WAT     H157977   3.269   2.623   2.952
19245WAT     H257978   3.158   2.572   3.060
19246WAT      O57979   7.373   0.515   6.290
19246WAT     H157980   7.456   0.459   6.282
19246WAT     H257981   7.393   0.609   6.262
19247WAT      O57982   8.704   6.110   1.837
19247WAT     H157983   8.653   6.026   1.854
19247WAT     H257984   8.788   6.109   1.891
19248WAT      O57985   6.442   7.052   1.965
19248WAT     H157986   6.405   7.011   2.048
19248WAT     H257987   6.434   6.987   1.890
19249WAT      O57988   8.001   8.005   5.403
19249WAT     H157989   8.057   8.041   5.328
19249WAT     H257990   7.975   7.911   5.383
19250WAT      O57991   1.901   0.979   3.979
19250WAT     H157992   1.962   0.966   4.058
19250WAT     H257993   1.811   1.006   4.012
19251WAT      O57994   2.366   3.740   1.471
19251WAT     H157995   2.289   3.686   1.506
19251WAT     H257996   2.430   3.757   1.546
19252WAT      O57997   9.824   6.649   3.400
19252WAT     H157998   9.886   6.597   3.458
19252WAT     H257999   9.756   6.695   3.456
19253WAT      O58000   1.229   8.294   1.242
19253WAT     H158001   1.167   8.220   1.266
19253WAT     H258002   1.275   8.273   1.155
19254WAT      O58003   6.735   1.803   6.071
19254WAT     H158004   6.795   1.780   5.994
19254WAT     H258005   6.697   1.894   6.057
19255WAT      O58006   8.657   6.120   5.312
19255WAT     H158007   8.590   6.089   5.380
19255WAT     H258008   8.736   6.059   5.314
19256WAT      O58009   7.255   9.641   4.143
19256WAT     H158010   7.278   9.710   4.074
19256WAT     H258011   7.169   9.665   4.187
19257WAT      O58012   8.252   5.796   3.857
19257WAT     H158013   8.218   5.851   3.780
19257WAT     H258014   8.203   5.822   3.940
19258WAT      O58015   9.621   5.283   3.949
19258WAT     H158016   9.587   5.326   3.866
19258WAT     H258017   9.703   5.229   3.928
19259WAT      O58018   2.470   2.271   1.236
19259WAT     H158019   2.445   2.336   1.165
19259WAT     H258020   2.495   2.184   1.193
19260WAT      O58021   6.627   0.376   9.384
19260WAT     H158022   6.570   0.450   9.419
19260WAT     H258023   6.618   0.296   9.444
19261WAT      O58024   8.272   4.821   4.688
19261WAT     H158025   8.179   4.792   4.666
19261WAT     H258026   8.312   4.757   4.754
19262WAT      O58027   4.430   9.533   9.169
19262WAT     H158028   4.344   9.560   9.212
19262WAT     H258029   4.503   9.594   9.201
19263WAT      O58030   5.352   9.616   1.844
19263WAT     H158031   5.310   9.706   1.852
19263WAT     H258032   5.284   9.546   1.866
19264WAT      O58033   3.112   7.871   1.716
19264WAT     H158034   3.128   7.772   1.719
19264WAT     H258035   3.014   7.888   1.703
19265WAT      O58036   6.283   5.791   3.007
19265WAT     H158037   6.275   5.869   2.945
19265WAT     H258038   6.360   5.807   3.070
19266WAT      O58039   6.625   8.584   7.120
19266WAT     H158040   6.564   8.513   7.085
19266WAT     H258041   6.712   8.543   7.148
19267WAT      O58042   4.880   7.597   4.559
19267WAT     H158043   4.859   7.599   4.657
19267WAT     H258044   4.885   7.502   4.528
19268WAT      O58045   3.780   0.380   0.407
19268WAT     H158046   3.856   0.377   0.342
19268WAT     H258047   3.701   0.422   0.364
19269WAT      O58048   7.283   1.183   5.910
19269WAT     H158049   7.316   1.277   5.902
19269WAT     H258050   7.340   1.133   5.975
19270WAT      O58051   2.810   0.403   3.504
19270WAT     H158052   2.872   0.399   3.425
19270WAT     H258053   2.716   0.399   3.472
19271WAT      O58054   4.887   6.686   0.347
19271WAT     H158055   4.902   6.597   0.391
19271WAT     H258056   4.887   6.758   0.416
19272WAT      O58057   7.889   4.468   3.157
19272WAT     H158058   7.905   4.553   3.207
19272WAT     H258059   7.846   4.402   3.219
19273WAT      O58060   3.334   0.938   5.623
19273WAT     H158061   3.355   0.851   5.666
19273WAT     H258062   3.325   0.924   5.524
19274WAT      O58063   0.611   3.278   4.215
19274WAT     H158064   0.587   3.188   4.180
19274WAT     H258065   0.710   3.281   4.233
19275WAT      O58066   0.617   7.821   5.899
19275WAT     H158067   0.526   7.798   5.866
19275WAT     H258068   0.644   7.756   5.970
19276WAT      O58069   1.539   2.076   9.780
19276WAT     H158070   1.578   2.144   9.843
19276WAT     H258071   1.478   2.122   9.715
19277WAT      O58072   9.124   4.862   9.000
19277WAT     H158073   9.067   4.810   8.937
19277WAT     H258074   9.135   4.811   9.085
19278WAT      O58075   5.439   0.814   8.226
19278WAT     H158076   5.395   0.888   8.174
19278WAT     H258077   5.399   0.809   8.317
19279WAT      O58078   1.411   2.644   2.203
19279WAT     H158079   1.334   2.708   2.200
19279WAT     H258080   1.378   2.551   2.190
19280WAT      O58081   6.822   7.533   4.372
19280WAT     H158082   6.761   7.475   4.426
19280WAT     H258083   6.768   7.605   4.329
19281WAT      O58084   3.992   6.194   7.475
19281WAT     H158085   3.894   6.205   7.463
19281WAT     H258086   4.027   6.266   7.534
19282WAT      O58087   0.083   5.652   6.780
19282WAT     H158088   0.146   5.657   6.857
19282WAT     H258089   0.105   5.723   6.713
19283WAT      O58090   2.230   2.084   0.544
19283WAT     H158091   2.138   2.119   0.561
19283WAT     H258092   2.232   2.038   0.455
19284WAT      O58093   4.021   4.768   4.556
19284WAT     H158094   4.109   4.787   4.600
19284WAT     H258095   3.996   4.672   4.571
19285WAT      O58096   2.974   9.394   3.750
19285WAT     H158097   2.906   9.438   3.691
19285WAT     H258098   2.981   9.444   3.837
19286WAT      O58099   9.572   3.553   5.582
19286WAT     H158100   9.505   3.483   5.609
19286WAT     H258101   9.656   3.541   5.635
19287WAT      O58102   1.223   4.972   5.541
19287WAT     H158103   1.297   5.038   5.556
19287WAT     H258104   1.158   5.009   5.476
19288WAT      O58105   6.856   2.031   6.580
19288WAT     H158106   6.800   1.952   6.604
19288WAT     H258107   6.806   2.089   6.517
19289WAT      O58108   3.011   4.810   3.437
19289WAT     H158109   3.044   4.821   3.530
19289WAT     H258110   2.916   4.839   3.431
19290WAT      O58111   1.177   0.077   2.038
19290WAT     H158112   1.092   0.028   2.061
19290WAT     H258113   1.171   0.171   2.071
19291WAT      O58114   9.726   3.214   2.702
19291WAT     H158115   9.744   3.234   2.798
19291WAT     H258116   9.663   3.137   2.694
19292WAT      O58117   2.564   2.784   7.444
19292WAT     H158118   2.530   2.850   7.377
19292WAT     H258119   2.660   2.803   7.464
19293WAT      O58120   9.673   1.225   6.558
19293WAT     H158121   9.773   1.231   6.559
19293WAT     H258122   9.638   1.232   6.651
19294WAT      O58123   9.662   2.786   9.009
19294WAT     H158124   9.686   2.831   8.923
19294WAT     H258125   9.710   2.698   9.015
19295WAT      O58126   7.413   6.463   3.486
19295WAT     H158127   7.496   6.519   3.478
19295WAT     H258128   7.402   6.433   3.580
19296WAT      O58129   5.798   8.577   2.391
19296WAT     H158130   5.785   8.649   2.323
19296WAT     H258131   5.895   8.552   2.396
19297WAT      O58132   2.154   7.521   6.380
19297WAT     H158133   2.098   7.454   6.330
19297WAT     H258134   2.249   7.488   6.384
19298WAT      O58135   3.502   5.404   1.796
19298WAT     H158136   3.409   5.440   1.794
19298WAT     H258137   3.500   5.305   1.782
19299WAT      O58138   7.635   1.502   0.415
19299WAT     H158139   7.647   1.531   0.510
19299WAT     H258140   7.583   1.417   0.413
19300WAT      O58141   8.587   0.144   0.477
19300WAT     H158142   8.497   0.113   0.448
19300WAT     H258143   8.591   0.244   0.474
19301WAT      O58144   0.283   7.521   7.134
19301WAT     H158145   0.319   7.427   7.130
19301WAT     H258146   0.184   7.518   7.148
19302WAT      O58147   6.385   6.202   5.529
19302WAT     H158148   6.445   6.192   5.609
19302WAT     H258149   6.290   6.215   5.560
19303WAT      O58150   8.870   0.740   1.751
19303WAT     H158151   8.955   0.702   1.789
19303WAT     H258152   8.811   0.666   1.720
19304WAT      O58153   4.329   8.554   7.477
19304WAT     H158154   4.331   8.514   7.569
19304WAT     H258155   4.239   8.595   7.460
19305WAT      O58156   2.153   9.744   2.341
19305WAT     H158157   2.140   9.737   2.439
19305WAT     H258158   2.078   9.796   2.301
19306WAT      O58159   0.507   3.717   2.868
19306WAT     H158160   0.437   3.687   2.933
19306WAT     H258161   0.523   3.815   2.880
19307WAT      O58162   1.898   2.215   7.009
19307WAT     H158163   1.871   2.234   6.915
19307WAT     H258164   1.890   2.117   7.027
19308WAT      O58165   1.453   7.885   4.096
19308WAT     H158166   1.397   7.813   4.055
19308WAT     H258167   1.550   7.860   4.087
19309WAT      O58168   6.018   0.384   5.881
19309WAT     H158169   6.100   0.414   5.833
19309WAT     H258170   5.977   0.307   5.832
19310WAT      O58171   7.863   3.633   3.655
19310WAT     H158172   7.936   3.700   3.644
19310WAT     H258173   7.797   3.666   3.722
19311WAT      O58174   3.479   0.755   6.897
19311WAT     H158175   3.386   0.727   6.876
19311WAT     H258176   3.526   0.680   6.945
19312WAT      O58177   5.831   8.760   7.585
19312WAT     H158178   5.737   8.725   7.594
19312WAT     H258179   5.872   8.725   7.501
19313WAT      O58180   3.832   6.223   9.742
19313WAT     H158181   3.801   6.305   9.693
19313WAT     H258182   3.896   6.249   9.813
19314WAT      O58183   7.754   4.819   7.445
19314WAT     H158184   7.815   4.740   7.441
19314WAT     H258185   7.803   4.897   7.485
19315WAT      O58186   5.981   6.406   5.301
19315WAT     H158187   5.964   6.481   5.365
19315WAT     H258188   5.932   6.422   5.215
19316WAT      O58189   4.815   7.019   2.585
19316WAT     H158190   4.831   7.046   2.490
19316WAT     H258191   4.820   6.920   2.593
19317WAT      O58192   5.625   6.945   6.397
19317WAT     H158193   5.638   6.969   6.493
19317WAT     H258194   5.708   6.901   6.362
19318WAT      O58195   1.480   2.738   6.276
19318WAT     H158196   1.389   2.777   6.288
19318WAT     H258197   1.484   2.648   6.321
19319WAT      O58198   7.402   2.470   1.851
19319WAT     H158199   7.389   2.389   1.795
19319WAT     H258200   7.314   2.513   1.870
19320WAT      O58201   7.161   9.798   2.963
19320WAT     H158202   7.116   9.709   2.961
19320WAT     H258203   7.146   9.845   2.877
19321WAT      O58204   4.814   6.269   3.087
19321WAT     H158205   4.743   6.332   3.119
19321WAT     H258206   4.889   6.321   3.045
19322WAT      O58207   2.673   6.402   2.135
19322WAT     H158208   2.728   6.389   2.053
19322WAT     H258209   2.731   6.436   2.209
19323WAT      O58210   3.693   9.474   3.121
19323WAT     H158211   3.597   9.489   3.102
19323WAT     H258212   3.749   9.536   3.066
19324WAT      O58213   1.142   6.259   1.614
19324WAT     H158214   1.094   6.194   1.555
19324WAT     H258215   1.092   6.346   1.616
19325WAT      O58216   8.595   0.855   6.909
19325WAT     H158217   8.498   0.877   6.913
19325WAT     H258218   8.647   0.935   6.879
19326WAT      O58219   8.743   3.730   2.378
19326WAT     H158220   8.801   3.756   2.301
19326WAT     H258221   8.787   3.657   2.431
19327WAT      O58222   1.296   6.436   1.790
19327WAT     H158223   1.238   6.501   1.742
19327WAT     H258224   1.359   6.485   1.850
19328WAT      O58225   1.778   5.642   0.850
19328WAT     H158226   1.720   5.676   0.923
19328WAT     H258227   1.802   5.717   0.788
19329WAT      O58228   9.541   4.958   3.797
19329WAT     H158229   9.625   4.979   3.846
19329WAT     H258230   9.464   5.004   3.841
19330WAT      O58231   5.127   1.679   8.459
19330WAT     H158232   5.127   1.764   8.513
19330WAT     H258233   5.215   1.668   8.414
19331WAT      O58234   4.487   6.733   8.037
19331WAT     H158235   4.565   6.794   8.021
19331WAT     H258236   4.436   6.765   8.117
19332WAT      O58237   7.965   6.820   9.288
19332WAT     H158238   8.051   6.847   9.244
19332WAT     H258239   7.895   6.808   9.219
19333WAT      O58240   3.013   8.527   9.231
19333WAT     H158241   2.973   8.563   9.147
19333WAT     H258242   2.985   8.431   9.242
19334WAT      O58243   0.312   0.847   3.180
19334WAT     H158244   0.324   0.867   3.277
19334WAT     H258245   0.372   0.772   3.153
19335WAT      O58246   7.234   6.878   9.323
19335WAT     H158247   7.258   6.804   9.260
19335WAT     H258248   7.305   6.949   9.319
19336WAT      O58249   0.559   7.649   3.938
19336WAT     H158250   0.631   7.613   3.997
19336WAT     H258251   0.543   7.586   3.863
19337WAT      O58252   4.966   4.587   2.511
19337WAT     H158253   4.955   4.488   2.503
19337WAT     H258254   5.063   4.610   2.503
19338WAT      O58255   6.735   0.010   1.708
19338WAT     H158256   6.660  -0.009   1.644
19338WAT     H258257   6.749   0.109   1.713
19339WAT      O58258   4.106   1.413   9.713
19339WAT     H158259   4.053   1.361   9.780
19339WAT     H258260   4.054   1.419   9.627
19340WAT      O58261   2.893   1.461   7.906
19340WAT     H158262   2.927   1.545   7.863
19340WAT     H258263   2.862   1.481   7.999
19341WAT      O58264   2.298   2.802   7.729
19341WAT     H158265   2.296   2.735   7.655
19341WAT     H258266   2.354   2.767   7.804
19342WAT      O58267   1.185   9.354   0.725
19342WAT     H158268   1.219   9.445   0.750
19342WAT     H258269   1.158   9.304   0.807
19343WAT      O58270   5.936   8.035   9.360
19343WAT     H158271   5.912   8.124   9.399
19343WAT     H258272   5.960   7.972   9.433
19344WAT      O58273   7.802   7.964   8.357
19344WAT     H158274   7.744   7.915   8.292
19344WAT     H258275   7.851   8.037   8.309
19345WAT      O58276   2.786   8.719   3.874
19345WAT     H158277   2.744   8.629   3.862
19345WAT     H258278   2.878   8.708   3.912
19346WAT      O58279   7.503   5.895   9.590
19346WAT     H158280   7.457   5.898   9.678
19346WAT     H258281   7.554   5.980   9.576
19347WAT      O58282   9.484   4.951   3.533
19347WAT     H158283   9.527   4.945   3.624
19347WAT     H258284   9.428   5.034   3.528
19348WAT      O58285   2.732   1.867   2.359
19348WAT     H158286   2.791   1.787   2.357
19348WAT     H258287   2.636   1.838   2.356
19349WAT      O58288   0.215   9.507   9.016
19349WAT     H158289   0.153   9.478   8.943
19349WAT     H258290   0.307   9.472   8.997
19350WAT      O58291   2.000   6.340   8.591
19350WAT     H158292   1.989   6.410   8.521
19350WAT     H258293   2.066   6.271   8.559
19351WAT      O58294   6.602   9.283   4.740
19351WAT     H158295   6.689   9.233   4.737
19351WAT     H258296   6.606   9.360   4.676
19352WAT      O58297   3.051   3.019   2.228
19352WAT     H158298   2.992   3.100   2.230
19352WAT     H258299   3.033   2.967   2.144
19353WAT      O58300   2.701   7.717   9.399
19353WAT     H158301   2.782   7.718   9.458
19353WAT     H258302   2.636   7.649   9.433
19354WAT      O58303   0.223   5.502   0.925
19354WAT     H158304   0.307   5.456   0.954
19354WAT     H258305   0.233   5.601   0.939
19355WAT      O58306   5.528   1.490   2.745
19355WAT     H158307   5.601   1.540   2.790
19355WAT     H258308   5.549   1.392   2.747
19356WAT      O58309   8.024   4.935   1.765
19356WAT     H158310   8.113   4.952   1.722
19356WAT     H258311   7.963   4.892   1.699
19357WAT      O58312   7.020   5.290   5.278
19357WAT     H158313   7.115   5.259   5.289
19357WAT     H258314   7.015   5.359   5.206
19358WAT      O58315   6.276   3.872   5.044
19358WAT     H158316   6.235   3.912   5.126
19358WAT     H258317   6.220   3.894   4.965
19359WAT      O58318   5.726   6.493   2.968
19359WAT     H158319   5.762   6.488   3.061
19359WAT     H258320   5.800   6.476   2.903
19360WAT      O58321   3.138   8.254   5.735
19360WAT     H158322   3.078   8.212   5.803
19360WAT     H258323   3.231   8.220   5.746
19361WAT      O58324   9.316   8.670   9.616
19361WAT     H158325   9.222   8.654   9.645
19361WAT     H258326   9.371   8.694   9.696
19362WAT      O58327   1.956   8.299   7.664
19362WAT     H158328   1.919   8.206   7.667
19362WAT     H258329   1.880   8.365   7.659
19363WAT      O58330   8.674   3.462   2.736
19363WAT     H158331   8.615   3.507   2.669
19363WAT     H258332   8.765   3.505   2.736
19364WAT      O58333   4.134   0.580   2.722
19364WAT     H158334   4.069   0.543   2.655
19364WAT     H258335   4.107   0.552   2.814
19365WAT      O58336   0.263   5.471   1.387
19365WAT     H158337   0.337   5.429   1.334
19365WAT     H258338   0.278   5.453   1.484
19366WAT      O58339   3.401   0.450   3.674
19366WAT     H158340   3.338   0.411   3.741
19366WAT     H258341   3.373   0.423   3.582
19367WAT      O58342   7.912   2.029   7.690
19367WAT     H158343   8.004   2.045   7.653
19367WAT     H258344   7.847   2.020   7.615
19368WAT      O58345   3.668   8.713   1.607
19368WAT     H158346   3.689   8.620   1.577
19368WAT     H258347   3.752   8.758   1.637
19369WAT      O58348   9.369   5.123   3.954
19369WAT     H158349   9.452   5.177   3.945
19369WAT     H258350   9.327   5.140   4.043
19370WAT      O58351   9.114   0.745   5.416
19370WAT     H158352   9.127   0.844   5.411
19370WAT     H258353   9.202   0.701   5.432
19371WAT      O58354   5.623   4.663   5.978
19371WAT     H158355   5.595   4.598   5.907
19371WAT     H258356   5.591   4.755   5.955
19372WAT      O58357   2.531   9.774   0.157
19372WAT     H158358   2.605   9.841   0.168
19372WAT     H258359   2.507   9.767   0.060
19373WAT      O58360   9.517   8.632   5.174
19373WAT     H158361   9.494   8.684   5.092
19373WAT     H258362   9.477   8.541   5.169
19374WAT      O58363   9.725   7.788   9.689
19374WAT     H158364   9.651   7.821   9.747
19374WAT     H258365   9.809   7.782   9.744
19375WAT      O58366   1.084   1.972   2.970
19375WAT     H158367   1.176   1.956   2.935
19375WAT     H258368   1.090   2.017   3.059
19376WAT      O58369   9.286   0.282   8.400
19376WAT     H158370   9.366   0.233   8.434
19376WAT     H258371   9.311   0.377   8.380
19377WAT      O58372   3.318   1.250   9.107
19377WAT     H158373   3.298   1.333   9.056
19377WAT     H258374   3.258   1.176   9.076
19378WAT      O58375   1.525   5.906   7.802
19378WAT     H158376   1.487   5.936   7.889
19378WAT     H258377   1.589   5.975   7.768
19379WAT      O58378   2.267   6.472   6.204
19379WAT     H158379   2.261   6.396   6.268
19379WAT     H258380   2.361   6.480   6.171
19380WAT      O58381   7.280   4.117   8.198
19380WAT     H158382   7.372   4.079   8.191
19380WAT     H258383   7.262   4.146   8.292
19381WAT      O58384   7.111   5.624   4.637
19381WAT     H158385   7.198   5.673   4.646
19381WAT     H258386   7.129   5.531   4.603
19382WAT      O58387   2.634   3.175   4.570
19382WAT     H158388   2.684   3.108   4.625
19382WAT     H258389   2.689   3.200   4.490
19383WAT      O58390   4.054   7.656   9.005
19383WAT     H158391   4.110   7.576   9.026
19383WAT     H258392   3.986   7.669   9.077
19384WAT      O58393   7.000   3.138   6.575
19384WAT     H158394   7.076   3.192   6.540
19384WAT     H258395   6.926   3.200   6.603
19385WAT      O58396   4.603   7.993   6.589
19385WAT     H158397   4.535   7.927   6.558
19385WAT     H258398   4.635   8.047   6.511
19386WAT      O58399   9.417   6.836   0.198
19386WAT     H158400   9.399   6.791   0.110
19386WAT     H258401   9.432   6.934   0.183
19387WAT      O58402   9.076   5.248   7.338
19387WAT     H158403   9.133   5.167   7.352
19387WAT     H258404   9.073   5.270   7.240
19388WAT      O58405   9.175   5.922   7.977
19388WAT     H158406   9.105   5.981   8.017
19388WAT     H258407   9.221   5.972   7.903
19389WAT      O58408   9.163   2.190   8.122
19389WAT     H158409   9.162   2.265   8.056
19389WAT     H258410   9.211   2.218   8.204
19390WAT      O58411   0.582   7.507   1.832
19390WAT     H158412   0.613   7.427   1.883
19390WAT     H258413   0.655   7.575   1.828
19391WAT      O58414   2.796   7.233   4.842
19391WAT     H158415   2.757   7.254   4.752
19391WAT     H258416   2.785   7.312   4.903
19392WAT      O58417   4.444   3.704   4.875
19392WAT     H158418   4.514   3.764   4.835
19392WAT     H258419   4.360   3.756   4.890
19393WAT      O58420   7.065   5.074   9.646
19393WAT     H158421   7.137   5.144   9.643
19393WAT     H258422   7.094   4.994   9.593
19394WAT      O58423   7.636   6.807   8.453
19394WAT     H158424   7.594   6.777   8.367
19394WAT     H258425   7.733   6.823   8.440
19395WAT      O58426   8.871   1.325   7.938
19395WAT     H158427   8.933   1.305   7.863
19395WAT     H258428   8.818   1.244   7.960
19396WAT      O58429   0.842   4.633   5.985
19396WAT     H158430   0.834   4.534   5.981
19396WAT     H258431   0.753   4.673   6.009
19397WAT      O58432   2.495   2.334   4.288
19397WAT     H158433   2.409   2.296   4.255
19397WAT     H258434   2.512   2.422   4.243
19398WAT      O58435   9.383   0.843   7.833
19398WAT     H158436   9.375   0.772   7.903
19398WAT     H258437   9.311   0.911   7.846
19399WAT      O58438   4.110   3.372   0.260
19399WAT     H158439   4.109   3.351   0.162
19399WAT     H258440   4.033   3.325   0.305
19400WAT      O58441   0.820   7.594   3.527
19400WAT     H158442   0.892   7.635   3.583
19400WAT     H258443   0.862   7.540   3.453
19401WAT      O58444   8.656   8.507   9.142
19401WAT     H158445   8.624   8.602   9.145
19401WAT     H258446   8.594   8.452   9.085
19402WAT      O58447   8.244   2.131   3.378
19402WAT     H158448   8.256   2.175   3.467
19402WAT     H258449   8.254   2.199   3.305
19403WAT      O58450   4.446   5.181   3.479
19403WAT     H158451   4.386   5.127   3.421
19403WAT     H258452   4.393   5.223   3.553
19404WAT      O58453   5.309   1.621   4.188
19404WAT     H158454   5.254   1.557   4.135
19404WAT     H258455   5.267   1.635   4.277
19405WAT      O58456   0.909   5.425   1.090
19405WAT     H158457   0.996   5.443   1.135
19405WAT     H258458   0.834   5.431   1.156
19406WAT      O58459   0.765   4.206   9.356
19406WAT     H158460   0.837   4.170   9.297
19406WAT     H258461   0.805   4.267   9.424
19407WAT      O58462   2.994   7.522   6.272
19407WAT     H158463   3.058   7.522   6.348
19407WAT     H258464   3.037   7.480   6.192
19408WAT      O58465   6.530   4.334   2.544
19408WAT     H158466   6.544   4.432   2.560
19408WAT     H258467   6.581   4.305   2.463
19409WAT      O58468   9.066   6.384   8.735
19409WAT     H158469   9.150   6.404   8.785
19409WAT     H258470   9.076   6.298   8.685
19410WAT      O58471   6.807   1.408   2.079
19410WAT     H158472   6.797   1.341   2.005
19410WAT     H258473   6.782   1.499   2.046
19411WAT      O58474   0.616   3.279   3.368
19411WAT     H158475   0.707   3.308   3.398
19411WAT     H258476   0.623   3.235   3.279
19412WAT      O58477   3.091   7.914   2.006
19412WAT     H158478   3.057   7.820   2.008
19412WAT     H258479   3.120   7.937   1.914
19413WAT      O58480   2.212   7.292   4.091
19413WAT     H158481   2.187   7.281   3.995
19413WAT     H258482   2.201   7.388   4.118
19414WAT      O58483   0.034   3.726   8.160
19414WAT     H158484   0.112   3.664   8.154
19414WAT     H258485   0.063   3.819   8.137
19415WAT      O58486   3.911   9.019   0.150
19415WAT     H158487   3.874   8.953   0.217
19415WAT     H258488   3.983   9.073   0.194
19416WAT      O58489   7.163   8.070   2.378
19416WAT     H158490   7.160   7.974   2.405
19416WAT     H258491   7.165   8.076   2.278
19417WAT      O58492   8.799   1.652   6.312
19417WAT     H158493   8.739   1.639   6.234
19417WAT     H258494   8.849   1.568   6.331
19418WAT      O58495   5.944   2.425   1.690
19418WAT     H158496   6.042   2.411   1.705
19418WAT     H258497   5.899   2.337   1.674
19419WAT      O58498   9.388   9.657   6.319
19419WAT     H158499   9.366   9.631   6.413
19419WAT     H258500   9.404   9.575   6.264
19420WAT      O58501   7.303   9.794   6.266
19420WAT     H158502   7.224   9.766   6.322
19420WAT     H258503   7.277   9.793   6.169
19421WAT      O58504   2.638   7.237   2.205
19421WAT     H158505   2.585   7.153   2.212
19421WAT     H258506   2.618   7.282   2.117
19422WAT      O58507   2.885   8.180   3.515
19422WAT     H158508   2.981   8.163   3.490
19422WAT     H258509   2.846   8.098   3.557
19423WAT      O58510   3.038   6.300   8.965
19423WAT     H158511   3.115   6.341   8.917
19423WAT     H258512   3.043   6.323   9.062
19424WAT      O58513   7.982   6.258   9.878
19424WAT     H158514   8.044   6.331   9.906
19424WAT     H258515   7.895   6.268   9.926
19425WAT      O58516   3.856   2.375   9.148
19425WAT     H158517   3.888   2.298   9.203
19425WAT     H258518   3.856   2.458   9.203
19426WAT      O58519   8.230   0.271   8.989
19426WAT     H158520   8.321   0.301   8.961
19426WAT     H258521   8.238   0.196   9.054
19427WAT      O58522   7.426   3.232   0.877
19427WAT     H158523   7.420   3.223   0.977
19427WAT     H258524   7.506   3.286   0.854
19428WAT      O58525   1.821   5.860   1.579
19428WAT     H158526   1.838   5.838   1.482
19428WAT     H258527   1.839   5.957   1.594
19429WAT      O58528   0.516   1.904   2.249
19429WAT     H158529   0.455   1.872   2.177
19429WAT     H258530   0.489   1.863   2.336
19430WAT      O58531   3.932   3.239   9.690
19430WAT     H158532   3.850   3.181   9.686
19430WAT     H258533   3.905   3.333   9.709
19431WAT      O58534   0.470   5.372   0.958
19431WAT     H158535   0.518   5.328   1.034
19431WAT     H258536   0.532   5.377   0.879
19432WAT      O58537   5.894   3.121   8.437
19432WAT     H158538   5.973   3.102   8.494
19432WAT     H258539   5.835   3.188   8.481
19433WAT      O58540   5.433   8.219   8.435
19433WAT     H158541   5.492   8.252   8.362
19433WAT     H258542   5.460   8.126   8.461
19434WAT      O58543   0.375   4.380   7.651
19434WAT     H158544   0.443   4.442   7.611
19434WAT     H258545   0.390   4.373   7.749
19435WAT      O58546   0.649   2.957   0.389
19435WAT     H158547   0.745   2.961   0.417
19435WAT     H258548   0.643   2.939   0.291
19436WAT      O58549   7.041   3.308   7.369
19436WAT     H158550   7.093   3.385   7.407
19436WAT     H258551   6.980   3.271   7.438
19437WAT      O58552   3.243   0.701   1.874
19437WAT     H158553   3.156   0.746   1.858
19437WAT     H258554   3.247   0.616   1.821
19438WAT      O58555   7.579   2.987   1.148
19438WAT     H158556   7.610   3.082   1.142
19438WAT     H258557   7.557   2.965   1.243
19439WAT      O58558   0.376   1.300   1.642
19439WAT     H158559   0.358   1.372   1.575
19439WAT     H258560   0.294   1.282   1.695
19440WAT      O58561   9.446   7.189   2.895
19440WAT     H158562   9.399   7.101   2.898
19440WAT     H258563   9.511   7.190   2.819
19441WAT      O58564   1.985   3.049   3.523
19441WAT     H158565   1.928   3.129   3.540
19441WAT     H258566   1.928   2.968   3.518
19442WAT      O58567   3.525   9.081   9.805
19442WAT     H158568   3.438   9.049   9.844
19442WAT     H258569   3.512   9.172   9.766
19443WAT      O58570   1.809   8.822   6.541
19443WAT     H158571   1.810   8.876   6.626
19443WAT     H258572   1.736   8.754   6.546
19444WAT      O58573   7.024   1.970   1.241
19444WAT     H158574   7.013   2.053   1.296
19444WAT     H258575   6.958   1.971   1.166
19445WAT      O58576   2.803   4.864   6.332
19445WAT     H158577   2.775   4.842   6.425
19445WAT     H258578   2.794   4.962   6.317
19446WAT      O58579   8.248   9.677   0.307
19446WAT     H158580   8.196   9.638   0.383
19446WAT     H258581   8.185   9.717   0.240
19447WAT      O58582   0.486   5.168   6.973
19447WAT     H158583   0.452   5.190   7.065
19447WAT     H258584   0.559   5.100   6.981
19448WAT      O58585   1.968   0.675   2.056
19448WAT     H158586   2.011   0.635   2.137
19448WAT     H258587   1.904   0.747   2.084
19449WAT      O58588   6.225   5.621   2.530
19449WAT     H158589   6.180   5.584   2.612
19449WAT     H258590   6.316   5.654   2.555
19450WAT      O58591   7.606   2.518   4.094
19450WAT     H158592   7.620   2.572   4.012
19450WAT     H258593   7.643   2.567   4.173
19451WAT      O58594   7.561   3.542   6.553
19451WAT     H158595   7.592   3.555   6.647
19451WAT     H258596   7.615   3.598   6.491
19452WAT      O58597   0.682   2.705   0.687
19452WAT     H158598   0.743   2.741   0.757
19452WAT     H258599   0.693   2.605   0.681
19453WAT      O58600   4.308   5.346   6.430
19453WAT     H158601   4.220   5.341   6.476
19453WAT     H258602   4.382   5.328   6.495
19454WAT      O58603   8.046   3.700   1.229
19454WAT     H158604   8.127   3.642   1.219
19454WAT     H258605   8.050   3.747   1.317
19455WAT      O58606   6.484   4.171   3.159
19455WAT     H158607   6.454   4.247   3.217
19455WAT     H258608   6.583   4.164   3.162
19456WAT      O58609   4.605   5.284   4.611
19456WAT     H158610   4.628   5.340   4.531
19456WAT     H258611   4.645   5.193   4.600
19457WAT      O58612   7.390   4.535   8.068
19457WAT     H158613   7.328   4.469   8.027
19457WAT     H258614   7.478   4.531   8.021
19458WAT      O58615   3.032   4.676   2.646
19458WAT     H158616   3.043   4.577   2.647
19458WAT     H258617   3.026   4.709   2.741
19459WAT      O58618   7.601   8.058   9.677
19459WAT     H158619   7.568   8.130   9.616
19459WAT     H258620   7.526   7.996   9.700
19460WAT      O58621   0.084   8.097   0.417
19460WAT     H158622   0.006   8.130   0.469
19460WAT     H258623   0.063   8.104   0.319
19461WAT      O58624   9.126   0.764   4.452
19461WAT     H158625   9.152   0.708   4.374
19461WAT     H258626   9.165   0.855   4.443
19462WAT      O58627   0.363   2.970   5.279
19462WAT     H158628   0.356   3.006   5.372
19462WAT     H258629   0.433   3.022   5.229
19463WAT      O58630   5.775   5.347   3.090
19463WAT     H158631   5.729   5.431   3.120
19463WAT     H258632   5.864   5.340   3.136
19464WAT      O58633   7.938   4.278   5.818
19464WAT     H158634   7.947   4.375   5.794
19464WAT     H258635   7.861   4.266   5.880
19465WAT      O58636   3.834   2.286   4.890
19465WAT     H158637   3.852   2.340   4.973
19465WAT     H258638   3.796   2.346   4.820
19466WAT      O58639   0.438   8.209   4.030
19466WAT     H158640   0.524   8.164   4.057
19466WAT     H258641   0.435   8.217   3.931
19467WAT      O58642   2.262   3.323   3.527
19467WAT     H158643   2.307   3.237   3.552
19467WAT     H258644   2.320   3.372   3.462
19468WAT      O58645   3.428   8.450   2.630
19468WAT     H158646   3.357   8.443   2.560
19468WAT     H258647   3.431   8.365   2.683
19469WAT      O58648   1.187   6.658   3.273
19469WAT     H158649   1.151   6.708   3.351
19469WAT     H258650   1.242   6.719   3.216
19470WAT      O58651   1.771   4.828   0.305
19470WAT     H158652   1.798   4.737   0.338
19470WAT     H258653   1.795   4.897   0.374
19471WAT      O58654   0.776   7.053   1.963
19471WAT     H158655   0.782   6.980   1.894
19471WAT     H258656   0.849   7.039   2.030
19472WAT      O58657   9.473   0.504   4.921
19472WAT     H158658   9.388   0.455   4.943
19472WAT     H258659   9.529   0.448   4.861
19473WAT      O58660   4.853   5.855   7.600
19473WAT     H158661   4.948   5.861   7.631
19473WAT     H258662   4.800   5.929   7.642
19474WAT      O58663   5.927   6.778   6.655
19474WAT     H158664   5.956   6.760   6.562
19474WAT     H258665   6.004   6.764   6.718
19475WAT      O58666   1.010   0.359   2.500
19475WAT     H158667   1.054   0.280   2.543
19475WAT     H258668   0.960   0.411   2.570
19476WAT      O58669   7.074   3.315   6.000
19476WAT     H158670   6.980   3.338   5.976
19476WAT     H258671   7.124   3.293   5.916
19477WAT      O58672   6.872   7.842   4.136
19477WAT     H158673   6.897   7.921   4.191
19477WAT     H258674   6.808   7.785   4.187
19478WAT      O58675   5.964   0.397   0.831
19478WAT     H158676   5.950   0.349   0.745
19478WAT     H258677   6.062   0.408   0.848
19479WAT      O58678   7.839   7.219   4.621
19479WAT     H158679   7.787   7.159   4.560
19479WAT     H258680   7.936   7.211   4.601
19480WAT      O58681   3.590   9.795   0.309
19480WAT     H158682   3.494   9.809   0.331
19480WAT     H258683   3.598   9.755   0.218
19481WAT      O58684   1.266   9.668   8.228
19481WAT     H158685   1.257   9.615   8.313
19481WAT     H258686   1.252   9.765   8.248
19482WAT      O58687   5.306   1.545   3.905
19482WAT     H158688   5.319   1.640   3.934
19482WAT     H258689   5.337   1.535   3.810
19483WAT      O58690   1.720   2.142   0.727
19483WAT     H158691   1.674   2.059   0.758
19483WAT     H258692   1.737   2.202   0.804
19484WAT      O58693   7.125   0.412   8.849
19484WAT     H158694   7.198   0.362   8.802
19484WAT     H258695   7.086   0.480   8.786
19485WAT      O58696   6.632   8.705   6.522
19485WAT     H158697   6.603   8.652   6.442
19485WAT     H258698   6.728   8.684   6.543
19486WAT      O58699   2.074   6.320   5.393
19486WAT     H158700   2.173   6.324   5.379
19486WAT     H258701   2.028   6.315   5.304
19487WAT      O58702   0.946   4.742   1.005
19487WAT     H158703   0.857   4.778   1.032
19487WAT     H258704   0.936   4.689   0.921
19488WAT      O58705   5.917   2.560   9.022
19488WAT     H158706   5.989   2.581   9.088
19488WAT     H258707   5.920   2.462   9.000
19489WAT      O58708   4.369   2.503   8.361
19489WAT     H158709   4.366   2.480   8.263
19489WAT     H258710   4.393   2.421   8.413
19490WAT      O58711   9.031   9.518   7.867
19490WAT     H158712   8.993   9.465   7.942
19490WAT     H258713   8.965   9.588   7.839
19491WAT      O58714   8.961   2.620   7.968
19491WAT     H158715   8.936   2.671   7.886
19491WAT     H258716   8.880   2.607   8.026
19492WAT      O58717   0.452   0.516   0.532
19492WAT     H158718   0.366   0.550   0.492
19492WAT     H258719   0.482   0.578   0.604
19493WAT      O58720   7.997   9.636   2.655
19493WAT     H158721   8.089   9.625   2.617
19493WAT     H258722   7.984   9.571   2.730
19494WAT      O58723   0.349   7.701   0.982
19494WAT     H158724   0.357   7.775   1.048
19494WAT     H258725   0.423   7.636   0.995
19495WAT      O58726   6.186   2.180   6.382
19495WAT     H158727   6.219   2.252   6.442
19495WAT     H258728   6.184   2.093   6.432
19496WAT      O58729   1.998   8.659   5.558
19496WAT     H158730   1.951   8.573   5.538
19496WAT     H258731   1.962   8.696   5.644
19497WAT      O58732   6.657   5.489   1.352
19497WAT     H158733   6.636   5.586   1.341
19497WAT     H258734   6.692   5.452   1.266
19498WAT      O58735   8.671   1.173   8.478
19498WAT     H158736   8.637   1.233   8.405
19498WAT     H258737   8.732   1.225   8.538
19499WAT      O58738   5.493   9.547   4.283
19499WAT     H158739   5.450   9.558   4.194
19499WAT     H258740   5.573   9.608   4.289
19500WAT      O58741   2.065   3.637   3.107
19500WAT     H158742   2.151   3.675   3.141
19500WAT     H258743   2.062   3.539   3.125
19501WAT      O58744   1.741   8.491   6.227
19501WAT     H158745   1.804   8.534   6.291
19501WAT     H258746   1.734   8.548   6.145
19502WAT      O58747   3.592   2.582   5.389
19502WAT     H158748   3.556   2.563   5.297
19502WAT     H258749   3.691   2.575   5.388
19503WAT      O58750   7.472   4.745   5.567
19503WAT     H158751   7.421   4.771   5.485
19503WAT     H258752   7.565   4.779   5.561
19504WAT      O58753   2.164   1.972   1.310
19504WAT     H158754   2.196   1.877   1.315
19504WAT     H258755   2.073   1.979   1.351
19505WAT      O58756   7.367   1.900   5.358
19505WAT     H158757   7.426   1.978   5.338
19505WAT     H258758   7.307   1.923   5.435
19506WAT      O58759   0.570   2.853   2.506
19506WAT     H158760   0.520   2.785   2.452
19506WAT     H258761   0.581   2.937   2.453
19507WAT      O58762   5.101   9.811   8.421
19507WAT     H158763   5.092   9.860   8.508
19507WAT     H258764   5.108   9.877   8.346
19508WAT      O58765   9.622   2.260   7.726
19508WAT     H158766   9.526   2.247   7.699
19508WAT     H258767   9.676   2.285   7.646
19509WAT      O58768   6.276   1.070   7.731
19509WAT     H158769   6.305   0.998   7.667
19509WAT     H258770   6.298   1.160   7.693
19510WAT      O58771   1.919   8.619   5.888
19510WAT     H158772   1.849   8.550   5.908
19510WAT     H258773   2.003   8.596   5.937
19511WAT      O58774   3.842   7.431   3.919
19511WAT     H158775   3.816   7.335   3.925
19511WAT     H258776   3.941   7.438   3.907
19512WAT      O58777   6.976   6.719   6.969
19512WAT     H158778   6.950   6.765   6.884
19512WAT     H258779   7.075   6.706   6.970
19513WAT      O58780   1.465   0.727   7.163
19513WAT     H158781   1.432   0.742   7.070
19513WAT     H258782   1.563   0.748   7.167
19514WAT      O58783   8.735   6.676   0.003
19514WAT     H158784   8.725   6.775   0.015
19514WAT     H258785   8.665   6.643  -0.060
19515WAT      O58786   0.499   8.356   0.577
19515WAT     H158787   0.545   8.396   0.498
19515WAT     H258788   0.413   8.314   0.548
19516WAT      O58789   8.441   4.197   0.822
19516WAT     H158790   8.511   4.158   0.882
19516WAT     H258791   8.356   4.207   0.873
19517WAT      O58792   4.465   2.484   6.067
19517WAT     H158793   4.386   2.522   6.019
19517WAT     H258794   4.529   2.446   6.001
19518WAT      O58795   7.310   8.749   4.108
19518WAT     H158796   7.357   8.705   4.185
19518WAT     H258797   7.369   8.746   4.027
19519WAT      O58798   1.540   5.272   1.993
19519WAT     H158799   1.623   5.228   1.959
19519WAT     H258800   1.507   5.338   1.926
19520WAT      O58801   7.816   5.066   3.144
19520WAT     H158802   7.792   5.161   3.121
19520WAT     H258803   7.823   5.013   3.060
19521WAT      O58804   6.617   9.763   3.047
19521WAT     H158805   6.681   9.692   3.076
19521WAT     H258806   6.525   9.739   3.076
19522WAT      O58807   6.862   4.778   4.333
19522WAT     H158808   6.788   4.718   4.362
19522WAT     H258809   6.944   4.723   4.315
19523WAT      O58810   2.626   4.443   2.147
19523WAT     H158811   2.646   4.347   2.128
19523WAT     H258812   2.670   4.470   2.233
19524WAT      O58813   9.357   3.281   0.087
19524WAT     H158814   9.385   3.216   0.157
19524WAT     H258815   9.257   3.282   0.080
19525WAT      O58816   2.967   4.778   4.515
19525WAT     H158817   2.913   4.787   4.431
19525WAT     H258818   2.980   4.868   4.555
19526WAT      O58819   6.345   9.416   7.536
19526WAT     H158820   6.295   9.486   7.587
19526WAT     H258821   6.440   9.445   7.525
19527WAT      O58822   9.881   1.766   1.854
19527WAT     H158823   9.842   1.772   1.763
19527WAT     H258824   9.954   1.698   1.855
19528WAT      O58825   8.698   9.521   5.828
19528WAT     H158826   8.779   9.579   5.836
19528WAT     H258827   8.714   9.434   5.876
19529WAT      O58828   2.289   1.291   3.518
19529WAT     H158829   2.201   1.243   3.518
19529WAT     H258830   2.324   1.295   3.612
19530WAT      O58831   7.177   9.612   2.248
19530WAT     H158832   7.099   9.574   2.297
19530WAT     H258833   7.261   9.592   2.300
19531WAT      O58834   0.058   6.708   7.922
19531WAT     H158835  -0.037   6.702   7.954
19531WAT     H258836   0.119   6.715   8.001
19532WAT      O58837   4.192   1.695   5.063
19532WAT     H158838   4.242   1.745   5.134
19532WAT     H258839   4.138   1.623   5.106
19533WAT      O58840   4.960   6.734   6.922
19533WAT     H158841   4.877   6.698   6.964
19533WAT     H258842   5.035   6.669   6.935
19534WAT      O58843   8.841   5.085   1.060
19534WAT     H158844   8.829   5.135   1.146
19534WAT     H258845   8.891   5.000   1.078
19535WAT      O58846   6.324   5.653   3.445
19535WAT     H158847   6.373   5.738   3.466
19535WAT     H258848   6.251   5.639   3.513
19536WAT      O58849   2.474   3.371   3.793
19536WAT     H158850   2.487   3.446   3.858
19536WAT     H258851   2.550   3.370   3.728
19537WAT      O58852   6.445   0.131   5.537
19537WAT     H158853   6.400   0.108   5.623
19537WAT     H258854   6.385   0.192   5.484
19538WAT      O58855   0.210   0.770   4.914
19538WAT     H158856   0.160   0.768   5.000
19538WAT     H258857   0.286   0.705   4.917
19539WAT      O58858   8.514   9.676   3.671
19539WAT     H158859   8.425   9.696   3.712
19539WAT     H258860   8.537   9.747   3.604
19540WAT      O58861   0.228   4.494   3.257
19540WAT     H158862   0.224   4.395   3.265
19540WAT     H258863   0.160   4.525   3.191
19541WAT      O58864   5.325   4.828   0.579
19541WAT     H158865   5.288   4.740   0.552
19541WAT     H258866   5.304   4.897   0.509
19542WAT      O58867   2.507   6.470   6.111
19542WAT     H158868   2.564   6.428   6.040
19542WAT     H258869   2.563   6.530   6.168
19543WAT      O58870   5.641   9.801   1.360
19543WAT     H158871   5.556   9.808   1.308
19543WAT     H258872   5.719   9.812   1.298
19544WAT      O58873   5.418   9.456   0.690
19544WAT     H158874   5.419   9.500   0.600
19544WAT     H258875   5.331   9.408   0.702
19545WAT      O58876   1.344   1.771   0.579
19545WAT     H158877   1.308   1.791   0.487
19545WAT     H258878   1.349   1.855   0.632
19546WAT      O58879   3.050   0.243   3.894
19546WAT     H158880   3.077   0.159   3.847
19546WAT     H258881   2.988   0.296   3.835
19547WAT      O58882   2.580   1.230   1.181
19547WAT     H158883   2.527   1.197   1.258
19547WAT     H258884   2.652   1.292   1.214
19548WAT      O58885   7.869   5.331   9.091
19548WAT     H158886   7.898   5.385   9.013
19548WAT     H258887   7.816   5.388   9.154
19549WAT      O58888   3.717   4.875   6.944
19549WAT     H158889   3.652   4.920   6.883
19549WAT     H258890   3.809   4.912   6.929
19550WAT      O58891   4.704   9.228   8.372
19550WAT     H158892   4.756   9.163   8.426
19550WAT     H258893   4.647   9.179   8.306
19551WAT      O58894   8.264   5.519   9.515
19551WAT     H158895   8.296   5.592   9.576
19551WAT     H258896   8.327   5.442   9.520
19552WAT      O58897   2.932   2.396   5.264
19552WAT     H158898   2.880   2.466   5.313
19552WAT     H258899   2.910   2.400   5.166
19553WAT      O58900   4.875   6.965   5.510
19553WAT     H158901   4.803   7.000   5.449
19553WAT     H258902   4.961   7.012   5.489
19554WAT      O58903   7.952   5.359   0.796
19554WAT     H158904   7.931   5.376   0.700
19554WAT     H258905   7.984   5.443   0.839
19555WAT      O58906   8.030   6.818   3.422
19555WAT     H158907   8.015   6.733   3.372
19555WAT     H258908   7.943   6.867   3.432
19556WAT      O58909   1.624   0.832   4.904
19556WAT     H158910   1.616   0.894   4.982
19556WAT     H258911   1.662   0.881   4.826
19557WAT      O58912   9.834   5.298   4.736
19557WAT     H158913   9.784   5.257   4.660
19557WAT     H258914   9.851   5.395   4.716
19558WAT      O58915   5.157   8.029   5.948
19558WAT     H158916   5.137   7.959   5.879
19558WAT     H258917   5.080   8.092   5.955
19559WAT      O58918   4.568   5.858   9.153
19559WAT     H158919   4.632   5.931   9.128
19559WAT     H258920   4.612   5.769   9.139
19560WAT      O58921   4.626   7.429   5.071
19560WAT     H158922   4.563   7.448   4.995
19560WAT     H258923   4.642   7.513   5.123
19561WAT      O58924   2.376   3.473   9.275
19561WAT     H158925   2.395   3.536   9.350
19561WAT     H258926   2.337   3.523   9.198
19562WAT      O58927   2.352   2.606   7.531
19562WAT     H158928   2.423   2.675   7.517
19562WAT     H258929   2.391   2.515   7.521
19563WAT      O58930   8.074   0.054   3.375
19563WAT     H158931   7.987   0.076   3.420
19563WAT     H258932   8.134   0.008   3.440
19564WAT      O58933   7.583   6.426   2.146
19564WAT     H158934   7.587   6.382   2.236
19564WAT     H258935   7.663   6.484   2.134
19565WAT      O58936   5.805   1.198   8.948
19565WAT     H158937   5.851   1.131   9.006
19565WAT     H258938   5.773   1.152   8.864
19566WAT      O58939   7.613   3.563   1.400
19566WAT     H158940   7.650   3.643   1.448
19566WAT     H258941   7.650   3.479   1.442
19567WAT      O58942   6.684   2.265   8.945
19567WAT     H158943   6.680   2.170   8.912
19567WAT     H258944   6.652   2.327   8.874
19568WAT      O58945   4.238   0.095   1.517
19568WAT     H158946   4.249  -0.002   1.539
19568WAT     H258947   4.256   0.110   1.420
19569WAT      O58948   8.588   4.951   0.314
19569WAT     H158949   8.599   4.957   0.214
19569WAT     H258950   8.672   4.981   0.359
19570WAT      O58951   8.730   7.039   0.761
19570WAT     H158952   8.789   7.049   0.841
19570WAT     H258953   8.782   6.997   0.686
19571WAT      O58954   8.609   0.834   4.625
19571WAT     H158955   8.530   0.895   4.627
19571WAT     H258956   8.587   0.752   4.573
19572WAT      O58957   1.635   0.383   7.209
19572WAT     H158958   1.598   0.323   7.137
19572WAT     H258959   1.562   0.442   7.243
19573WAT      O58960   2.759   6.490   4.298
19573WAT     H158961   2.852   6.471   4.329
19573WAT     H258962   2.694   6.454   4.364
19574WAT      O58963   1.574   3.621   6.639
19574WAT     H158964   1.537   3.542   6.689
19574WAT     H258965   1.500   3.687   6.622
19575WAT      O58966   8.515   5.915   3.225
19575WAT     H158967   8.584   5.862   3.176
19575WAT     H258968   8.557   5.999   3.261
19576WAT      O58969   4.623   4.437   7.478
19576WAT     H158970   4.694   4.454   7.547
19576WAT     H258971   4.533   4.443   7.522
19577WAT      O58972   3.938   7.735   2.797
19577WAT     H158973   4.015   7.707   2.738
19577WAT     H258974   3.869   7.780   2.741
19578WAT      O58975   3.340   3.230   2.535
19578WAT     H158976   3.412   3.295   2.558
19578WAT     H258977   3.379   3.154   2.483
19579WAT      O58978   5.243   1.499   6.789
19579WAT     H158979   5.273   1.594   6.802
19579WAT     H258980   5.148   1.489   6.820
19580WAT      O58981   1.282   8.968   5.587
19580WAT     H158982   1.258   9.010   5.500
19580WAT     H258983   1.300   8.871   5.574
19581WAT      O58984   4.321   6.644   6.619
19581WAT     H158985   4.243   6.619   6.561
19581WAT     H258986   4.406   6.632   6.567
19582WAT      O58987   8.983   5.482   2.526
19582WAT     H158988   8.944   5.506   2.615
19582WAT     H258989   8.951   5.547   2.457
19583WAT      O58990   3.763   8.557   6.382
19583WAT     H158991   3.826   8.588   6.453
19583WAT     H258992   3.779   8.607   6.298
19584WAT      O58993   1.273   8.583   8.947
19584WAT     H158994   1.271   8.545   9.039
19584WAT     H258995   1.180   8.610   8.921
19585WAT      O58996   5.562   2.263   0.955
19585WAT     H158997   5.641   2.204   0.971
19585WAT     H258998   5.492   2.243   1.024
19586WAT      O58999   0.743   4.739   1.995
19586WAT     H159000   0.742   4.698   2.086
19586WAT     H259001   0.765   4.836   2.003
19587WAT      O59002   0.025   1.787   1.151
19587WAT     H159003  -0.055   1.779   1.092
19587WAT     H259004   0.099   1.833   1.101
19588WAT      O59005   3.527   4.604   9.333
19588WAT     H159006   3.536   4.659   9.251
19588WAT     H259007   3.610   4.611   9.388
19589WAT      O59008   0.548   7.757   3.588
19589WAT     H159009   0.599   7.671   3.598
19589WAT     H259010   0.450   7.737   3.587
19590WAT      O59011   6.562   8.127   8.947
19590WAT     H159012   6.547   8.225   8.960
19590WAT     H259013   6.564   8.082   9.036
19591WAT      O59014   3.184   6.206   5.810
19591WAT     H159015   3.255   6.153   5.856
19591WAT     H259016   3.217   6.235   5.720
19592WAT      O59017   9.274   6.065   7.780
19592WAT     H159018   9.221   6.149   7.789
19592WAT     H259019   9.231   6.005   7.713
19593WAT      O59020   7.654   8.706   1.878
19593WAT     H159021   7.670   8.780   1.942
19593WAT     H259022   7.741   8.671   1.844
19594WAT      O59023   4.571   6.783   4.107
19594WAT     H159024   4.577   6.746   4.014
19594WAT     H259025   4.534   6.713   4.168
19595WAT      O59026   7.621   9.361   9.656
19595WAT     H159027   7.661   9.271   9.643
19595WAT     H259028   7.606   9.405   9.567
19596WAT      O59029   3.697   0.863   5.465
19596WAT     H159030   3.689   0.940   5.402
19596WAT     H259031   3.665   0.891   5.556
19597WAT      O59032   4.027   5.224   7.662
19597WAT     H159033   4.123   5.254   7.658
19597WAT     H259034   3.968   5.303   7.677
19598WAT      O59035   1.579   9.087   2.182
19598WAT     H159036   1.562   9.183   2.202
19598WAT     H259037   1.648   9.080   2.110
19599WAT      O59038   9.616   4.448   9.590
19599WAT     H159039   9.713   4.468   9.599
19599WAT     H259040   9.565   4.533   9.575
19600WAT      O59041   1.449   7.074   2.604
19600WAT     H159042   1.414   6.999   2.660
19600WAT     H259043   1.468   7.153   2.662
19601WAT      O59044   3.719   9.114   5.319
19601WAT     H159045   3.765   9.047   5.261
19601WAT     H259046   3.743   9.097   5.415
19602WAT      O59047   1.260   8.422   5.863
19602WAT     H159048   1.311   8.454   5.783
19602WAT     H259049   1.255   8.496   5.930
19603WAT      O59050   4.577   9.578   3.121
19603WAT     H159051   4.608   9.486   3.142
19603WAT     H259052   4.616   9.643   3.186
19604WAT      O59053   4.879   3.848   8.279
19604WAT     H159054   4.961   3.881   8.234
19604WAT     H259055   4.900   3.768   8.335
19605WAT      O59056   9.054   1.700   5.343
19605WAT     H159057   8.996   1.763   5.395
19605WAT     H259058   9.150   1.720   5.360
19606WAT      O59059   4.591   9.741   0.694
19606WAT     H159060   4.528   9.702   0.761
19606WAT     H259061   4.614   9.834   0.721
19607WAT      O59062   6.901   0.067   8.399
19607WAT     H159063   6.959   0.101   8.473
19607WAT     H259064   6.930  -0.025   8.374
19608WAT      O59065   5.403   2.730   3.785
19608WAT     H159066   5.500   2.755   3.779
19608WAT     H259067   5.347   2.811   3.770
19609WAT      O59068   8.916   2.999   9.601
19609WAT     H159069   8.960   2.955   9.523
19609WAT     H259070   8.817   3.004   9.585
19610WAT      O59071   0.179   8.745   6.842
19610WAT     H159072   0.086   8.731   6.877
19610WAT     H259073   0.176   8.756   6.743
19611WAT      O59074   7.714   2.956   4.979
19611WAT     H159075   7.800   2.936   4.933
19611WAT     H259076   7.729   3.024   5.050
19612WAT      O59077   5.791   8.726   4.661
19612WAT     H159078   5.719   8.671   4.620
19612WAT     H259079   5.880   8.684   4.643
19613WAT      O59080   5.636   7.095   5.834
19613WAT     H159081   5.557   7.059   5.885
19613WAT     H259082   5.640   7.052   5.744
19614WAT      O59083   5.034   6.798   3.021
19614WAT     H159084   4.984   6.720   2.983
19614WAT     H259085   5.115   6.765   3.069
19615WAT      O59086   6.924   1.096   2.611
19615WAT     H159087   6.936   0.997   2.614
19615WAT     H259088   6.911   1.131   2.704
19616WAT      O59089   3.607   1.271   3.728
19616WAT     H159090   3.643   1.254   3.636
19616WAT     H259091   3.682   1.269   3.794
19617WAT      O59092   9.573   8.948   7.578
19617WAT     H159093   9.576   8.868   7.639
19617WAT     H259094   9.478   8.970   7.557
19618WAT      O59095   1.324   2.160   9.594
19618WAT     H159096   1.239   2.210   9.576
19618WAT     H259097   1.377   2.153   9.510
19619WAT      O59098   6.634   4.933   8.298
19619WAT     H159099   6.605   4.917   8.204
19619WAT     H259100   6.579   4.876   8.360
19620WAT      O59101   5.591   4.661   4.664
19620WAT     H159102   5.523   4.603   4.620
19620WAT     H259103   5.682   4.630   4.639
19621WAT      O59104   1.067   3.096   5.107
19621WAT     H159105   0.984   3.062   5.151
19621WAT     H259106   1.110   3.023   5.055
19622WAT      O59107   2.115   2.532   5.229
19622WAT     H159108   2.153   2.456   5.177
19622WAT     H259109   2.188   2.598   5.250
19623WAT      O59110   1.278   6.238   2.075
19623WAT     H159111   1.320   6.157   2.116
19623WAT     H259112   1.264   6.223   1.977
19624WAT      O59113   7.953   1.439   3.714
19624WAT     H159114   7.894   1.466   3.791
19624WAT     H259115   8.015   1.366   3.744
19625WAT      O59116   8.835   7.622   6.908
19625WAT     H159117   8.874   7.699   6.958
19625WAT     H259118   8.789   7.655   6.826
19626WAT      O59119   8.783   5.805   1.853
19626WAT     H159120   8.836   5.857   1.785
19626WAT     H259121   8.713   5.751   1.806
19627WAT      O59122   0.757   5.474   2.109
19627WAT     H159123   0.757   5.422   2.195
19627WAT     H259124   0.756   5.571   2.130
19628WAT      O59125   4.891   8.285   2.182
19628WAT     H159126   4.925   8.376   2.158
19628WAT     H259127   4.868   8.235   2.099
19629WAT      O59128   3.095   3.603   8.025
19629WAT     H159129   3.004   3.642   8.036
19629WAT     H259130   3.110   3.581   7.929
19630WAT      O59131   9.752   7.173   0.904
19630WAT     H159132   9.675   7.160   0.965
19630WAT     H259133   9.832   7.125   0.940
19631WAT      O59134   6.361   0.241   6.021
19631WAT     H159135   6.315   0.320   6.060
19631WAT     H259136   6.410   0.191   6.092
19632WAT      O59137   1.622   6.189   5.576
19632WAT     H159138   1.554   6.263   5.572
19632WAT     H259139   1.713   6.227   5.558
19633WAT      O59140   8.874   6.253   6.843
19633WAT     H159141   8.796   6.249   6.781
19633WAT     H259142   8.934   6.175   6.827
19634WAT      O59143   0.281   1.084   7.687
19634WAT     H159144   0.351   1.022   7.724
19634WAT     H259145   0.202   1.030   7.656
19635WAT      O59146   8.661   6.920   9.171
19635WAT     H159147   8.620   6.998   9.219
19635WAT     H259148   8.755   6.941   9.146
19636WAT      O59149   2.965   8.739   7.486
19636WAT     H159150   2.872   8.739   7.523
19636WAT     H259151   3.006   8.829   7.500
19637WAT      O59152   8.161   2.043   5.424
19637WAT     H159153   8.246   2.061   5.472
19637WAT     H259154   8.104   1.982   5.478
19638WAT      O59155   4.131   1.987   8.203
19638WAT     H159156   4.147   2.085   8.190
19638WAT     H259157   4.051   1.960   8.150
19639WAT      O59158   0.883   4.378   9.507
19639WAT     H159159   0.936   4.312   9.561
19639WAT     H259160   0.876   4.464   9.556
19640WAT      O59161   5.417   0.865   3.911
19640WAT     H159162   5.355   0.875   3.989
19640WAT     H259163   5.386   0.788   3.855
19641WAT      O59164   3.387   3.516   0.515
19641WAT     H159165   3.311   3.542   0.575
19641WAT     H259166   3.472   3.514   0.567
19642WAT      O59167   2.086   5.438   2.021
19642WAT     H159168   2.106   5.462   2.117
19642WAT     H259169   2.089   5.339   2.010
19643WAT      O59170   2.930   0.230   5.306
19643WAT     H159171   3.005   0.222   5.242
19643WAT     H259172   2.947   0.172   5.386
19644WAT      O59173   3.210   2.769   3.996
19644WAT     H159174   3.185   2.848   4.052
19644WAT     H259175   3.172   2.779   3.904
19645WAT      O59176   5.262   1.538   8.116
19645WAT     H159177   5.198   1.615   8.112
19645WAT     H259178   5.211   1.452   8.117
19646WAT      O59179   5.926   3.310   8.874
19646WAT     H159180   5.836   3.270   8.889
19646WAT     H259181   5.989   3.278   8.945
19647WAT      O59182   2.692   5.377   6.247
19647WAT     H159183   2.671   5.470   6.217
19647WAT     H259184   2.791   5.368   6.262
19648WAT      O59185   5.750   3.645   4.124
19648WAT     H159186   5.749   3.692   4.035
19648WAT     H259187   5.657   3.642   4.161
19649WAT      O59188   7.904   9.050   1.026
19649WAT     H159189   7.914   9.029   1.123
19649WAT     H259190   7.926   8.968   0.972
19650WAT      O59191   7.584   4.514   1.528
19650WAT     H159192   7.567   4.463   1.612
19650WAT     H259193   7.641   4.460   1.466
19651WAT      O59194   9.412   3.066   4.429
19651WAT     H159195   9.495   3.101   4.472
19651WAT     H259196   9.405   2.967   4.445
19652WAT      O59197   2.536   4.665   7.329
19652WAT     H159198   2.535   4.760   7.360
19652WAT     H259199   2.558   4.661   7.232
19653WAT      O59200   7.081   3.470   7.728
19653WAT     H159201   7.094   3.376   7.759
19653WAT     H259202   7.110   3.534   7.800
19654WAT      O59203   1.663   5.841   6.413
19654WAT     H159204   1.588   5.902   6.440
19654WAT     H259205   1.629   5.748   6.405
19655WAT      O59206   7.534   0.117   8.514
19655WAT     H159207   7.578   0.153   8.596
19655WAT     H259208   7.435   0.133   8.520
19656WAT      O59209   2.464   1.007   2.975
19656WAT     H159210   2.376   1.049   2.951
19656WAT     H259211   2.448   0.920   3.022
19657WAT      O59212   6.310   6.272   2.186
19657WAT     H159213   6.284   6.336   2.258
19657WAT     H259214   6.407   6.283   2.165
19658WAT      O59215   5.321   0.062   0.188
19658WAT     H159216   5.394   0.003   0.154
19658WAT     H259217   5.302   0.133   0.120
19659WAT      O59218   8.391   0.515   1.581
19659WAT     H159219   8.377   0.609   1.550
19659WAT     H259220   8.463   0.514   1.651
19660WAT      O59221   9.571   1.028   2.424
19660WAT     H159222   9.665   0.994   2.417
19660WAT     H259223   9.540   1.060   2.334
19661WAT      O59224   7.240   1.636   4.888
19661WAT     H159225   7.292   1.616   4.805
19661WAT     H259226   7.145   1.657   4.865
19662WAT      O59227   9.081   4.897   8.149
19662WAT     H159228   9.042   4.893   8.241
19662WAT     H259229   9.176   4.929   8.155
19663WAT      O59230   8.778   4.496   6.147
19663WAT     H159231   8.796   4.456   6.058
19663WAT     H259232   8.688   4.467   6.180
19664WAT      O59233   3.000   5.091   3.805
19664WAT     H159234   2.940   5.078   3.884
19664WAT     H259235   2.947   5.131   3.730
19665WAT      O59236   7.264   9.086   7.570
19665WAT     H159237   7.264   9.180   7.603
19665WAT     H259238   7.319   9.080   7.486
19666WAT      O59239   6.551   3.941   8.237
19666WAT     H159240   6.520   4.015   8.177
19666WAT     H259241   6.473   3.884   8.264
19667WAT      O59242   8.595   7.319   1.885
19667WAT     H159243   8.694   7.327   1.899
19667WAT     H259244   8.571   7.349   1.793
19668WAT      O59245   6.359   0.817   1.044
19668WAT     H159246   6.279   0.756   1.044
19668WAT     H259247   6.352   0.883   1.118
19669WAT      O59248   6.470   3.524   4.912
19669WAT     H159249   6.540   3.475   4.964
19669WAT     H259250   6.503   3.616   4.890
19670WAT      O59251   4.999   5.466   8.218
19670WAT     H159252   5.061   5.388   8.225
19670WAT     H259253   4.969   5.492   8.310
19671WAT      O59254   1.736   5.115   3.388
19671WAT     H159255   1.825   5.113   3.435
19671WAT     H259256   1.672   5.172   3.439
19672WAT      O59257   7.835   7.848   0.686
19672WAT     H159258   7.846   7.899   0.772
19672WAT     H259259   7.738   7.830   0.670
19673WAT      O59260   8.042   2.388   2.567
19673WAT     H159261   8.125   2.402   2.512
19673WAT     H259262   8.039   2.294   2.600
19674WAT      O59263   8.906   0.218   6.823
19674WAT     H159264   9.003   0.194   6.829
19674WAT     H259265   8.897   0.314   6.796
19675WAT      O59266   8.793   6.144   7.551
19675WAT     H159267   8.862   6.216   7.553
19675WAT     H259268   8.745   6.145   7.463
19676WAT      O59269   0.257   3.438   4.255
19676WAT     H159270   0.259   3.524   4.204
19676WAT     H259271   0.300   3.451   4.344
19677WAT      O59272   3.397   2.097   5.801
19677WAT     H159273   3.430   2.173   5.857
19677WAT     H259274   3.440   2.102   5.710
19678WAT      O59275   6.715   7.337   5.715
19678WAT     H159276   6.652   7.298   5.648
19678WAT     H259277   6.802   7.287   5.712
19679WAT      O59278   9.149   2.033   3.351
19679WAT     H159279   9.098   1.955   3.388
19679WAT     H259280   9.247   2.011   3.350
19680WAT      O59281   3.945   1.832   7.620
19680WAT     H159282   3.919   1.916   7.667
19680WAT     H259283   4.021   1.789   7.668
19681WAT      O59284   1.622   5.156   5.211
19681WAT     H159285   1.671   5.140   5.125
19681WAT     H259286   1.539   5.208   5.192
19682WAT      O59287   3.734   9.069   2.047
19682WAT     H159288   3.698   9.138   1.984
19682WAT     H259289   3.780   8.997   1.995
19683WAT      O59290   2.510   5.284   4.030
19683WAT     H159291   2.494   5.194   4.071
19683WAT     H259292   2.535   5.349   4.102
19684WAT      O59293   6.206   6.032   2.178
19684WAT     H159294   6.121   6.048   2.228
19684WAT     H259295   6.264   6.114   2.185
19685WAT      O59296   8.172   8.242   2.792
19685WAT     H159297   8.169   8.320   2.854
19685WAT     H259298   8.080   8.203   2.782
19686WAT      O59299   3.735   3.292   6.660
19686WAT     H159300   3.695   3.202   6.641
19686WAT     H259301   3.803   3.314   6.591
19687WAT      O59302   8.376   2.760   2.858
19687WAT     H159303   8.283   2.747   2.826
19687WAT     H259304   8.385   2.726   2.952
19688WAT      O59305   1.035   6.160   9.030
19688WAT     H159306   0.968   6.210   9.085
19688WAT     H259307   1.046   6.205   8.941
19689WAT      O59308   6.544   5.484   7.200
19689WAT     H159309   6.618   5.453   7.139
19689WAT     H259310   6.521   5.410   7.264
19690WAT      O59311   7.345   9.612   5.935
19690WAT     H159312   7.264   9.656   5.973
19690WAT     H259313   7.330   9.513   5.931
19691WAT      O59314   2.939   9.255   5.742
19691WAT     H159315   3.035   9.236   5.719
19691WAT     H259316   2.924   9.237   5.839
19692WAT      O59317   2.361   7.307   8.180
19692WAT     H159318   2.390   7.331   8.273
19692WAT     H259319   2.421   7.235   8.144
19693WAT      O59320   9.726   4.437   0.686
19693WAT     H159321   9.649   4.475   0.635
19693WAT     H259322   9.803   4.423   0.625
19694WAT      O59323   0.155   0.604   3.157
19694WAT     H159324   0.184   0.699   3.163
19694WAT     H259325   0.168   0.559   3.246
19695WAT      O59326   1.195   8.366   2.603
19695WAT     H159327   1.156   8.365   2.695
19695WAT     H259328   1.183   8.276   2.561
19696WAT      O59329   0.758   8.268   2.925
19696WAT     H159330   0.844   8.312   2.953
19696WAT     H259331   0.693   8.271   3.000
19697WAT      O59332   8.677   8.706   2.523
19697WAT     H159333   8.657   8.777   2.455
19697WAT     H259334   8.696   8.749   2.611
19698WAT      O59335   7.383   7.044   3.345
19698WAT     H159336   7.446   7.116   3.316
19698WAT     H259337   7.425   6.955   3.329
19699WAT      O59338   5.275   9.334   7.031
19699WAT     H159339   5.301   9.239   7.013
19699WAT     H259340   5.358   9.389   7.041
19700WAT      O59341   1.524   2.306   9.158
19700WAT     H159342   1.564   2.217   9.132
19700WAT     H259343   1.428   2.294   9.180
19701WAT      O59344   9.229   2.656   8.772
19701WAT     H159345   9.146   2.619   8.814
19701WAT     H259346   9.294   2.681   8.844
19702WAT      O59347   1.414   6.819   7.737
19702WAT     H159348   1.429   6.874   7.820
19702WAT     H259349   1.390   6.879   7.661
19703WAT      O59350   3.826   1.557   8.163
19703WAT     H159351   3.738   1.602   8.153
19703WAT     H259352   3.819   1.482   8.229
19704WAT      O59353   2.895   2.959   8.212
19704WAT     H159354   2.883   3.033   8.279
19704WAT     H259355   2.982   2.971   8.165
19705WAT      O59356   9.301   3.592   4.946
19705WAT     H159357   9.316   3.611   5.043
19705WAT     H259358   9.307   3.493   4.930
19706WAT      O59359   4.948   8.566   7.719
19706WAT     H159360   4.910   8.657   7.704
19706WAT     H259361   4.974   8.556   7.815
19707WAT      O59362   7.877   8.451   1.411
19707WAT     H159363   7.902   8.544   1.383
19707WAT     H259364   7.956   8.406   1.452
19708WAT      O59365   9.387   1.271   0.976
19708WAT     H159366   9.313   1.248   1.039
19708WAT     H259367   9.419   1.189   0.930
19709WAT      O59368   3.880   5.423   0.949
19709WAT     H159369   3.960   5.365   0.940
19709WAT     H259370   3.885   5.498   0.884
19710WAT      O59371   6.477   3.852   9.493
19710WAT     H159372   6.437   3.870   9.583
19710WAT     H259373   6.407   3.817   9.431
19711WAT      O59374   2.342   9.095   2.761
19711WAT     H159375   2.428   9.139   2.737
19711WAT     H259376   2.268   9.163   2.759
19712WAT      O59377   7.611   5.313   1.290
19712WAT     H159378   7.543   5.297   1.362
19712WAT     H259379   7.702   5.290   1.325
19713WAT      O59380   2.483   6.461   4.392
19713WAT     H159381   2.482   6.528   4.317
19713WAT     H259382   2.509   6.506   4.477
19714WAT      O59383   4.457   8.291   5.184
19714WAT     H159384   4.526   8.319   5.251
19714WAT     H259385   4.484   8.322   5.093
19715WAT      O59386   9.551   6.541   0.372
19715WAT     H159387   9.607   6.496   0.303
19715WAT     H259388   9.458   6.502   0.370
19716WAT      O59389   3.114   1.642   7.216
19716WAT     H159390   3.190   1.648   7.151
19716WAT     H259391   3.109   1.727   7.269
19717WAT      O59392   0.096   4.013   8.070
19717WAT     H159393   0.190   4.020   8.104
19717WAT     H259394   0.096   4.019   7.970
19718WAT      O59395   8.518   2.797   3.728
19718WAT     H159396   8.505   2.868   3.798
19718WAT     H259397   8.606   2.751   3.743
19719WAT      O59398   1.481   0.047   5.718
19719WAT     H159399   1.472   0.114   5.645
19719WAT     H259400   1.565  -0.006   5.705
19720WAT      O59401   4.470   2.056   1.283
19720WAT     H159402   4.561   2.017   1.267
19720WAT     H259403   4.418   1.994   1.342
19721WAT      O59404   3.475   4.122   0.538
19721WAT     H159405   3.559   4.075   0.512
19721WAT     H259406   3.490   4.221   0.538
19722WAT      O59407   2.606   5.902   2.314
19722WAT     H159408   2.624   5.949   2.227
19722WAT     H259409   2.660   5.819   2.318
19723WAT      O59410   3.858   1.271   7.187
19723WAT     H159411   3.898   1.341   7.247
19723WAT     H259412   3.869   1.299   7.092
19724WAT      O59413   6.907   6.204   9.269
19724WAT     H159414   6.887   6.302   9.263
19724WAT     H259415   6.979   6.188   9.337
19725WAT      O59416   6.251   4.011   4.474
19725WAT     H159417   6.266   3.919   4.511
19725WAT     H259418   6.179   4.008   4.405
19726WAT      O59419   2.177   6.025   2.048
19726WAT     H159420   2.095   6.031   1.991
19726WAT     H259421   2.235   5.950   2.015
19727WAT      O59422   7.646   8.904   5.469
19727WAT     H159423   7.716   8.928   5.401
19727WAT     H259424   7.610   8.813   5.451
19728WAT      O59425   1.634   3.761   4.830
19728WAT     H159426   1.679   3.794   4.913
19728WAT     H259427   1.668   3.813   4.752
19729WAT      O59428   0.790   5.325   9.828
19729WAT     H159429   0.813   5.395   9.894
19729WAT     H259430   0.697   5.339   9.794
19730WAT      O59431   2.911   6.738   6.204
19730WAT     H159432   2.938   6.726   6.109
19730WAT     H259433   2.904   6.835   6.225
19731WAT      O59434   6.981   3.297   0.558
19731WAT     H159435   6.998   3.288   0.460
19731WAT     H259436   7.067   3.285   0.608
19732WAT      O59437   1.768   5.546   2.153
19732WAT     H159438   1.675   5.574   2.176
19732WAT     H259439   1.826   5.627   2.144
19733WAT      O59440   7.857   9.720   4.028
19733WAT     H159441   7.951   9.739   3.999
19733WAT     H259442   7.858   9.684   4.121
19734WAT      O59443   8.419   3.768   6.658
19734WAT     H159444   8.340   3.759   6.719
19734WAT     H259445   8.387   3.788   6.565
19735WAT      O59446   1.473   8.202   8.493
19735WAT     H159447   1.463   8.300   8.506
19735WAT     H259448   1.563   8.182   8.454
19736WAT      O59449   4.378   2.262   1.149
19736WAT     H159450   4.416   2.179   1.191
19736WAT     H259451   4.375   2.250   1.050
19737WAT      O59452   9.166   3.269   1.692
19737WAT     H159453   9.069   3.270   1.718
19737WAT     H259454   9.189   3.353   1.644
19738WAT      O59455   3.211   7.807   8.441
19738WAT     H159456   3.124   7.780   8.400
19738WAT     H259457   3.279   7.737   8.423
19739WAT      O59458   7.816   5.183   7.365
19739WAT     H159459   7.849   5.141   7.449
19739WAT     H259460   7.888   5.243   7.328
19740WAT      O59461   0.642   8.973   5.603
19740WAT     H159462   0.602   8.903   5.662
19740WAT     H259463   0.576   9.047   5.590
19741WAT      O59464   9.686   4.139   3.953
19741WAT     H159465   9.692   4.180   4.044
19741WAT     H259466   9.607   4.177   3.905
19742WAT      O59467   2.272   4.652   8.976
19742WAT     H159468   2.294   4.600   9.058
19742WAT     H259469   2.209   4.726   8.999
19743WAT      O59470   7.839   8.515   4.502
19743WAT     H159471   7.750   8.480   4.473
19743WAT     H259472   7.904   8.440   4.509
19744WAT      O59473   9.399   7.100   7.193
19744WAT     H159474   9.410   7.060   7.103
19744WAT     H259475   9.360   7.191   7.185
19745WAT      O59476   8.599   3.128   6.138
19745WAT     H159477   8.564   3.128   6.232
19745WAT     H259478   8.631   3.220   6.115
19746WAT      O59479   6.619   5.503   9.710
19746WAT     H159480   6.535   5.556   9.710
19746WAT     H259481   6.697   5.564   9.695
19747WAT      O59482   5.184   6.960   6.773
19747WAT     H159483   5.169   6.925   6.865
19747WAT     H259484   5.180   7.060   6.774
19748WAT      O59485   4.391   8.504   9.695
19748WAT     H159486   4.364   8.520   9.790
19748WAT     H259487   4.327   8.550   9.634
19749WAT      O59488   3.588   6.291   1.964
19749WAT     H159489   3.501   6.263   2.005
19749WAT     H259490   3.611   6.383   1.994
19750WAT      O59491   0.131   1.434   7.201
19750WAT     H159492   0.036   1.465   7.195
19750WAT     H259493   0.181   1.493   7.264
19751WAT      O59494   5.361   7.861   9.010
19751WAT     H159495   5.449   7.814   9.004
19751WAT     H259496   5.315   7.859   8.921
19752WAT      O59497   7.046   3.578   7.128
19752WAT     H159498   6.989   3.511   7.081
19752WAT     H259499   7.142   3.563   7.106
19753WAT      O59500   6.631   6.088   2.354
19753WAT     H159501   6.689   6.169   2.348
19753WAT     H259502   6.675   6.012   2.305
19754WAT      O59503   8.164   1.000   0.750
19754WAT     H159504   8.136   1.093   0.769
19754WAT     H259505   8.095   0.936   0.783
19755WAT      O59506   9.121   5.655   7.924
19755WAT     H159507   9.077   5.610   8.002
19755WAT     H259508   9.141   5.750   7.947
19756WAT      O59509   5.280   6.556   9.821
19756WAT     H159510   5.336   6.553   9.904
19756WAT     H259511   5.197   6.501   9.835
19757WAT      O59512   2.082   6.678   0.067
19757WAT     H159513   2.098   6.626   0.151
19757WAT     H259514   2.145   6.647  -0.004
19758WAT      O59515   5.026   0.298   0.961
19758WAT     H159516   4.964   0.376   0.954
19758WAT     H259517   5.087   0.311   1.040
19759WAT      O59518   0.833   8.972   5.817
19759WAT     H159519   0.790   9.036   5.880
19759WAT     H259520   0.792   8.981   5.726
19760WAT      O59521   6.511   6.453   3.833
19760WAT     H159522   6.531   6.361   3.867
19760WAT     H259523   6.589   6.487   3.781
19761WAT      O59524   5.405   3.541   2.998
19761WAT     H159525   5.437   3.446   2.999
19761WAT     H259526   5.347   3.557   2.918
19762WAT      O59527   1.949   9.704   0.065
19762WAT     H159528   1.906   9.622   0.103
19762WAT     H259529   2.016   9.740   0.129
19763WAT      O59530   9.496   3.144   7.095
19763WAT     H159531   9.565   3.072   7.092
19763WAT     H259532   9.407   3.107   7.069
19764WAT      O59533   9.351   2.404   8.090
19764WAT     H159534   9.345   2.487   8.145
19764WAT     H259535   9.376   2.327   8.148
19765WAT      O59536   7.754   0.624   4.378
19765WAT     H159537   7.781   0.602   4.284
19765WAT     H259538   7.694   0.552   4.413
19766WAT      O59539   5.234   1.651   1.974
19766WAT     H159540   5.169   1.727   1.966
19766WAT     H259541   5.227   1.611   2.065
19767WAT      O59542   4.292   8.430   2.590
19767WAT     H159543   4.233   8.351   2.576
19767WAT     H259544   4.349   8.415   2.671
19768WAT      O59545   1.431   0.416   3.747
19768WAT     H159546   1.489   0.491   3.714
19768WAT     H259547   1.357   0.401   3.683
19769WAT      O59548   6.700   1.988   9.235
19769WAT     H159549   6.760   1.922   9.191
19769WAT     H259550   6.651   1.944   9.310
19770WAT      O59551   1.086   1.679   3.715
19770WAT     H159552   1.126   1.756   3.765
19770WAT     H259553   1.132   1.669   3.626
19771WAT      O59554   3.955   3.224   3.529
19771WAT     H159555   3.927   3.232   3.625
19771WAT     H259556   4.044   3.267   3.516
19772WAT      O59557   9.310   8.637   4.570
19772WAT     H159558   9.321   8.734   4.547
19772WAT     H259559   9.269   8.629   4.660
19773WAT      O59560   3.513   0.287   0.670
19773WAT     H159561   3.425   0.306   0.625
19773WAT     H259562   3.569   0.230   0.610
19774WAT      O59563   2.069   6.316   7.635
19774WAT     H159564   2.003   6.346   7.703
19774WAT     H259565   2.066   6.216   7.628
19775WAT      O59566   2.761   5.216   9.307
19775WAT     H159567   2.812   5.171   9.233
19775WAT     H259568   2.780   5.314   9.306
19776WAT      O59569   5.721   3.813   1.286
19776WAT     H159570   5.791   3.742   1.284
19776WAT     H259571   5.647   3.784   1.347
19777WAT      O59572   9.637   5.053   2.383
19777WAT     H159573   9.703   5.001   2.330
19777WAT     H259574   9.685   5.119   2.441
19778WAT      O59575   7.271   1.635   0.954
19778WAT     H159576   7.241   1.730   0.959
19778WAT     H259577   7.248   1.589   1.040
19779WAT      O59578   8.078   8.919   2.772
19779WAT     H159579   7.985   8.928   2.738
19779WAT     H259580   8.122   9.009   2.776
19780WAT      O59581   6.918   7.596   3.184
19780WAT     H159582   6.930   7.693   3.207
19780WAT     H259583   6.842   7.559   3.237
19781WAT      O59584   5.827   4.824   3.409
19781WAT     H159585   5.837   4.918   3.375
19781WAT     H259586   5.879   4.814   3.494
19782WAT      O59587   1.236   4.661   9.508
19782WAT     H159588   1.235   4.569   9.468
19782WAT     H259589   1.257   4.655   9.605
19783WAT      O59590   7.688   6.627   4.786
19783WAT     H159591   7.724   6.577   4.865
19783WAT     H259592   7.590   6.642   4.798
19784WAT      O59593   1.370   7.468   6.512
19784WAT     H159594   1.447   7.492   6.572
19784WAT     H259595   1.406   7.439   6.423
19785WAT      O59596   4.809   1.777   7.305
19785WAT     H159597   4.788   1.809   7.397
19785WAT     H259598   4.728   1.784   7.247
19786WAT      O59599   6.534   9.461   0.266
19786WAT     H159600   6.505   9.555   0.280
19786WAT     H259601   6.634   9.458   0.257
19787WAT      O59602   9.669   2.229   3.905
19787WAT     H159603   9.580   2.273   3.912
19787WAT     H259604   9.730   2.265   3.975
19788WAT      O59605   4.001   7.469   2.325
19788WAT     H159606   4.021   7.372   2.334
19788WAT     H259607   3.916   7.481   2.274
19789WAT      O59608   7.794   3.955   0.144
19789WAT     H159609   7.732   3.976   0.068
19789WAT     H259610   7.881   4.003   0.130
19790WAT      O59611   0.673   6.709   6.469
19790WAT     H159612   0.599   6.660   6.422
19790WAT     H259613   0.639   6.749   6.553
19791WAT      O59614   8.573   7.612   9.681
19791WAT     H159615   8.530   7.524   9.699
19791WAT     H259616   8.605   7.652   9.767
19792WAT      O59617   9.299   9.416   7.874
19792WAT     H159618   9.368   9.488   7.876
19792WAT     H259619   9.209   9.456   7.857
19793WAT      O59620   7.521   8.841   5.907
19793WAT     H159621   7.511   8.742   5.897
19793WAT     H259622   7.555   8.862   5.998
19794WAT      O59623   9.884   0.299   3.133
19794WAT     H159624   9.800   0.267   3.090
19794WAT     H259625   9.866   0.322   3.229
19795WAT      O59626   4.323   8.481   8.787
19795WAT     H159627   4.280   8.464   8.876
19795WAT     H259628   4.374   8.400   8.758
19796WAT      O59629   8.083   5.331   3.542
19796WAT     H159630   8.126   5.421   3.549
19796WAT     H259631   8.109   5.276   3.622
19797WAT      O59632   9.845   7.210   0.565
19797WAT     H159633   9.796   7.266   0.499
19797WAT     H259634   9.782   7.146   0.609
19798WAT      O59635   1.681   6.677   9.212
19798WAT     H159636   1.594   6.702   9.170
19798WAT     H259637   1.743   6.641   9.142
19799WAT      O59638   6.072   8.422   0.326
19799WAT     H159639   6.138   8.397   0.255
19799WAT     H259640   5.984   8.443   0.283
19800WAT      O59641   2.018   7.654   0.530
19800WAT     H159642   1.926   7.617   0.513
19800WAT     H259643   2.018   7.752   0.513
19801WAT      O59644   5.127   2.246   3.728
19801WAT     H159645   5.151   2.160   3.773
19801WAT     H259646   5.196   2.315   3.749
19802WAT      O59647   9.012   8.501   8.694
19802WAT     H159648   8.979   8.467   8.605
19802WAT     H259649   9.104   8.536   8.684
19803WAT      O59650   1.411   8.544   3.109
19803WAT     H159651   1.435   8.623   3.166
19803WAT     H259652   1.489   8.481   3.106
19804WAT      O59653   2.268   7.720   2.153
19804WAT     H159654   2.344   7.656   2.165
19804WAT     H259655   2.295   7.790   2.087
19805WAT      O59656   8.577   4.395   6.273
19805WAT     H159657   8.597   4.338   6.354
19805WAT     H259658   8.493   4.446   6.288
19806WAT      O59659   3.864   0.738   6.042
19806WAT     H159660   3.868   0.674   6.119
19806WAT     H259661   3.828   0.690   5.962
19807WAT      O59662   9.507   0.308   3.277
19807WAT     H159663   9.600   0.279   3.299
19807WAT     H259664   9.441   0.243   3.314
19808WAT      O59665   8.787   2.538   8.589
19808WAT     H159666   8.730   2.606   8.635
19808WAT     H259667   8.729   2.474   8.539
19809WAT      O59668   6.835   6.490   5.515
19809WAT     H159669   6.869   6.572   5.562
19809WAT     H259670   6.783   6.434   5.579
19810WAT      O59671   9.675   0.212   7.915
19810WAT     H159672   9.636   0.133   7.867
19810WAT     H259673   9.702   0.282   7.849
19811WAT      O59674   3.303   8.868   4.946
19811WAT     H159675   3.357   8.834   4.869
19811WAT     H259676   3.233   8.930   4.913
19812WAT      O59677   5.669   6.402   6.017
19812WAT     H159678   5.697   6.394   5.922
19812WAT     H259679   5.748   6.433   6.072
19813WAT      O59680   3.734   1.909   2.751
19813WAT     H159681   3.758   1.946   2.662
19813WAT     H259682   3.814   1.911   2.811
19814WAT      O59683   1.648   8.321   9.003
19814WAT     H159684   1.726   8.296   9.061
19814WAT     H259685   1.669   8.297   8.908
19815WAT      O59686   7.877   0.993   0.330
19815WAT     H159687   7.963   0.977   0.282
19815WAT     H259688   7.834   1.076   0.296
19816WAT      O59689   4.824   2.647   3.240
19816WAT     H159690   4.747   2.659   3.303
19816WAT     H259691   4.864   2.557   3.252
19817WAT      O59692   3.802   2.686   7.174
19817WAT     H159693   3.770   2.758   7.112
19817WAT     H259694   3.731   2.664   7.240
19818WAT      O59695   9.495   9.565   9.309
19818WAT     H159696   9.573   9.606   9.356
19818WAT     H259697   9.496   9.466   9.323
19819WAT      O59698   1.889   9.185   9.449
19819WAT     H159699   1.807   9.218   9.497
19819WAT     H259700   1.871   9.092   9.416
19820WAT      O59701   0.961   5.981   1.730
19820WAT     H159702   1.002   6.008   1.642
19820WAT     H259703   0.920   6.062   1.773
19821WAT      O59704   6.992   8.730   6.808
19821WAT     H159705   6.947   8.715   6.896
19821WAT     H259706   7.090   8.747   6.824
19822WAT      O59707   7.499   8.716   3.908
19822WAT     H159708   7.470   8.756   3.821
19822WAT     H259709   7.510   8.617   3.897
19823WAT      O59710   7.549   6.110   4.131
19823WAT     H159711   7.605   6.192   4.140
19823WAT     H259712   7.561   6.052   4.211
19824WAT      O59713   8.905   9.714   5.838
19824WAT     H159714   8.898   9.809   5.805
19824WAT     H259715   8.932   9.655   5.762
19825WAT      O59716   2.320   0.278   2.496
19825WAT     H159717   2.257   0.241   2.429
19825WAT     H259718   2.397   0.322   2.450
19826WAT      O59719   6.889   0.467   4.482
19826WAT     H159720   6.899   0.488   4.579
19826WAT     H259721   6.969   0.416   4.450
19827WAT      O59722   3.784   8.356   5.980
19827WAT     H159723   3.852   8.410   6.029
19827WAT     H259724   3.757   8.404   5.896
19828WAT      O59725   2.499   6.269   6.455
19828WAT     H159726   2.513   6.321   6.540
19828WAT     H259727   2.498   6.332   6.378
19829WAT      O59728   4.218   2.597   3.904
19829WAT     H159729   4.226   2.694   3.883
19829WAT     H259730   4.126   2.578   3.941
19830WAT      O59731   7.233   9.002   6.377
19830WAT     H159732   7.143   9.027   6.343
19830WAT     H259733   7.302   9.025   6.309
19831WAT      O59734   4.324   4.708   3.353
19831WAT     H159735   4.379   4.667   3.426
19831WAT     H259736   4.235   4.736   3.390
19832WAT      O59737   1.577   4.656   9.128
19832WAT     H159738   1.659   4.618   9.085
19832WAT     H259739   1.574   4.628   9.224
19833WAT      O59740   0.610   2.489   7.023
19833WAT     H159741   0.543   2.520   6.955
19833WAT     H259742   0.701   2.489   6.981
19834WAT      O59743   2.480   3.679   0.739
19834WAT     H159744   2.394   3.698   0.786
19834WAT     H259745   2.464   3.615   0.663
19835WAT      O59746   1.375   4.624   4.316
19835WAT     H159747   1.302   4.559   4.336
19835WAT     H259748   1.403   4.669   4.401
19836WAT      O59749   5.115   6.030   0.702
19836WAT     H159750   5.033   6.040   0.646
19836WAT     H259751   5.100   5.956   0.769
19837WAT      O59752   2.383   2.824   8.476
19837WAT     H159753   2.369   2.763   8.554
19837WAT     H259754   2.453   2.892   8.498
19838WAT      O59755   4.885   7.223   1.660
19838WAT     H159756   4.937   7.141   1.637
19838WAT     H259757   4.787   7.200   1.665
19839WAT      O59758   6.596   6.640   1.676
19839WAT     H159759   6.508   6.601   1.705
19839WAT     H259760   6.648   6.668   1.757
19840WAT      O59761   1.890   3.774   5.267
19840WAT     H159762   1.940   3.756   5.182
19840WAT     H259763   1.893   3.872   5.288
19841WAT      O59764   1.833   0.143   5.697
19841WAT     H159765   1.762   0.212   5.684
19841WAT     H259766   1.828   0.106   5.789
19842WAT      O59767   9.462   4.787   2.087
19842WAT     H159768   9.521   4.760   2.011
19842WAT     H259769   9.416   4.706   2.124
19843WAT      O59770   2.385   5.484   6.078
19843WAT     H159771   2.316   5.550   6.108
19843WAT     H259772   2.347   5.424   6.009
19844WAT      O59773   1.781   2.540   7.367
19844WAT     H159774   1.700   2.589   7.398
19844WAT     H259775   1.826   2.497   7.445
19845WAT      O59776   5.447   1.498   9.837
19845WAT     H159777   5.414   1.583   9.796
19845WAT     H259778   5.542   1.483   9.811
19846WAT      O59779   6.123   5.065   7.096
19846WAT     H159780   6.133   5.081   7.194
19846WAT     H259781   6.053   5.126   7.058
19847WAT      O59782   6.144   8.999   5.446
19847WAT     H159783   6.066   9.047   5.486
19847WAT     H259784   6.154   9.026   5.350
19848WAT      O59785   2.304   8.562   3.489
19848WAT     H159786   2.387   8.538   3.440
19848WAT     H259787   2.293   8.662   3.489
19849WAT      O59788   6.290   2.657   3.226
19849WAT     H159789   6.235   2.739   3.208
19849WAT     H259790   6.342   2.670   3.310
19850WAT      O59791   3.618   3.845   0.583
19850WAT     H159792   3.648   3.892   0.500
19850WAT     H259793   3.568   3.762   0.558
19851WAT      O59794   6.366   8.652   4.341
19851WAT     H159795   6.287   8.714   4.347
19851WAT     H259796   6.354   8.577   4.406
19852WAT      O59797   0.955   5.014   4.440
19852WAT     H159798   0.988   5.071   4.365
19852WAT     H259799   0.934   5.072   4.519
19853WAT      O59800   4.563   1.361   6.878
19853WAT     H159801   4.572   1.291   6.949
19853WAT     H259802   4.479   1.413   6.893
19854WAT      O59803   6.961   9.200   5.958
19854WAT     H159804   7.009   9.217   5.872
19854WAT     H259805   6.862   9.199   5.941
19855WAT      O59806   2.981   7.432   3.954
19855WAT     H159807   2.916   7.368   3.913
19855WAT     H259808   3.074   7.409   3.926
19856WAT      O59809   0.010   0.226   9.234
19856WAT     H159810   0.043   0.297   9.171
19856WAT     H259811   0.060   0.141   9.218
19857WAT      O59812   5.189   0.938   8.543
19857WAT     H159813   5.256   1.008   8.517
19857WAT     H259814   5.147   0.899   8.460
19858WAT      O59815   7.292   7.789   5.183
19858WAT     H159816   7.351   7.752   5.255
19858WAT     H259817   7.294   7.729   5.103
19859WAT      O59818   8.854   9.307   8.974
19859WAT     H159819   8.942   9.273   9.006
19859WAT     H259820   8.796   9.231   8.946
19860WAT      O59821   7.430   8.054   9.403
19860WAT     H159822   7.414   7.976   9.464
19860WAT     H259823   7.465   8.131   9.456
19861WAT      O59824   0.069   7.303   7.982
19861WAT     H159825   0.130   7.245   8.037
19861WAT     H259826   0.059   7.263   7.891
19862WAT      O59827   6.516   5.249   9.724
19862WAT     H159828   6.425   5.267   9.688
19862WAT     H259829   6.568   5.334   9.729
19863WAT      O59830   6.487   6.529   7.249
19863WAT     H159831   6.568   6.471   7.246
19863WAT     H259832   6.427   6.498   7.323
19864WAT      O59833   7.477   6.240   9.091
19864WAT     H159834   7.561   6.271   9.135
19864WAT     H259835   7.439   6.163   9.142
19865WAT      O59836   2.694   5.971   0.807
19865WAT     H159837   2.605   5.946   0.768
19865WAT     H259838   2.741   5.890   0.840
19866WAT      O59839   9.138   3.395   8.884
19866WAT     H159840   9.110   3.480   8.929
19866WAT     H259841   9.114   3.400   8.787
19867WAT      O59842   8.108   9.012   4.108
19867WAT     H159843   8.143   9.045   4.021
19867WAT     H259844   8.084   9.090   4.166
19868WAT      O59845   2.378   9.506   6.831
19868WAT     H159846   2.394   9.506   6.930
19868WAT     H259847   2.415   9.590   6.791
19869WAT      O59848   8.650   1.298   0.308
19869WAT     H159849   8.633   1.358   0.386
19869WAT     H259850   8.572   1.235   0.297
19870WAT      O59851   3.309   5.699   1.287
19870WAT     H159852   3.407   5.675   1.286
19870WAT     H259853   3.258   5.628   1.239
19871WAT      O59854   2.578   4.624   9.421
19871WAT     H159855   2.561   4.669   9.509
19871WAT     H259856   2.676   4.622   9.402
19872WAT      O59857   0.241   4.772   2.389
19872WAT     H159858   0.290   4.707   2.331
19872WAT     H259859   0.299   4.852   2.406
19873WAT      O59860   0.136   2.721   6.276
19873WAT     H159861   0.151   2.630   6.315
19873WAT     H259862   0.160   2.721   6.179
19874WAT      O59863   6.271   4.323   0.250
19874WAT     H159864   6.180   4.291   0.276
19874WAT     H259865   6.328   4.246   0.226
19875WAT      O59866   7.555   7.783   0.657
19875WAT     H159867   7.552   7.692   0.698
19875WAT     H259868   7.555   7.776   0.557
19876WAT      O59869   6.708   5.963   9.527
19876WAT     H159870   6.741   5.870   9.512
19876WAT     H259871   6.712   6.014   9.441
19877WAT      O59872   2.769   1.539   0.634
19877WAT     H159873   2.858   1.507   0.600
19877WAT     H259874   2.750   1.494   0.722
19878WAT      O59875   3.048   0.289   0.135
19878WAT     H159876   2.962   0.309   0.088
19878WAT     H259877   3.061   0.189   0.137
19879WAT      O59878   1.577   2.886   0.382
19879WAT     H159879   1.672   2.875   0.354
19879WAT     H259880   1.571   2.956   0.454
19880WAT      O59881   8.539   9.143   2.490
19880WAT     H159882   8.578   9.187   2.571
19880WAT     H259883   8.529   9.211   2.417
19881WAT      O59884   9.826   7.146   1.796
19881WAT     H159885   9.844   7.239   1.764
19881WAT     H259886   9.884   7.126   1.874
19882WAT      O59887   4.910   5.574   6.708
19882WAT     H159888   4.961   5.491   6.686
19882WAT     H259889   4.863   5.562   6.795
19883WAT      O59890   3.171   5.494   1.175
19883WAT     H159891   3.152   5.432   1.099
19883WAT     H259892   3.085   5.514   1.223
19884WAT      O59893   0.122   9.807   8.663
19884WAT     H159894   0.179   9.883   8.695
19884WAT     H259895   0.025   9.828   8.679
19885WAT      O59896   1.659   6.777   8.858
19885WAT     H159897   1.606   6.838   8.917
19885WAT     H259898   1.662   6.814   8.765
19886WAT      O59899   2.193   1.074   3.252
19886WAT     H159900   2.280   1.124   3.251
19886WAT     H259901   2.189   1.016   3.334
19887WAT      O59902   5.413   7.907   5.638
19887WAT     H159903   5.413   8.007   5.641
19887WAT     H259904   5.506   7.873   5.655
19888WAT      O59905   7.230   1.876   8.166
19888WAT     H159906   7.209   1.882   8.068
19888WAT     H259907   7.147   1.892   8.219
19889WAT      O59908   3.941   1.357   4.660
19889WAT     H159909   3.978   1.280   4.609
19889WAT     H259910   3.841   1.355   4.656
19890WAT      O59911   1.337   0.236   8.889
19890WAT     H159912   1.384   0.156   8.928
19890WAT     H259913   1.273   0.272   8.956
19891WAT      O59914   1.247   0.359   4.197
19891WAT     H159915   1.306   0.393   4.271
19891WAT     H259916   1.281   0.269   4.168
19892WAT      O59917   6.365   6.109   8.357
19892WAT     H159918   6.351   6.079   8.263
19892WAT     H259919   6.463   6.110   8.377
19893WAT      O59920   6.855   5.678   9.751
19893WAT     H159921   6.870   5.665   9.653
19893WAT     H259922   6.835   5.774   9.770
19894WAT      O59923   1.654   7.146   4.611
19894WAT     H159924   1.624   7.184   4.523
19894WAT     H259925   1.600   7.064   4.632
19895WAT      O59926   9.177   8.381   4.011
19895WAT     H159927   9.081   8.408   4.013
19895WAT     H259928   9.199   8.344   3.920
19896WAT      O59929   4.933   9.641   2.305
19896WAT     H159930   4.982   9.727   2.292
19896WAT     H259931   4.891   9.613   2.218
19897WAT      O59932   0.285   4.409   8.099
19897WAT     H159933   0.268   4.345   8.174
19897WAT     H259934   0.198   4.436   8.058
19898WAT      O59935   9.062   8.018   4.858
19898WAT     H159936   9.146   8.061   4.826
19898WAT     H259937   9.024   7.961   4.785
19899WAT      O59938   0.762   0.906   5.519
19899WAT     H159939   0.830   0.955   5.572
19899WAT     H259940   0.718   0.837   5.576
19900WAT      O59941   9.130   3.063   3.144
19900WAT     H159942   9.161   3.106   3.060
19900WAT     H259943   9.191   2.986   3.167
19901WAT      O59944   5.813   8.490   0.862
19901WAT     H159945   5.815   8.410   0.802
19901WAT     H259946   5.904   8.504   0.902
19902WAT      O59947   3.137   7.224   2.431
19902WAT     H159948   3.112   7.291   2.501
19902WAT     H259949   3.055   7.179   2.396
19903WAT      O59950   3.096   1.779   5.160
19903WAT     H159951   3.076   1.684   5.184
19903WAT     H259952   3.132   1.827   5.241
19904WAT      O59953   0.614   3.813   8.999
19904WAT     H159954   0.686   3.868   8.956
19904WAT     H259955   0.581   3.861   9.081
19905WAT      O59956   6.800   8.925   1.246
19905WAT     H159957   6.749   8.984   1.183
19905WAT     H259958   6.777   8.949   1.340
19906WAT      O59959   0.477   8.894   1.489
19906WAT     H159960   0.379   8.916   1.490
19906WAT     H259961   0.497   8.835   1.410
19907WAT      O59962   8.942   6.128   1.992
19907WAT     H159963   8.959   6.205   2.053
19907WAT     H259964   8.930   6.044   2.047
19908WAT      O59965   7.404   7.015   7.340
19908WAT     H159966   7.474   7.040   7.407
19908WAT     H259967   7.386   7.093   7.281
19909WAT      O59968   1.276   0.078   8.310
19909WAT     H159969   1.242   0.131   8.388
19909WAT     H259970   1.372   0.099   8.295
19910WAT      O59971   7.684   4.144   9.138
19910WAT     H159972   7.599   4.196   9.131
19910WAT     H259973   7.704   4.125   9.234
19911WAT      O59974   7.653   8.757   9.518
19911WAT     H159975   7.599   8.709   9.449
19911WAT     H259976   7.698   8.690   9.577
19912WAT      O59977   5.224   7.594   2.160
19912WAT     H159978   5.262   7.636   2.079
19912WAT     H259979   5.207   7.497   2.143
19913WAT      O59980   3.538   1.450   6.397
19913WAT     H159981   3.614   1.498   6.354
19913WAT     H259982   3.481   1.408   6.326
19914WAT      O59983   9.609   5.299   7.772
19914WAT     H159984   9.552   5.235   7.720
19914WAT     H259985   9.646   5.368   7.711
19915WAT      O59986   9.241   9.567   1.248
19915WAT     H159987   9.220   9.665   1.247
19915WAT     H259988   9.271   9.538   1.157
19916WAT      O59989   8.306   5.113   6.646
19916WAT     H159990   8.248   5.147   6.572
19916WAT     H259991   8.385   5.174   6.657
19917WAT      O59992   8.240   0.142   3.188
19917WAT     H159993   8.179   0.113   3.262
19917WAT     H259994   8.218   0.236   3.162
19918WAT      O59995   0.222   0.713   9.470
19918WAT     H159996   0.308   0.764   9.469
19918WAT     H259997   0.234   0.625   9.425
19919WAT      O59998   3.363   7.152   4.116
19919WAT     H159999   3.426   7.092   4.067
19919WAT     H260000   3.307   7.203   4.050
19920WAT      O60001   4.405   1.622   7.150
19920WAT     H160002   4.412   1.547   7.215
19920WAT     H260003   4.370   1.587   7.063
19921WAT      O60004   6.136   1.734   9.561
19921WAT     H160005   6.169   1.795   9.633
19921WAT     H260006   6.146   1.780   9.473
19922WAT      O60007   1.522   7.671   3.333
19922WAT     H160008   1.532   7.665   3.234
19922WAT     H260009   1.608   7.648   3.378
19923WAT      O60010   0.616   6.422   8.215
19923WAT     H160011   0.523   6.386   8.214
19923WAT     H260012   0.663   6.392   8.298
19924WAT      O60013   6.664   0.257   5.606
19924WAT     H160014   6.588   0.201   5.572
19924WAT     H260015   6.654   0.272   5.704
19925WAT      O60016   7.133   6.904   6.709
19925WAT     H160017   7.172   6.924   6.799
19925WAT     H260018   7.036   6.883   6.719
19926WAT      O60019   3.569   1.873   6.117
19926WAT     H160020   3.642   1.835   6.173
19926WAT     H260021   3.604   1.894   6.026
19927WAT      O60022   9.729   0.554   5.548
19927WAT     H160023   9.818   0.564   5.592
19927WAT     H260024   9.740   0.557   5.449
19928WAT      O60025   3.222   5.707   0.755
19928WAT     H160026   3.198   5.735   0.662
19928WAT     H260027   3.169   5.761   0.820
19929WAT      O60028   4.150   4.259   3.667
19929WAT     H160029   4.224   4.204   3.706
19929WAT     H260030   4.066   4.205   3.665
19930WAT      O60031   4.475   8.589   1.588
19930WAT     H160032   4.558   8.644   1.598
19930WAT     H260033   4.482   8.533   1.506
19931WAT      O60034   0.979   3.804   3.013
19931WAT     H160035   1.041   3.870   2.971
19931WAT     H260036   0.968   3.827   3.110
19932WAT      O60037   3.473   6.588   1.522
19932WAT     H160038   3.491   6.681   1.554
19932WAT     H260039   3.455   6.528   1.600
19933WAT      O60040   0.645   4.239   1.316
19933WAT     H160041   0.562   4.183   1.314
19933WAT     H260042   0.726   4.179   1.313
19934WAT      O60043   2.647   5.871   2.727
19934WAT     H160044   2.631   5.946   2.663
19934WAT     H260045   2.708   5.901   2.800
19935WAT      O60046   7.566   5.253   7.719
19935WAT     H160047   7.540   5.157   7.711
19935WAT     H260048   7.490   5.311   7.692
19936WAT      O60049   0.619   3.985   3.756
19936WAT     H160050   0.560   3.925   3.701
19936WAT     H260051   0.657   4.057   3.698
19937WAT      O60052   5.504   9.542   1.621
19937WAT     H160053   5.459   9.592   1.695
19937WAT     H260054   5.484   9.445   1.630
19938WAT      O60055   2.371   7.282   5.140
19938WAT     H160056   2.437   7.287   5.066
19938WAT     H260057   2.281   7.259   5.103
19939WAT      O60058   6.155   9.236   9.660
19939WAT     H160059   6.061   9.231   9.695
19939WAT     H260060   6.217   9.261   9.734
19940WAT      O60061   0.215   6.083   8.166
19940WAT     H160062   0.119   6.113   8.161
19940WAT     H260063   0.225   5.997   8.117
19941WAT      O60064   2.555   5.277   9.483
19941WAT     H160065   2.475   5.219   9.499
19941WAT     H260066   2.595   5.255   9.394
19942WAT      O60067   3.199   6.496   5.889
19942WAT     H160068   3.207   6.408   5.841
19942WAT     H260069   3.281   6.511   5.944
19943WAT      O60070   9.835   3.507   4.630
19943WAT     H160071   9.770   3.577   4.659
19943WAT     H260072   9.804   3.466   4.544
19944WAT      O60073   9.173   5.020   1.607
19944WAT     H160074   9.164   5.094   1.674
19944WAT     H260075   9.264   5.024   1.566
19945WAT      O60076   5.613   5.217   8.122
19945WAT     H160077   5.575   5.283   8.186
19945WAT     H260078   5.627   5.262   8.033
19946WAT      O60079   8.423   2.517   3.761
19946WAT     H160080   8.497   2.456   3.789
19946WAT     H260081   8.452   2.612   3.772
19947WAT      O60082   1.752   0.640   5.067
19947WAT     H160083   1.686   0.696   5.017
19947WAT     H260084   1.804   0.698   5.130
19948WAT      O60085   2.925   2.974   1.726
19948WAT     H160086   2.861   2.917   1.673
19948WAT     H260087   2.936   3.062   1.680
19949WAT      O60088   3.809   6.714   9.193
19949WAT     H160089   3.775   6.805   9.169
19949WAT     H260090   3.742   6.667   9.251
19950WAT      O60091   0.627   7.706   4.963
19950WAT     H160092   0.627   7.666   5.055
19950WAT     H260093   0.679   7.647   4.901
19951WAT      O60094   4.125   5.081   0.373
19951WAT     H160095   4.068   5.001   0.358
19951WAT     H260096   4.154   5.119   0.285
19952WAT      O60097   1.458   3.644   9.626
19952WAT     H160098   1.541   3.631   9.681
19952WAT     H260099   1.442   3.562   9.571
19953WAT      O60100   4.457   3.436   4.859
19953WAT     H160101   4.436   3.532   4.878
19953WAT     H260102   4.373   3.381   4.868
19954WAT      O60103   6.129   8.963   3.438
19954WAT     H160104   6.201   8.947   3.506
19954WAT     H260105   6.054   8.899   3.452
19955WAT      O60106   1.770   4.199   6.404
19955WAT     H160107   1.815   4.245   6.327
19955WAT     H260108   1.795   4.245   6.489
19956WAT      O60109   6.717   2.684   5.192
19956WAT     H160110   6.728   2.742   5.112
19956WAT     H260111   6.802   2.636   5.211
19957WAT      O60112   4.797   0.309   2.057
19957WAT     H160113   4.838   0.399   2.072
19957WAT     H260114   4.725   0.294   2.126
19958WAT      O60115   7.283   5.268   0.843
19958WAT     H160116   7.240   5.264   0.753
19958WAT     H260117   7.351   5.341   0.844
19959WAT      O60118   5.262   4.032   9.753
19959WAT     H160119   5.357   4.063   9.749
19959WAT     H260120   5.214   4.082   9.825
19960WAT      O60121   8.449   2.190   6.569
19960WAT     H160122   8.492   2.183   6.659
19960WAT     H260123   8.355   2.222   6.581
19961WAT      O60124   1.505   5.775   7.506
19961WAT     H160125   1.522   5.803   7.601
19961WAT     H260126   1.593   5.768   7.458
19962WAT      O60127   5.192   1.420   1.150
19962WAT     H160128   5.201   1.473   1.065
19962WAT     H260129   5.283   1.405   1.189
19963WAT      O60130   4.975   2.391   8.996
19963WAT     H160131   4.923   2.379   8.912
19963WAT     H260132   4.967   2.486   9.027
19964WAT      O60133   3.401   6.933   7.816
19964WAT     H160134   3.438   6.988   7.891
19964WAT     H260135   3.381   6.841   7.849
19965WAT      O60136   8.869   0.459   3.467
19965WAT     H160137   8.953   0.462   3.413
19965WAT     H260138   8.889   0.421   3.557
19966WAT      O60139   5.091   5.758   9.616
19966WAT     H160140   5.120   5.712   9.532
19966WAT     H260141   5.167   5.760   9.680
19967WAT      O60142   9.817   5.446   3.270
19967WAT     H160143   9.864   5.466   3.184
19967WAT     H260144   9.848   5.358   3.305
19968WAT      O60145   2.112   1.049   1.337
19968WAT     H160146   2.091   1.045   1.239
19968WAT     H260147   2.206   1.019   1.352
19969WAT      O60148   0.853   0.048   6.601
19969WAT     H160149   0.822  -0.042   6.631
19969WAT     H260150   0.943   0.040   6.559
19970WAT      O60151   3.075   1.497   4.944
19970WAT     H160152   3.141   1.566   4.916
19970WAT     H260153   3.097   1.410   4.899
19971WAT      O60154   8.260   1.698   1.876
19971WAT     H160155   8.252   1.650   1.789
19971WAT     H260156   8.347   1.747   1.880
19972WAT      O60157   8.394   1.103   2.156
19972WAT     H160158   8.302   1.103   2.196
19972WAT     H260159   8.438   1.190   2.175
19973WAT      O60160   8.564   6.725   4.370
19973WAT     H160161   8.537   6.632   4.393
19973WAT     H260162   8.490   6.770   4.319
19974WAT      O60163   3.738   3.094   8.518
19974WAT     H160164   3.746   2.994   8.528
19974WAT     H260165   3.730   3.117   8.421
19975WAT      O60166   9.533   0.274   1.498
19975WAT     H160167   9.588   0.289   1.416
19975WAT     H260168   9.477   0.354   1.516
19976WAT      O60169   9.461   3.100   8.766
19976WAT     H160170   9.381   3.128   8.713
19976WAT     H260171   9.526   3.054   8.705
19977WAT      O60172   2.034   5.538   7.393
19977WAT     H160173   1.958   5.539   7.328
19977WAT     H260174   2.093   5.460   7.375
19978WAT      O60175   8.960   4.871   4.287
19978WAT     H160176   8.946   4.857   4.189
19978WAT     H260177   9.056   4.851   4.309
19979WAT      O60178   3.359   5.669   0.112
19979WAT     H160179   3.289   5.622   0.059
19979WAT     H260180   3.421   5.602   0.153
19980WAT      O60181   6.779   8.066   4.801
19980WAT     H160182   6.848   7.999   4.826
19980WAT     H260183   6.810   8.117   4.720
19981WAT      O60184   2.948   9.604   7.417
19981WAT     H160185   2.982   9.695   7.442
19981WAT     H260186   2.951   9.594   7.317
19982WAT      O60187   9.032   0.885   6.755
19982WAT     H160188   9.068   0.883   6.662
19982WAT     H260189   8.957   0.819   6.763
19983WAT      O60190   7.063   7.822   1.955
19983WAT     H160191   7.121   7.833   1.874
19983WAT     H260192   7.118   7.837   2.038
19984WAT      O60193   0.958   0.304   6.639
19984WAT     H160194   0.910   0.217   6.645
19984WAT     H260195   1.020   0.303   6.561
19985WAT      O60196   5.386   3.630   2.422
19985WAT     H160197   5.418   3.537   2.435
19985WAT     H260198   5.290   3.629   2.392
19986WAT      O60199   6.836   7.541   4.685
19986WAT     H160200   6.757   7.597   4.711
19986WAT     H260201   6.905   7.598   4.640
19987WAT      O60202   5.465   3.621   8.860
19987WAT     H160203   5.538   3.683   8.889
19987WAT     H260204   5.377   3.669   8.861
19988WAT      O60205   0.492   3.581   7.371
19988WAT     H160206   0.483   3.660   7.311
19988WAT     H260207   0.578   3.534   7.351
19989WAT      O60208   5.712   3.548   2.479
19989WAT     H160209   5.637   3.492   2.445
19989WAT     H260210   5.694   3.577   2.573
19990WAT      O60211   1.184   0.258   3.566
19990WAT     H160212   1.155   0.233   3.659
19990WAT     H260213   1.198   0.357   3.561
19991WAT      O60214   7.069   9.511   3.735
19991WAT     H160215   6.999   9.440   3.742
19991WAT     H260216   7.091   9.527   3.639
19992WAT      O60217   1.400   8.331   0.133
19992WAT     H160218   1.315   8.279   0.139
19992WAT     H260219   1.428   8.359   0.225
19993WAT      O60220   2.798   5.138   0.497
19993WAT     H160221   2.832   5.224   0.459
19993WAT     H260222   2.828   5.129   0.592
19994WAT      O60223   2.792   9.718   4.164
19994WAT     H160224   2.704   9.750   4.200
19994WAT     H260225   2.856   9.795   4.159
19995WAT      O60226   3.528   3.932   3.658
19995WAT     H160227   3.628   3.931   3.660
19995WAT     H260228   3.493   3.877   3.733
19996WAT      O60229   7.297   3.680   2.055
19996WAT     H160230   7.383   3.729   2.041
19996WAT     H260231   7.252   3.667   1.967
19997WAT      O60232   8.357   1.065   7.690
19997WAT     H160233   8.432   1.030   7.746
19997WAT     H260234   8.365   1.165   7.683
19998WAT      O60235   1.148   4.976   4.101
19998WAT     H160236   1.086   5.036   4.152
19998WAT     H260237   1.185   5.027   4.023
19999WAT      O60238   3.224   8.410   0.651
19999WAT     H160239   3.149   8.371   0.597
19999WAT     H260240   3.186   8.457   0.731
20000WAT      O60241   7.567   7.041   7.600
20000WAT     H160242   7.530   7.131   7.623
20000WAT     H260243   7.600   6.996   7.683
20001WAT      O60244   5.605   5.088   0.058
20001WAT     H160245   5.632   5.111  -0.035
20001WAT     H260246   5.669   5.130   0.123
20002WAT      O60247   0.179   2.051   1.733
20002WAT     H160248   0.164   2.066   1.831
20002WAT     H260249   0.208   2.136   1.690
20003WAT      O60250   7.572   8.607   7.157
20003WAT     H160251   7.513   8.528   7.145
20003WAT     H260252   7.666   8.576   7.173
20004WAT      O60253   2.581   4.273   5.269
20004WAT     H160254   2.570   4.267   5.368
20004WAT     H260255   2.674   4.246   5.243
20005WAT      O60256   8.445   7.090   6.690
20005WAT     H160257   8.365   7.032   6.704
20005WAT     H260258   8.451   7.156   6.764
20006WAT      O60259   4.534   8.035   8.450
20006WAT     H160260   4.607   8.071   8.509
20006WAT     H260261   4.481   8.111   8.413
20007WAT      O60262   8.034   3.461   3.759
20007WAT     H160263   7.951   3.504   3.724
20007WAT     H260264   8.024   3.362   3.758
20008WAT      O60265   1.259   9.543   6.941
20008WAT     H160266   1.276   9.525   6.844
20008WAT     H260267   1.183   9.606   6.951
20009WAT      O60268   3.105   9.621   6.925
20009WAT     H160269   3.102   9.559   6.847
20009WAT     H260270   3.175   9.590   6.990
20010WAT      O60271   2.767   4.220   7.397
20010WAT     H160272   2.743   4.175   7.311
20010WAT     H260273   2.779   4.318   7.382
20011WAT      O60274   0.885   3.561   2.812
20011WAT     H160275   0.894   3.653   2.774
20011WAT     H260276   0.897   3.564   2.911
20012WAT      O60277   1.283   3.992   5.255
20012WAT     H160278   1.199   4.014   5.206
20012WAT     H260279   1.341   3.934   5.199
20013WAT      O60280   3.531   6.690   4.850
20013WAT     H160281   3.573   6.766   4.800
20013WAT     H260282   3.591   6.610   4.846
20014WAT      O60283   6.631   4.924   5.195
20014WAT     H160284   6.561   4.968   5.139
20014WAT     H260285   6.662   4.840   5.149
20015WAT      O60286   0.503   7.270   3.735
20015WAT     H160287   0.459   7.219   3.662
20015WAT     H260288   0.582   7.219   3.768
20016WAT      O60289   2.745   3.572   4.298
20016WAT     H160290   2.650   3.546   4.314
20016WAT     H260291   2.751   3.669   4.279
20017WAT      O60292   0.564   0.631   8.778
20017WAT     H160293   0.526   0.592   8.694
20017WAT     H260294   0.491   0.651   8.843
20018WAT      O60295   5.189   8.104   5.343
20018WAT     H160296   5.093   8.134   5.339
20018WAT     H260297   5.205   8.055   5.429
20019WAT      O60298   0.600   9.193   8.034
20019WAT     H160299   0.657   9.172   8.114
20019WAT     H260300   0.645   9.158   7.951
20020WAT      O60301   1.751   9.275   8.240
20020WAT     H160302   1.745   9.227   8.153
20020WAT     H260303   1.820   9.347   8.234
20021WAT      O60304   2.316   1.084   0.444
20021WAT     H160305   2.364   0.997   0.449
20021WAT     H260306   2.281   1.109   0.535
20022WAT      O60307   4.871   4.073   9.226
20022WAT     H160308   4.789   4.125   9.203
20022WAT     H260309   4.950   4.111   9.177
20023WAT      O60310   3.715   6.658   3.858
20023WAT     H160311   3.629   6.618   3.826
20023WAT     H260312   3.719   6.754   3.832
20024WAT      O60313   6.819   3.460   9.192
20024WAT     H160314   6.904   3.452   9.140
20024WAT     H260315   6.758   3.524   9.146
20025WAT      O60316   1.831   3.675   3.214
20025WAT     H160317   1.918   3.661   3.166
20025WAT     H260318   1.791   3.762   3.185
20026WAT      O60319   1.728   5.870   2.496
20026WAT     H160320   1.715   5.837   2.590
20026WAT     H260321   1.749   5.968   2.498
20027WAT      O60322   4.064   5.769   2.737
20027WAT     H160323   4.032   5.857   2.703
20027WAT     H260324   4.127   5.729   2.671
20028WAT      O60325   2.501   9.347   6.570
20028WAT     H160326   2.453   9.415   6.514
20028WAT     H260327   2.439   9.310   6.639
20029WAT      O60328   1.086   7.390   3.560
20029WAT     H160329   1.111   7.293   3.557
20029WAT     H260330   1.154   7.440   3.612
20030WAT      O60331   5.063   7.128   7.900
20030WAT     H160332   5.015   7.045   7.927
20030WAT     H260333   5.088   7.122   7.803
20031WAT      O60334   2.356   5.977   8.284
20031WAT     H160335   2.381   5.898   8.340
20031WAT     H260336   2.263   5.965   8.249
20032WAT      O60337   8.178   8.077   5.213
20032WAT     H160338   8.193   8.009   5.141
20032WAT     H260339   8.266   8.104   5.252
20033WAT      O60340   8.078   9.655   1.660
20033WAT     H160341   8.139   9.576   1.656
20033WAT     H260342   8.009   9.647   1.588
20034WAT      O60343   7.712   6.551   5.388
20034WAT     H160344   7.673   6.481   5.447
20034WAT     H260345   7.789   6.513   5.337
20035WAT      O60346   3.797   8.611   5.505
20035WAT     H160347   3.885   8.620   5.551
20035WAT     H260348   3.809   8.623   5.406
20036WAT      O60349   8.290   0.794   2.189
20036WAT     H160350   8.314   0.801   2.092
20036WAT     H260351   8.191   0.787   2.198
20037WAT      O60352   7.654   5.998   5.487
20037WAT     H160353   7.701   6.015   5.400
20037WAT     H260354   7.555   6.005   5.473
20038WAT      O60355   0.729   8.592   7.934
20038WAT     H160356   0.662   8.647   7.985
20038WAT     H260357   0.691   8.567   7.845
20039WAT      O60358   6.721   1.395   3.661
20039WAT     H160359   6.739   1.379   3.564
20039WAT     H260360   6.687   1.488   3.673
20040WAT      O60361   5.830   4.671   0.863
20040WAT     H160362   5.875   4.582   0.872
20040WAT     H260363   5.829   4.717   0.951
20041WAT      O60364   6.994   1.575   6.689
20041WAT     H160365   7.006   1.674   6.705
20041WAT     H260366   7.034   1.524   6.765
20042WAT      O60367   5.572   2.701   4.202
20042WAT     H160368   5.540   2.770   4.267
20042WAT     H260369   5.494   2.664   4.151
20043WAT      O60370   6.194   8.213   8.627
20043WAT     H160371   6.105   8.251   8.653
20043WAT     H260372   6.267   8.273   8.662
20044WAT      O60373   8.802   9.398   6.233
20044WAT     H160374   8.774   9.457   6.310
20044WAT     H260375   8.898   9.417   6.210
20045WAT      O60376   2.076   6.684   5.383
20045WAT     H160377   2.069   6.739   5.466
20045WAT     H260378   1.988   6.681   5.337
20046WAT      O60379   0.172   6.007   9.026
20046WAT     H160380   0.102   5.949   8.983
20046WAT     H260381   0.261   5.985   8.988
20047WAT      O60382   1.245   8.657   0.688
20047WAT     H160383   1.150   8.630   0.706
20047WAT     H260384   1.267   8.641   0.592
20048WAT      O60385   6.295   4.224   1.075
20048WAT     H160386   6.253   4.233   0.984
20048WAT     H260387   6.249   4.284   1.139
20049WAT      O60388   7.089   6.275   0.830
20049WAT     H160389   7.165   6.254   0.892
20049WAT     H260390   7.014   6.318   0.882
20050WAT      O60391   6.874   8.361   2.739
20050WAT     H160392   6.816   8.280   2.750
20050WAT     H260393   6.937   8.347   2.663
20051WAT      O60394   2.819   3.691   9.374
20051WAT     H160395   2.914   3.721   9.370
20051WAT     H260396   2.807   3.609   9.318
20052WAT      O60397   4.456   9.458   8.035
20052WAT     H160398   4.467   9.521   8.112
20052WAT     H260399   4.482   9.505   7.950
20053WAT      O60400   0.100   0.147   2.726
20053WAT     H160401   0.009   0.115   2.702
20053WAT     H260402   0.093   0.232   2.779
20054WAT      O60403   8.703   8.354   5.912
20054WAT     H160404   8.725   8.264   5.947
20054WAT     H260405   8.617   8.386   5.952
20055WAT      O60406   9.703   4.733   6.665
20055WAT     H160407   9.610   4.767   6.679
20055WAT     H260408   9.762   4.766   6.739
20056WAT      O60409   5.195   3.170   7.764
20056WAT     H160410   5.288   3.147   7.792
20056WAT     H260411   5.145   3.207   7.842
20057WAT      O60412   4.048   2.358   1.526
20057WAT     H160413   4.084   2.451   1.525
20057WAT     H260414   3.949   2.361   1.513
20058WAT      O60415   8.113   3.392   9.868
20058WAT     H160416   8.124   3.331   9.947
20058WAT     H260417   8.021   3.432   9.869
20059WAT      O60418   1.126   6.952   0.515
20059WAT     H160419   1.130   7.014   0.436
20059WAT     H260420   1.033   6.950   0.550
20060WAT      O60421   1.662   2.448   6.878
20060WAT     H160422   1.572   2.493   6.874
20060WAT     H260423   1.678   2.418   6.972
20061WAT      O60424   2.483   2.221   8.801
20061WAT     H160425   2.440   2.276   8.728
20061WAT     H260426   2.550   2.159   8.760
20062WAT      O60427   7.798   0.250   0.471
20062WAT     H160428   7.812   0.151   0.466
20062WAT     H260429   7.737   0.278   0.397
20063WAT      O60430   0.850   7.623   5.663
20063WAT     H160431   0.933   7.582   5.701
20063WAT     H260432   0.841   7.717   5.696
20064WAT      O60433   4.802   5.814   1.444
20064WAT     H160434   4.772   5.898   1.490
20064WAT     H260435   4.866   5.838   1.370
20065WAT      O60436   8.996   7.273   2.612
20065WAT     H160437   8.948   7.274   2.524
20065WAT     H260438   9.092   7.251   2.597
20066WAT      O60439   8.438   7.183   3.981
20066WAT     H160440   8.374   7.112   3.950
20066WAT     H260441   8.458   7.169   4.078
20067WAT      O60442   8.334   0.008   8.268
20067WAT     H160443   8.346  -0.078   8.319
20067WAT     H260444   8.405   0.072   8.294
20068WAT      O60445   0.763   7.832   9.516
20068WAT     H160446   0.850   7.782   9.517
20068WAT     H260447   0.736   7.848   9.421
20069WAT      O60448   2.743   6.432   0.770
20069WAT     H160449   2.648   6.403   0.759
20069WAT     H260450   2.786   6.438   0.679
20070WAT      O60451   1.473   9.493   1.171
20070WAT     H160452   1.543   9.484   1.242
20070WAT     H260453   1.513   9.472   1.082
20071WAT      O60454   8.793   9.192   3.603
20071WAT     H160455   8.811   9.095   3.616
20071WAT     H260456   8.772   9.210   3.507
20072WAT      O60457   5.744   1.472   7.557
20072WAT     H160458   5.722   1.468   7.459
20072WAT     H260459   5.724   1.564   7.591
20073WAT      O60460   8.664   9.377   9.528
20073WAT     H160461   8.659   9.411   9.434
20073WAT     H260462   8.750   9.328   9.541
20074WAT      O60463   6.728   8.838   3.780
20074WAT     H160464   6.789   8.916   3.791
20074WAT     H260465   6.763   8.760   3.833
20075WAT      O60466   1.947   3.593   6.676
20075WAT     H160467   1.901   3.606   6.588
20075WAT     H260468   2.046   3.584   6.661
20076WAT      O60469   1.404   0.046   7.575
20076WAT     H160470   1.495   0.013   7.602
20076WAT     H260471   1.414   0.127   7.518
20077WAT      O60472   8.181   0.362   0.558
20077WAT     H160473   8.231   0.389   0.476
20077WAT     H260474   8.235   0.385   0.639
20078WAT      O60475   3.778   4.626   3.173
20078WAT     H160476   3.740   4.689   3.241
20078WAT     H260477   3.849   4.570   3.216
20079WAT      O60478   4.342   3.946   4.135
20079WAT     H160479   4.387   4.019   4.084
20079WAT     H260480   4.376   3.944   4.229
20080WAT      O60481   0.617   3.913   1.363
20080WAT     H160482   0.672   3.858   1.426
20080WAT     H260483   0.671   3.935   1.282
20081WAT      O60484   0.640   1.197   2.514
20081WAT     H160485   0.601   1.201   2.606
20081WAT     H260486   0.720   1.257   2.510
20082WAT      O60487   9.504   3.866   1.144
20082WAT     H160488   9.592   3.818   1.139
20082WAT     H260489   9.505   3.929   1.221
20083WAT      O60490   8.213   0.132   2.244
20083WAT     H160491   8.302   0.133   2.291
20083WAT     H260492   8.162   0.051   2.272
20084WAT      O60493   0.860   5.495   9.288
20084WAT     H160494   0.796   5.521   9.361
20084WAT     H260495   0.954   5.501   9.323
20085WAT      O60496   1.030   4.279   6.684
20085WAT     H160497   0.989   4.366   6.658
20085WAT     H260498   0.999   4.254   6.776
20086WAT      O60499   8.973   1.066   9.493
20086WAT     H160500   8.980   0.991   9.428
20086WAT     H260501   8.979   1.030   9.586
20087WAT      O60502   1.265   4.383   1.771
20087WAT     H160503   1.307   4.393   1.861
20087WAT     H260504   1.171   4.415   1.774
20088WAT      O60505   8.078   8.018   3.704
20088WAT     H160506   7.984   7.982   3.707
20088WAT     H260507   8.081   8.106   3.751
20089WAT      O60508   3.853   5.358   1.491
20089WAT     H160509   3.771   5.338   1.543
20089WAT     H260510   3.881   5.277   1.439
20090WAT      O60511   9.267   1.999   7.582
20090WAT     H160512   9.304   1.966   7.669
20090WAT     H260513   9.215   1.926   7.538
20091WAT      O60514   5.641   2.534   4.871
20091WAT     H160515   5.641   2.622   4.920
20091WAT     H260516   5.735   2.502   4.860
20092WAT      O60517   8.077   9.536   8.590
20092WAT     H160518   8.069   9.492   8.500
20092WAT     H260519   8.011   9.610   8.597
20093WAT      O60520   2.928   9.487   7.147
20093WAT     H160521   2.981   9.519   7.068
20093WAT     H260522   2.982   9.419   7.197
20094WAT      O60523   1.133   6.329   6.550
20094WAT     H160524   1.146   6.233   6.526
20094WAT     H260525   1.091   6.336   6.640
20095WAT      O60526   2.141   2.865   5.474
20095WAT     H160527   2.179   2.775   5.451
20095WAT     H260528   2.216   2.931   5.483
20096WAT      O60529   1.610   4.283   4.003
20096WAT     H160530   1.682   4.346   3.975
20096WAT     H260531   1.650   4.194   4.025
20097WAT      O60532   1.472   8.473   8.784
20097WAT     H160533   1.372   8.468   8.786
20097WAT     H260534   1.508   8.448   8.874
20098WAT      O60535   5.974   6.561   0.675
20098WAT     H160536   5.960   6.462   0.684
20098WAT     H260537   6.066   6.585   0.704
20099WAT      O60538   2.670   0.069   8.289
20099WAT     H160539   2.719   0.067   8.202
20099WAT     H260540   2.714   0.134   8.350
20100WAT      O60541   8.781   0.591   3.814
20100WAT     H160542   8.831   0.671   3.845
20100WAT     H260543   8.720   0.617   3.739
20101WAT      O60544   4.524   6.385   2.864
20101WAT     H160545   4.558   6.294   2.889
20101WAT     H260546   4.463   6.377   2.785
20102WAT      O60547   0.860   2.910   1.891
20102WAT     H160548   0.823   2.952   1.974
20102WAT     H260549   0.882   2.814   1.909
20103WAT      O60550   7.056   1.134   7.772
20103WAT     H160551   7.008   1.070   7.712
20103WAT     H260552   7.019   1.126   7.865
20104WAT      O60553   1.776   8.878   8.514
20104WAT     H160554   1.839   8.952   8.489
20104WAT     H260555   1.693   8.918   8.554
20105WAT      O60556   1.768   2.371   2.823
20105WAT     H160557   1.845   2.412   2.871
20105WAT     H260558   1.683   2.414   2.854
20106WAT      O60559   0.972   4.872   4.893
20106WAT     H160560   0.928   4.805   4.833
20106WAT     H260561   0.906   4.906   4.960
20107WAT      O60562   2.077   7.940   2.213
20107WAT     H160563   2.156   7.881   2.231
20107WAT     H260564   1.998   7.905   2.263
20108WAT      O60565   0.937   0.036   1.028
20108WAT     H160566   0.957   0.100   0.954
20108WAT     H260567   0.897  -0.047   0.990
20109WAT      O60568   4.364   2.179   3.853
20109WAT     H160569   4.330   2.102   3.799
20109WAT     H260570   4.300   2.198   3.927
20110WAT      O60571   6.618   8.724   0.480
20110WAT     H160572   6.602   8.638   0.527
20110WAT     H260573   6.598   8.800   0.542
20111WAT      O60574   8.563   6.485   8.706
20111WAT     H160575   8.526   6.424   8.635
20111WAT     H260576   8.659   6.504   8.686
20112WAT      O60577   2.508   3.037   7.348
20112WAT     H160578   2.576   3.110   7.347
20112WAT     H260579   2.457   3.040   7.434
20113WAT      O60580   2.346   9.071   5.612
20113WAT     H160581   2.353   9.050   5.709
20113WAT     H260582   2.364   9.168   5.597
20114WAT      O60583   4.993   0.131   6.540
20114WAT     H160584   4.934   0.119   6.620
20114WAT     H260585   4.952   0.084   6.461
20115WAT      O60586   6.133   6.385   8.794
20115WAT     H160587   6.120   6.384   8.695
20115WAT     H260588   6.175   6.471   8.821
20116WAT      O60589   6.955   4.669   1.791
20116WAT     H160590   6.947   4.710   1.700
20116WAT     H260591   6.864   4.645   1.825
20117WAT      O60592   8.717   2.949   4.776
20117WAT     H160593   8.789   2.902   4.826
20117WAT     H260594   8.748   2.967   4.683
20118WAT      O60595   7.811   7.079   4.351
20118WAT     H160596   7.741   7.056   4.284
20118WAT     H260597   7.849   6.995   4.390
20119WAT      O60598   8.979   4.296   6.913
20119WAT     H160599   8.991   4.371   6.847
20119WAT     H260600   8.918   4.227   6.874
20120WAT      O60601   1.635   5.035   1.662
20120WAT     H160602   1.681   4.982   1.591
20120WAT     H260603   1.537   5.017   1.659
20121WAT      O60604   7.671   2.302   7.158
20121WAT     H160605   7.652   2.384   7.213
20121WAT     H260606   7.589   2.276   7.108
20122WAT      O60607   0.989   8.681   8.624
20122WAT     H160608   0.995   8.719   8.716
20122WAT     H260609   0.908   8.623   8.617
20123WAT      O60610   5.346   7.760   1.695
20123WAT     H160611   5.397   7.834   1.650
20123WAT     H260612   5.297   7.707   1.626
20124WAT      O60613   6.662   7.154   2.078
20124WAT     H160614   6.706   7.215   2.012
20124WAT     H260615   6.566   7.142   2.054
20125WAT      O60616   8.252   7.808   6.636
20125WAT     H160617   8.189   7.868   6.586
20125WAT     H260618   8.201   7.729   6.670
20126WAT      O60619   0.892   7.897   7.786
20126WAT     H160620   0.970   7.898   7.724
20126WAT     H260621   0.914   7.841   7.866
20127WAT      O60622   0.689   2.967   0.114
20127WAT     H160623   0.622   3.018   0.061
20127WAT     H260624   0.781   3.002   0.094
20128WAT      O60625   3.751   6.757   7.621
20128WAT     H160626   3.775   6.806   7.705
20128WAT     H260627   3.820   6.774   7.551
20129WAT      O60628   7.635   6.225   8.747
20129WAT     H160629   7.679   6.169   8.677
20129WAT     H260630   7.570   6.168   8.798
20130WAT      O60631   4.922   7.412   3.524
20130WAT     H160632   4.862   7.491   3.512
20130WAT     H260633   4.996   7.434   3.587
20131WAT      O60634   9.829   5.560   5.108
20131WAT     H160635   9.840   5.463   5.129
20131WAT     H260636   9.814   5.612   5.192
20132WAT      O60637   0.871   6.720   7.371
20132WAT     H160638   0.959   6.767   7.359
20132WAT     H260639   0.857   6.702   7.468
20133WAT      O60640   8.115   8.601   6.569
20133WAT     H160641   8.023   8.632   6.594
20133WAT     H260642   8.171   8.679   6.543
20134WAT      O60643   3.571   1.125   4.520
20134WAT     H160644   3.635   1.146   4.446
20134WAT     H260645   3.478   1.123   4.484
20135WAT      O60646   8.846   0.762   7.158
20135WAT     H160647   8.842   0.665   7.183
20135WAT     H260648   8.758   0.790   7.118
20136WAT      O60649   1.991   3.032   9.691
20136WAT     H160650   2.062   2.984   9.742
20136WAT     H260651   1.926   2.966   9.653
20137WAT      O60652   8.727   2.638   5.789
20137WAT     H160653   8.725   2.648   5.888
20137WAT     H260654   8.725   2.728   5.746
20138WAT      O60655   0.522   7.026   1.830
20138WAT     H160656   0.485   7.108   1.785
20138WAT     H260657   0.611   7.046   1.869
20139WAT      O60658   5.372   1.654   5.091
20139WAT     H160659   5.287   1.639   5.040
20139WAT     H260660   5.428   1.723   5.044
20140WAT      O60661   8.907   5.431   9.861
20140WAT     H160662   8.919   5.372   9.940
20140WAT     H260663   8.828   5.491   9.875
20141WAT      O60664   0.705   4.175   3.587
20141WAT     H160665   0.774   4.170   3.514
20141WAT     H260666   0.616   4.200   3.547
20142WAT      O60667   0.800   1.229   7.753
20142WAT     H160668   0.727   1.237   7.685
20142WAT     H260669   0.801   1.136   7.790
20143WAT      O60670   7.447   4.084   2.952
20143WAT     H160671   7.370   4.112   2.895
20143WAT     H260672   7.422   4.091   3.048
20144WAT      O60673   3.437   9.031   0.671
20144WAT     H160674   3.456   8.936   0.692
20144WAT     H260675   3.480   9.090   0.740
20145WAT      O60676   6.314   4.063   9.868
20145WAT     H160677   6.312   4.136   9.800
20145WAT     H260678   6.385   4.082   9.936
20146WAT      O60679   7.546   0.895   2.770
20146WAT     H160680   7.580   0.988   2.756
20146WAT     H260681   7.447   0.894   2.756
20147WAT      O60682   0.308   4.660   6.822
20147WAT     H160683   0.306   4.612   6.734
20147WAT     H260684   0.370   4.612   6.884
20148WAT      O60685   6.707   9.658   0.932
20148WAT     H160686   6.715   9.559   0.932
20148WAT     H260687   6.656   9.688   0.852
20149WAT      O60688   4.273   1.207   4.026
20149WAT     H160689   4.202   1.254   3.974
20149WAT     H260690   4.301   1.124   3.976
20150WAT      O60691   6.886   6.132   3.953
20150WAT     H160692   6.793   6.156   3.926
20150WAT     H260693   6.895   6.032   3.957
20151WAT      O60694   3.875   7.415   8.238
20151WAT     H160695   3.831   7.344   8.184
20151WAT     H260696   3.974   7.409   8.225
20152WAT      O60697   0.275   8.999   8.580
20152WAT     H160698   0.284   9.041   8.670
20152WAT     H260699   0.347   9.033   8.520
20153WAT      O60700   0.341   7.275   8.362
20153WAT     H160701   0.381   7.349   8.307
20153WAT     H260702   0.247   7.260   8.333
20154WAT      O60703   6.298   8.480   9.144
20154WAT     H160704   6.212   8.508   9.186
20154WAT     H260705   6.363   8.452   9.215
20155WAT      O60706   2.758   7.493   5.009
20155WAT     H160707   2.730   7.543   5.091
20155WAT     H260708   2.743   7.550   4.929
20156WAT      O60709   8.313   2.500   6.688
20156WAT     H160710   8.384   2.485   6.620
20156WAT     H260711   8.259   2.417   6.700
20157WAT      O60712   7.161   0.439   7.097
20157WAT     H160713   7.199   0.531   7.099
20157WAT     H260714   7.230   0.374   7.128
20158WAT      O60715   6.730   7.758   9.002
20158WAT     H160716   6.645   7.806   8.981
20158WAT     H260717   6.794   7.768   8.925
20159WAT      O60718   9.594   2.584   2.640
20159WAT     H160719   9.616   2.487   2.650
20159WAT     H260720   9.497   2.598   2.658
20160WAT      O60721   7.943   2.900   7.143
20160WAT     H160722   7.885   2.979   7.164
20160WAT     H260723   8.027   2.932   7.100
20161WAT      O60724   9.072   5.358   4.877
20161WAT     H160725   9.148   5.416   4.906
20161WAT     H260726   9.041   5.386   4.786
20162WAT      O60727   4.417   2.973   5.502
20162WAT     H160728   4.367   2.922   5.572
20162WAT     H260729   4.452   3.058   5.540
20163WAT      O60730   3.245   0.773   5.398
20163WAT     H160731   3.168   0.720   5.363
20163WAT     H260732   3.284   0.828   5.324
20164WAT      O60733   1.876   6.439   5.970
20164WAT     H160734   1.864   6.340   5.976
20164WAT     H260735   1.807   6.476   5.907
20165WAT      O60736   0.969   8.794   7.990
20165WAT     H160737   1.040   8.829   7.928
20165WAT     H260738   0.931   8.710   7.953
20166WAT      O60739   0.660   3.113   2.060
20166WAT     H160740   0.612   3.171   2.126
20166WAT     H260741   0.683   3.168   1.980
20167WAT      O60742   0.175   0.685   2.343
20167WAT     H160743   0.223   0.749   2.283
20167WAT     H260744   0.236   0.608   2.363
20168WAT      O60745   2.048   1.169   3.543
20168WAT     H160746   2.004   1.116   3.471
20168WAT     H260747   2.051   1.115   3.627
20169WAT      O60748   7.792   2.105   5.514
20169WAT     H160749   7.760   2.112   5.420
20169WAT     H260750   7.859   2.031   5.521
20170WAT      O60751   3.348   5.075   2.306
20170WAT     H160752   3.397   5.083   2.220
20170WAT     H260753   3.404   5.025   2.372
20171WAT      O60754   4.853   5.578   1.561
20171WAT     H160755   4.940   5.540   1.528
20171WAT     H260756   4.841   5.670   1.523
20172WAT      O60757   6.447   5.018   9.319
20172WAT     H160758   6.455   5.116   9.299
20172WAT     H260759   6.364   4.982   9.278
20173WAT      O60760   5.806   0.382   2.201
20173WAT     H160761   5.757   0.321   2.137
20173WAT     H260762   5.867   0.328   2.259
20174WAT      O60763   3.576   5.356   0.037
20174WAT     H160764   3.585   5.397  -0.054
20174WAT     H260765   3.479   5.348   0.060
20175WAT      O60766   2.369   7.109   2.547
20175WAT     H160767   2.390   7.153   2.635
20175WAT     H260768   2.444   7.047   2.522
20176WAT      O60769   3.706   8.360   2.628
20176WAT     H160770   3.651   8.444   2.629
20176WAT     H260771   3.767   8.362   2.549
20177WAT      O60772   7.187   4.198   4.020
20177WAT     H160773   7.175   4.245   4.107
20177WAT     H260774   7.213   4.263   3.949
20178WAT      O60775   2.703   5.670   6.239
20178WAT     H160776   2.787   5.659   6.186
20178WAT     H260777   2.646   5.740   6.196
20179WAT      O60778   6.723   3.356   5.529
20179WAT     H160779   6.780   3.337   5.609
20179WAT     H260780   6.758   3.437   5.481
20180WAT      O60781   0.971   0.054   8.499
20180WAT     H160782   1.022   0.069   8.583
20180WAT     H260783   0.877   0.087   8.511
20181WAT      O60784   0.702   9.193   2.466
20181WAT     H160785   0.777   9.194   2.400
20181WAT     H260786   0.683   9.286   2.497
20182WAT      O60787   4.618   5.428   4.369
20182WAT     H160788   4.637   5.388   4.279
20182WAT     H260789   4.664   5.517   4.376
20183WAT      O60790   7.855   2.462   9.704
20183WAT     H160791   7.879   2.421   9.616
20183WAT     H260792   7.839   2.389   9.771
20184WAT      O60793   5.312   8.715   7.720
20184WAT     H160794   5.385   8.749   7.780
20184WAT     H260795   5.327   8.618   7.700
20185WAT      O60796   0.172   8.857   0.644
20185WAT     H160797   0.161   8.763   0.674
20185WAT     H260798   0.259   8.894   0.677
20186WAT      O60799   7.675   5.874   6.559
20186WAT     H160800   7.686   5.937   6.482
20186WAT     H260801   7.593   5.898   6.610
20187WAT      O60802   1.984   7.082   1.134
20187WAT     H160803   1.947   7.098   1.225
20187WAT     H260804   1.957   7.157   1.073
20188WAT      O60805   6.097   4.047   5.174
20188WAT     H160806   6.096   4.015   5.268
20188WAT     H260807   6.005   4.079   5.150
20189WAT      O60808   6.846   8.250   3.142
20189WAT     H160809   6.806   8.274   3.054
20189WAT     H260810   6.946   8.246   3.134
20190WAT      O60811   8.857   8.804   1.685
20190WAT     H160812   8.799   8.768   1.758
20190WAT     H260813   8.821   8.774   1.596
20191WAT      O60814   0.570   9.470   6.817
20191WAT     H160815   0.609   9.507   6.901
20191WAT     H260816   0.479   9.434   6.835
20192WAT      O60817   6.892   0.771   8.484
20192WAT     H160818   6.848   0.732   8.565
20192WAT     H260819   6.893   0.871   8.492
20193WAT      O60820   3.457   0.275   0.269
20193WAT     H160821   3.516   0.233   0.200
20193WAT     H260822   3.509   0.345   0.319
20194WAT      O60823   5.213   6.315   2.922
20194WAT     H160824   5.243   6.249   2.991
20194WAT     H260825   5.280   6.318   2.848
20195WAT      O60826   2.933   9.429   0.795
20195WAT     H160827   2.915   9.383   0.708
20195WAT     H260828   3.016   9.393   0.836
20196WAT      O60829   3.569   4.335   9.878
20196WAT     H160830   3.471   4.328   9.895
20196WAT     H260831   3.613   4.248   9.899
20197WAT      O60832   1.104   2.911   3.270
20197WAT     H160833   1.181   2.875   3.217
20197WAT     H260834   1.043   2.962   3.209
20198WAT      O60835   6.359   5.916   7.806
20198WAT     H160836   6.273   5.939   7.761
20198WAT     H260837   6.435   5.957   7.756
20199WAT      O60838   2.133   5.864   1.426
20199WAT     H160839   2.219   5.867   1.375
20199WAT     H260840   2.149   5.894   1.520
20200WAT      O60841   5.055   0.487   8.534
20200WAT     H160842   5.124   0.559   8.535
20200WAT     H260843   5.101   0.398   8.545
20201WAT      O60844   9.637   6.498   4.644
20201WAT     H160845   9.542   6.520   4.667
20201WAT     H260846   9.643   6.469   4.549
20202WAT      O60847   0.773   7.218   1.457
20202WAT     H160848   0.774   7.245   1.554
20202WAT     H260849   0.772   7.299   1.400
20203WAT      O60850   2.696   7.497   4.568
20203WAT     H160851   2.750   7.551   4.502
20203WAT     H260852   2.678   7.553   4.649
20204WAT      O60853   8.063   4.979   2.268
20204WAT     H160854   7.972   5.009   2.237
20204WAT     H260855   8.131   5.047   2.240
20205WAT      O60856   9.681   2.648   8.708
20205WAT     H160857   9.687   2.609   8.800
20205WAT     H260858   9.749   2.605   8.649
20206WAT      O60859   5.906   1.149   2.063
20206WAT     H160860   5.862   1.096   2.135
20206WAT     H260861   5.872   1.243   2.065
20207WAT      O60862   3.546   0.625   8.502
20207WAT     H160863   3.575   0.619   8.597
20207WAT     H260864   3.495   0.543   8.477
20208WAT      O60865   1.229   6.052   7.790
20208WAT     H160866   1.268   6.078   7.702
20208WAT     H260867   1.130   6.066   7.788
20209WAT      O60868   9.025   0.796   8.292
20209WAT     H160869   9.029   0.745   8.378
20209WAT     H260870   9.040   0.733   8.216
20210WAT      O60871   5.099   9.478   0.975
20210WAT     H160872   5.167   9.470   1.048
20210WAT     H260873   5.047   9.562   0.986
20211WAT      O60874   2.196   3.416   3.851
20211WAT     H160875   2.167   3.489   3.789
20211WAT     H260876   2.274   3.368   3.811
20212WAT      O60877   0.089   1.411   0.569
20212WAT     H160878  -0.007   1.431   0.589
20212WAT     H260879   0.115   1.455   0.484
20213WAT      O60880   8.009   6.593   2.330
20213WAT     H160881   7.996   6.505   2.376
20213WAT     H260882   8.100   6.595   2.287
20214WAT      O60883   1.698   3.148   2.632
20214WAT     H160884   1.769   3.145   2.702
20214WAT     H260885   1.721   3.082   2.559
20215WAT      O60886   0.993   1.660   5.308
20215WAT     H160887   0.912   1.603   5.319
20215WAT     H260888   1.075   1.608   5.333
20216WAT      O60889   3.333   4.446   4.103
20216WAT     H160890   3.369   4.488   4.186
20216WAT     H260891   3.248   4.397   4.125
20217WAT      O60892   1.192   9.280   6.207
20217WAT     H160893   1.202   9.292   6.109
20217WAT     H260894   1.156   9.365   6.247
20218WAT      O60895   9.039   7.602   2.608
20218WAT     H160896   9.007   7.684   2.560
20218WAT     H260897   9.002   7.600   2.701
20219WAT      O60898   0.756   1.217   2.171
20219WAT     H160899   0.663   1.249   2.189
20219WAT     H260900   0.816   1.296   2.158
20220WAT      O60901   8.435   6.140   8.364
20220WAT     H160902   8.396   6.048   8.372
20220WAT     H260903   8.432   6.170   8.269
20221WAT      O60904   6.382   1.061   7.197
20221WAT     H160905   6.303   1.083   7.255
20221WAT     H260906   6.450   1.134   7.205
20222WAT      O60907   3.963   0.223   9.018
20222WAT     H160908   3.955   0.146   8.955
20222WAT     H260909   4.059   0.239   9.040
20223WAT      O60910   1.007   7.085   4.332
20223WAT     H160911   1.071   7.154   4.364
20223WAT     H260912   0.980   7.026   4.409
20224WAT      O60913   8.499   8.543   7.165
20224WAT     H160914   8.570   8.496   7.218
20224WAT     H260915   8.465   8.481   7.094
20225WAT      O60916   8.468   4.977   2.813
20225WAT     H160917   8.437   5.067   2.783
20225WAT     H260918   8.539   4.987   2.882
20226WAT      O60919   9.276   4.228   2.613
20226WAT     H160920   9.286   4.316   2.658
20226WAT     H260921   9.178   4.210   2.597
20227WAT      O60922   9.278   8.281   3.762
20227WAT     H160923   9.304   8.325   3.676
20227WAT     H260924   9.179   8.266   3.763
20228WAT      O60925   9.709   6.302   8.576
20228WAT     H160926   9.667   6.376   8.524
20228WAT     H260927   9.741   6.337   8.664
20229WAT      O60928   8.404   1.179   0.291
20229WAT     H160929   8.369   1.152   0.201
20229WAT     H260930   8.341   1.148   0.362
20230WAT      O60931   2.631   8.639   2.007
20230WAT     H160932   2.574   8.560   2.031
20230WAT     H260933   2.617   8.711   2.074
20231WAT      O60934   9.692   2.463   4.906
20231WAT     H160935   9.638   2.388   4.868
20231WAT     H260936   9.785   2.459   4.870
20232WAT      O60937   8.848   9.647   1.116
20232WAT     H160938   8.827   9.600   1.030
20232WAT     H260939   8.887   9.581   1.181
20233WAT      O60940   6.834   8.668   0.287
20233WAT     H160941   6.766   8.701   0.353
20233WAT     H260942   6.901   8.740   0.268
20234WAT      O60943   9.872   5.812   8.929
20234WAT     H160944   9.801   5.846   8.868
20234WAT     H260945   9.934   5.752   8.877
20235WAT      O60946   8.607   9.565   0.120
20235WAT     H160947   8.626   9.659   0.091
20235WAT     H260948   8.510   9.545   0.104
20236WAT      O60949   2.840   4.412   5.793
20236WAT     H160950   2.908   4.427   5.721
20236WAT     H260951   2.831   4.314   5.809
20237WAT      O60952   1.907   9.614   5.101
20237WAT     H160953   1.847   9.552   5.150
20237WAT     H260954   1.963   9.562   5.036
20238WAT      O60955   0.339   7.590   4.670
20238WAT     H160956   0.293   7.545   4.747
20238WAT     H260957   0.429   7.621   4.699
20239WAT      O60958   9.441   8.774   5.980
20239WAT     H160959   9.432   8.768   5.881
20239WAT     H260960   9.454   8.683   6.019
20240WAT      O60961   9.375   3.686   6.079
20240WAT     H160962   9.391   3.784   6.087
20240WAT     H260963   9.379   3.659   5.983
20241WAT      O60964   1.225   9.420   9.068
20241WAT     H160965   1.289   9.486   9.107
20241WAT     H260966   1.261   9.327   9.082
20242WAT      O60967   2.721   6.896   3.995
20242WAT     H160968   2.762   6.839   4.066
20242WAT     H260969   2.790   6.913   3.924
20243WAT      O60970   8.245   4.844   5.905
20243WAT     H160971   8.304   4.886   5.974
20243WAT     H260972   8.226   4.749   5.929
20244WAT      O60973   3.281   3.494   8.788
20244WAT     H160974   3.357   3.506   8.725
20244WAT     H260975   3.223   3.418   8.757
20245WAT      O60976   3.482   6.073   1.069
20245WAT     H160977   3.530   5.985   1.064
20245WAT     H260978   3.419   6.080   0.991
20246WAT      O60979   6.709   2.689   4.879
20246WAT     H160980   6.779   2.687   4.807
20246WAT     H260981   6.643   2.761   4.860
20247WAT      O60982   6.989   0.725   8.219
20247WAT     H160983   6.917   0.756   8.157
20247WAT     H260984   6.954   0.725   8.313
20248WAT      O60985   2.666   5.553   0.196
20248WAT     H160986   2.744   5.541   0.135
20248WAT     H260987   2.655   5.651   0.217
20249WAT      O60988   7.054   7.041   1.371
20249WAT     H160989   7.047   7.098   1.452
20249WAT     H260990   6.964   7.028   1.330
20250WAT      O60991   1.405   9.734   4.951
20250WAT     H160992   1.332   9.684   4.905
20250WAT     H260993   1.486   9.677   4.957
20251WAT      O60994   8.049   2.792   1.449
20251WAT     H160995   8.022   2.735   1.370
20251WAT     H260996   8.121   2.856   1.421
20252WAT      O60997   4.587   0.357   5.305
20252WAT     H160998   4.621   0.275   5.259
20252WAT     H260999   4.610   0.437   5.249
20253WAT      O61000   6.858   6.884   6.057
20253WAT     H161001   6.874   6.805   6.116
20253WAT     H261002   6.765   6.918   6.072
20254WAT      O61003   0.466   6.954   4.219
20254WAT     H161004   0.422   7.024   4.277
20254WAT     H261005   0.438   6.863   4.250
20255WAT      O61006   9.707   4.692   8.961
20255WAT     H161007   9.620   4.661   9.000
20255WAT     H261008   9.777   4.623   8.979
20256WAT      O61009   0.970   7.347   0.234
20256WAT     H161010   1.037   7.274   0.249
20256WAT     H261011   0.924   7.333   0.146
20257WAT      O61012   0.948   6.368   2.255
20257WAT     H161013   1.013   6.402   2.188
20257WAT     H261014   0.987   6.375   2.347
20258WAT      O61015   9.578   2.292   7.376
20258WAT     H161016   9.658   2.298   7.435
20258WAT     H261017   9.531   2.381   7.374
20259WAT      O61018   5.522   9.237   7.486
20259WAT     H161019   5.526   9.337   7.486
20259WAT     H261020   5.434   9.208   7.525
20260WAT      O61021   6.048   1.215   8.641
20260WAT     H161022   6.103   1.266   8.707
20260WAT     H261023   6.093   1.214   8.553
20261WAT      O61024   3.298   2.191   8.451
20261WAT     H161025   3.291   2.284   8.415
20261WAT     H261026   3.394   2.161   8.448
20262WAT      O61027   0.363   6.531   0.753
20262WAT     H161028   0.267   6.517   0.729
20262WAT     H261029   0.370   6.596   0.828
20263WAT      O61030   8.729   1.788   5.730
20263WAT     H161031   8.654   1.732   5.696
20263WAT     H261032   8.764   1.846   5.657
20264WAT      O61033   7.865   8.641   8.062
20264WAT     H161034   7.860   8.570   7.992
20264WAT     H261035   7.941   8.702   8.041
20265WAT      O61036   3.756   1.449   1.258
20265WAT     H161037   3.751   1.415   1.352
20265WAT     H261038   3.847   1.487   1.241
20266WAT      O61039   6.637   9.440   4.454
20266WAT     H161040   6.661   9.366   4.391
20266WAT     H261041   6.691   9.432   4.537
20267WAT      O61042   4.415   4.062   3.237
20267WAT     H161043   4.334   4.066   3.178
20267WAT     H261044   4.392   4.102   3.326
20268WAT      O61045   3.615   1.738   8.225
20268WAT     H161046   3.613   1.712   8.321
20268WAT     H261047   3.523   1.758   8.193
20269WAT      O61048   7.461   4.070   3.702
20269WAT     H161049   7.472   4.167   3.725
20269WAT     H261050   7.391   4.061   3.631
20270WAT      O61051   8.059   1.625   4.837
20270WAT     H161052   8.104   1.711   4.862
20270WAT     H261053   8.001   1.639   4.757
20271WAT      O61054   0.045   5.504   1.715
20271WAT     H161055   0.103   5.541   1.788
20271WAT     H261056   0.091   5.426   1.672
20272WAT      O61057   1.289   9.421   7.438
20272WAT     H161058   1.200   9.390   7.406
20272WAT     H261059   1.335   9.472   7.366
20273WAT      O61060   7.349   7.408   9.136
20273WAT     H161061   7.299   7.482   9.091
20273WAT     H261062   7.306   7.321   9.114
20274WAT      O61063   3.203   0.429   1.764
20274WAT     H161064   3.262   0.368   1.711
20274WAT     H261065   3.110   0.392   1.767
20275WAT      O61066   0.179   2.938   8.152
20275WAT     H161067   0.220   2.907   8.066
20275WAT     H261068   0.120   3.017   8.134
20276WAT      O61069   9.201   9.325   9.388
20276WAT     H161070   9.193   9.330   9.488
20276WAT     H261071   9.293   9.352   9.361
20277WAT      O61072   3.536   2.136   8.670
20277WAT     H161073   3.526   2.069   8.596
20277WAT     H261074   3.621   2.118   8.720
20278WAT      O61075   0.718   2.112   7.815
20278WAT     H161076   0.666   2.137   7.897
20278WAT     H261077   0.815   2.107   7.838
20279WAT      O61078   6.629   9.019   7.182
20279WAT     H161079   6.629   8.943   7.117
20279WAT     H261080   6.612   9.104   7.133
20280WAT      O61081   4.063   4.024   1.218
20280WAT     H161082   4.107   4.044   1.306
20280WAT     H261083   4.058   3.925   1.205
20281WAT      O61084   2.602   1.257   4.130
20281WAT     H161085   2.700   1.239   4.135
20281WAT     H261086   2.553   1.172   4.111
20282WAT      O61087   0.443   2.079   7.294
20282WAT     H161088   0.509   2.131   7.241
20282WAT     H261089   0.397   2.139   7.359
20283WAT      O61090   3.066   3.261   4.852
20283WAT     H161091   3.097   3.275   4.758
20283WAT     H261092   2.974   3.300   4.863
20284WAT      O61093   6.668   5.485   6.501
20284WAT     H161094   6.741   5.551   6.485
20284WAT     H261095   6.588   5.532   6.537
20285WAT      O61096   6.904   8.870   9.753
20285WAT     H161097   6.879   8.780   9.787
20285WAT     H261098   6.847   8.894   9.674
20286WAT      O61099   1.762   1.502   8.966
20286WAT     H161100   1.687   1.518   9.030
20286WAT     H261101   1.773   1.404   8.952
20287WAT      O61102   2.288   1.474   3.280
20287WAT     H161103   2.202   1.502   3.237
20287WAT     H261104   2.271   1.398   3.343
20288WAT      O61105   4.775   4.054   1.818
20288WAT     H161106   4.781   3.954   1.819
20288WAT     H261107   4.867   4.092   1.826
20289WAT      O61108   9.502   7.788   3.909
20289WAT     H161109   9.488   7.863   3.845
20289WAT     H261110   9.458   7.705   3.875
20290WAT      O61111   2.298   1.033   4.421
20290WAT     H161112   2.295   0.938   4.454
20290WAT     H261113   2.393   1.064   4.420
20291WAT      O61114   3.366   2.924   3.030
20291WAT     H161115   3.312   2.952   3.109
20291WAT     H261116   3.314   2.860   2.974
20292WAT      O61117   1.224   9.582   4.844
20292WAT     H161118   1.266   9.500   4.806
20292WAT     H261119   1.132   9.559   4.878
20293WAT      O61120   4.966   3.033   2.468
20293WAT     H161121   4.939   2.991   2.555
20293WAT     H261122   5.012   2.966   2.411
20294WAT      O61123   9.038   4.164   3.834
20294WAT     H161124   9.043   4.081   3.889
20294WAT     H261125   9.085   4.150   3.747
20295WAT      O61126   7.797   2.489   8.966
20295WAT     H161127   7.872   2.526   9.021
20295WAT     H261128   7.816   2.393   8.945
20296WAT      O61129   5.560   7.186   4.320
20296WAT     H161130   5.549   7.124   4.398
20296WAT     H261131   5.557   7.133   4.235
20297WAT      O61132   6.619   8.143   2.043
20297WAT     H161133   6.669   8.057   2.032
20297WAT     H261134   6.562   8.139   2.125
20298WAT      O61135   4.826   3.267   2.572
20298WAT     H161136   4.780   3.231   2.653
20298WAT     H261137   4.891   3.199   2.537
20299WAT      O61138   9.872   4.135   4.723
20299WAT     H161139   9.847   4.126   4.819
20299WAT     H261140   9.827   4.063   4.670
20300WAT      O61141   8.489   8.336   6.965
20300WAT     H161142   8.576   8.323   6.917
20300WAT     H261143   8.462   8.250   7.008
20301WAT      O61144   9.332   1.046   0.107
20301WAT     H161145   9.402   0.989   0.066
20301WAT     H261146   9.260   1.064   0.040
20302WAT      O61147   9.399   9.348   2.463
20302WAT     H161148   9.418   9.370   2.559
20302WAT     H261149   9.440   9.419   2.405
20303WAT      O61150   6.505   5.823   2.474
20303WAT     H161151   6.585   5.777   2.435
20303WAT     H261152   6.532   5.910   2.514
20304WAT      O61153   5.826   0.766   8.476
20304WAT     H161154   5.874   0.698   8.420
20304WAT     H261155   5.826   0.737   8.572
20305WAT      O61156   2.871   2.659   4.187
20305WAT     H161157   2.805   2.616   4.248
20305WAT     H261158   2.922   2.587   4.138
20306WAT      O61159   9.432   8.522   6.126
20306WAT     H161160   9.486   8.519   6.211
20306WAT     H261161   9.364   8.449   6.127
20307WAT      O61162   4.209   8.032   9.125
20307WAT     H161163   4.237   7.936   9.119
20307WAT     H261164   4.288   8.091   9.110
20308WAT      O61165   4.600   5.293   2.087
20308WAT     H161166   4.532   5.264   2.020
20308WAT     H261167   4.627   5.215   2.144
20309WAT      O61168   7.650   1.156   2.706
20309WAT     H161169   7.592   1.221   2.656
20309WAT     H261170   7.686   1.200   2.788
20310WAT      O61171   9.789   2.341   9.757
20310WAT     H161172   9.774   2.282   9.836
20310WAT     H261173   9.743   2.302   9.677
20311WAT      O61174   4.401   6.872   8.539
20311WAT     H161175   4.339   6.929   8.593
20311WAT     H261176   4.418   6.786   8.589
20312WAT      O61177   0.464   4.126   5.664
20312WAT     H161178   0.510   4.118   5.753
20312WAT     H261179   0.465   4.221   5.635
20313WAT      O61180   3.392   3.131   5.410
20313WAT     H161181   3.467   3.138   5.476
20313WAT     H261182   3.391   3.039   5.371
20314WAT      O61183   6.060   5.371   1.217
20314WAT     H161184   6.051   5.441   1.288
20314WAT     H261185   5.986   5.305   1.225
20315WAT      O61186   4.170   5.667   9.874
20315WAT     H161187   4.219   5.592   9.831
20315WAT     H261188   4.078   5.637   9.900
20316WAT      O61189   1.017   9.842   1.295
20316WAT     H161190   1.003   9.892   1.209
20316WAT     H261191   0.976   9.751   1.287
20317WAT      O61192   0.097   8.479   4.257
20317WAT     H161193   0.134   8.394   4.222
20317WAT     H261194   0.148   8.507   4.338
20318WAT      O61195   9.533   0.793   0.643
20318WAT     H161196   9.491   0.704   0.661
20318WAT     H261197   9.595   0.816   0.718
20319WAT      O61198   0.439   3.992   7.920
20319WAT     H161199   0.398   3.910   7.881
20319WAT     H261200   0.450   3.981   8.019
20320WAT      O61201   8.485   5.873   4.418
20320WAT     H161202   8.491   5.799   4.351
20320WAT     H261203   8.542   5.851   4.497
20321WAT      O61204   6.263   9.637   3.382
20321WAT     H161205   6.224   9.729   3.380
20321WAT     H261206   6.286   9.613   3.476
20322WAT      O61207   6.850   2.792   2.073
20322WAT     H161208   6.784   2.736   2.123
20322WAT     H261209   6.864   2.878   2.121
20323WAT      O61210   4.238   7.337   7.480
20323WAT     H161211   4.335   7.318   7.469
20323WAT     H261212   4.220   7.367   7.574
20324WAT      O61213   5.898   6.177   5.755
20324WAT     H161214   5.809   6.159   5.795
20324WAT     H261215   5.956   6.096   5.763
20325WAT      O61216   0.392   6.585   9.783
20325WAT     H161217   0.410   6.591   9.685
20325WAT     H261218   0.403   6.490   9.813
20326WAT      O61219   2.166   9.481   5.732
20326WAT     H161220   2.096   9.419   5.768
20326WAT     H261221   2.231   9.430   5.676
20327WAT      O61222   6.197   2.294   7.485
20327WAT     H161223   6.179   2.200   7.459
20327WAT     H261224   6.137   2.355   7.433
20328WAT      O61225   0.511   7.583   9.046
20328WAT     H161226   0.574   7.570   8.969
20328WAT     H261227   0.563   7.607   9.128
20329WAT      O61228   4.898   9.198   7.966
20329WAT     H161229   4.885   9.221   7.870
20329WAT     H261230   4.965   9.123   7.974
20330WAT      O61231   4.510   6.595   3.238
20330WAT     H161232   4.436   6.595   3.171
20330WAT     H261233   4.569   6.674   3.224
20331WAT      O61234   1.075   4.943   1.889
20331WAT     H161235   1.067   4.898   1.978
20331WAT     H261236   1.057   5.041   1.899
20332WAT      O61237   0.018   9.330   0.221
20332WAT     H161238  -0.053   9.385   0.177
20332WAT     H261239   0.009   9.337   0.320
20333WAT      O61240   2.605   7.350   1.969
20333WAT     H161241   2.678   7.392   1.915
20333WAT     H261242   2.557   7.282   1.912
20334WAT      O61243   8.900   0.675   5.237
20334WAT     H161244   8.841   0.752   5.211
20334WAT     H261245   8.961   0.703   5.311
20335WAT      O61246   7.737   2.749   9.760
20335WAT     H161247   7.728   2.664   9.709
20335WAT     H261248   7.813   2.741   9.824
20336WAT      O61249   2.749   2.893   2.043
20336WAT     H161250   2.820   2.826   2.020
20336WAT     H261251   2.747   2.905   2.143
20337WAT      O61252   3.378   7.321   3.053
20337WAT     H161253   3.414   7.412   3.072
20337WAT     H261254   3.278   7.322   3.062
20338WAT      O61255   1.965   8.920   9.659
20338WAT     H161256   1.932   8.844   9.602
20338WAT     H261257   2.065   8.924   9.654
20339WAT      O61258   3.009   7.656   8.322
20339WAT     H161259   2.946   7.734   8.321
20339WAT     H261260   2.961   7.575   8.354
20340WAT      O61261   4.943   2.776   2.191
20340WAT     H161262   4.887   2.756   2.110
20340WAT     H261263   4.900   2.735   2.271
20341WAT      O61264   1.594   8.546   0.999
20341WAT     H161265   1.620   8.561   1.094
20341WAT     H261266   1.494   8.548   0.991
20342WAT      O61267   8.628   2.604   5.351
20342WAT     H161268   8.534   2.638   5.344
20342WAT     H261269   8.642   2.565   5.442
20343WAT      O61270   5.020   9.112   3.614
20343WAT     H161271   4.956   9.076   3.682
20343WAT     H261272   5.035   9.044   3.542
20344WAT      O61273   0.887   6.966   6.336
20344WAT     H161274   0.822   6.906   6.290
20344WAT     H261275   0.891   7.054   6.288
20345WAT      O61276   7.124   1.306   5.531
20345WAT     H161277   7.144   1.403   5.544
20345WAT     H261278   7.051   1.279   5.594
20346WAT      O61279   7.697   6.087   3.812
20346WAT     H161280   7.744   6.003   3.840
20346WAT     H261281   7.634   6.067   3.737
20347WAT      O61282   4.472   7.070   3.869
20347WAT     H161283   4.380   7.060   3.905
20347WAT     H261284   4.512   6.979   3.853
20348WAT      O61285   6.853   5.545   5.847
20348WAT     H161286   6.929   5.481   5.862
20348WAT     H261287   6.779   5.497   5.797
20349WAT      O61288   1.169   6.931   1.803
20349WAT     H161289   1.164   7.002   1.873
20349WAT     H261290   1.087   6.935   1.746
20350WAT      O61291   8.372   6.404   9.722
20350WAT     H161292   8.285   6.414   9.772
20350WAT     H261293   8.384   6.309   9.694
20351WAT      O61294   2.357   8.449   6.876
20351WAT     H161295   2.450   8.456   6.840
20351WAT     H261296   2.296   8.418   6.804
20352WAT      O61297   1.674   1.046   6.344
20352WAT     H161298   1.740   1.113   6.379
20352WAT     H261299   1.702   1.018   6.252
20353WAT      O61300   8.078   4.847   9.342
20353WAT     H161301   8.157   4.905   9.363
20353WAT     H261302   8.036   4.816   9.427
20354WAT      O61303   1.216   9.308   2.005
20354WAT     H161304   1.140   9.370   2.024
20354WAT     H261305   1.217   9.285   1.908
20355WAT      O61306   5.832   3.403   5.151
20355WAT     H161307   5.886   3.485   5.132
20355WAT     H261308   5.874   3.324   5.107
20356WAT      O61309   2.513   9.321   9.124
20356WAT     H161310   2.498   9.247   9.190
20356WAT     H261311   2.611   9.331   9.108
20357WAT      O61312   4.264   9.034   5.719
20357WAT     H161313   4.317   8.972   5.778
20357WAT     H261314   4.295   9.128   5.732
20358WAT      O61315   9.396   4.506   7.174
20358WAT     H161316   9.305   4.472   7.198
20358WAT     H261317   9.431   4.562   7.248
20359WAT      O61318   7.734   3.624   7.733
20359WAT     H161319   7.750   3.630   7.832
20359WAT     H261320   7.821   3.626   7.685
20360WAT      O61321   9.123   9.276   8.334
20360WAT     H161322   9.196   9.217   8.369
20360WAT     H261323   9.041   9.221   8.318
20361WAT      O61324   7.118   5.566   6.745
20361WAT     H161325   7.099   5.610   6.833
20361WAT     H261326   7.109   5.467   6.755
20362WAT      O61327   6.465   0.289   4.540
20362WAT     H161328   6.411   0.231   4.478
20362WAT     H261329   6.466   0.383   4.505
20363WAT      O61330   2.346   5.893   0.098
20363WAT     H161331   2.382   5.812   0.051
20363WAT     H261332   2.320   5.868   0.191
20364WAT      O61333   2.474   5.049   9.222
20364WAT     H161334   2.492   4.953   9.200
20364WAT     H261335   2.495   5.105   9.142
20365WAT      O61336   9.444   7.643   2.714
20365WAT     H161337   9.383   7.689   2.778
20365WAT     H261338   9.513   7.708   2.681
20366WAT      O61339   2.075   4.554   6.874
20366WAT     H161340   2.174   4.563   6.862
20366WAT     H261341   2.050   4.457   6.880
20367WAT      O61342   6.360   5.663   6.473
20367WAT     H161343   6.290   5.656   6.401
20367WAT     H261344   6.315   5.676   6.561
20368WAT      O61345   9.200   4.098   9.295
20368WAT     H161346   9.114   4.056   9.263
20368WAT     H261347   9.239   4.043   9.369
20369WAT      O61348   2.330   4.378   1.445
20369WAT     H161349   2.309   4.282   1.460
20369WAT     H261350   2.252   4.434   1.475
20370WAT      O61351   4.086   2.400   4.216
20370WAT     H161352   4.027   2.451   4.154
20370WAT     H261353   4.066   2.426   4.311
20371WAT      O61354   8.395   0.452   6.310
20371WAT     H161355   8.452   0.372   6.328
20371WAT     H261356   8.311   0.446   6.364
20372WAT      O61357   6.967   0.481   8.417
20372WAT     H161358   6.872   0.511   8.423
20372WAT     H261359   6.978   0.421   8.338
20373WAT      O61360   6.297   7.166   6.574
20373WAT     H161361   6.384   7.212   6.593
20373WAT     H261362   6.305   7.111   6.490
20374WAT      O61363   2.052   9.477   4.243
20374WAT     H161364   2.139   9.426   4.248
20374WAT     H261365   2.044   9.520   4.153
20375WAT      O61366   6.757   4.633   6.081
20375WAT     H161367   6.715   4.654   6.169
20375WAT     H261368   6.817   4.709   6.053
20376WAT      O61369   2.057   7.648   5.611
20376WAT     H161370   2.041   7.739   5.649
20376WAT     H261371   2.062   7.654   5.512
20377WAT      O61372   6.553   5.550   3.042
20377WAT     H161373   6.591   5.611   2.972
20377WAT     H261374   6.469   5.589   3.079
20378WAT      O61375   9.216   8.544   4.794
20378WAT     H161376   9.138   8.484   4.810
20378WAT     H261377   9.292   8.491   4.758
20379WAT      O61378   7.732   7.000   9.862
20379WAT     H161379   7.680   7.038   9.785
20379WAT     H261380   7.747   7.071   9.931
20380WAT      O61381   7.335   4.548   1.384
20380WAT     H161382   7.413   4.538   1.446
20380WAT     H261383   7.358   4.616   1.314
20381WAT      O61384   4.943   5.489   4.609
20381WAT     H161385   4.903   5.501   4.700
20381WAT     H261386   4.953   5.392   4.590
20382WAT      O61387   1.471   6.040   9.596
20382WAT     H161388   1.513   5.962   9.642
20382WAT     H261389   1.493   6.037   9.499
20383WAT      O61390   9.412   7.604   0.610
20383WAT     H161391   9.425   7.506   0.624
20383WAT     H261392   9.471   7.635   0.535
20384WAT      O61393   1.550   8.858   9.856
20384WAT     H161394   1.610   8.829   9.930
20384WAT     H261395   1.603   8.914   9.791
20385WAT      O61396   9.820   0.705   3.822
20385WAT     H161397   9.797   0.781   3.761
20385WAT     H261398   9.764   0.625   3.799
20386WAT      O61399   5.582   4.268   6.529
20386WAT     H161400   5.570   4.205   6.452
20386WAT     H261401   5.590   4.216   6.614
20387WAT      O61402   1.386   5.363   9.502
20387WAT     H161403   1.460   5.425   9.476
20387WAT     H261404   1.327   5.345   9.423
20388WAT      O61405   7.606   3.818   3.484
20388WAT     H161406   7.675   3.760   3.442
20388WAT     H261407   7.631   3.835   3.580
20389WAT      O61408   5.589   5.069   3.362
20389WAT     H161409   5.495   5.103   3.353
20389WAT     H261410   5.586   4.970   3.380
20390WAT      O61411   0.420   4.821   5.211
20390WAT     H161412   0.366   4.878   5.273
20390WAT     H261413   0.400   4.724   5.228
20391WAT      O61414   6.788   2.113   0.906
20391WAT     H161415   6.823   2.178   0.839
20391WAT     H261416   6.857   2.041   0.922
20392WAT      O61417   5.307   9.057   6.944
20392WAT     H161418   5.259   9.016   7.022
20392WAT     H261419   5.271   9.017   6.859
20393WAT      O61420   2.783   0.016   2.134
20393WAT     H161421   2.711   0.010   2.204
20393WAT     H261422   2.829   0.105   2.141
20394WAT      O61423   3.594   5.396   0.721
20394WAT     H161424   3.608   5.302   0.750
20394WAT     H261425   3.497   5.418   0.724
20395WAT      O61426   0.844   1.248   5.599
20395WAT     H161427   0.779   1.324   5.602
20395WAT     H261428   0.884   1.242   5.507
20396WAT      O61429   1.355   2.624   0.837
20396WAT     H161430   1.271   2.635   0.890
20396WAT     H261431   1.402   2.541   0.866
20397WAT      O61432   4.342   6.829   8.239
20397WAT     H161433   4.373   6.826   8.334
20397WAT     H261434   4.327   6.924   8.211
20398WAT      O61435   3.948   6.836   7.429
20398WAT     H161436   3.922   6.927   7.397
20398WAT     H261437   4.035   6.810   7.388
20399WAT      O61438   9.145   5.029   5.762
20399WAT     H161439   9.089   5.067   5.836
20399WAT     H261440   9.237   5.068   5.766
20400WAT      O61441   1.022   7.840   8.628
20400WAT     H161442   1.025   7.743   8.601
20400WAT     H261443   0.978   7.847   8.718
20401WAT      O61444   5.952   6.655   3.213
20401WAT     H161445   5.989   6.658   3.306
20401WAT     H261446   6.028   6.662   3.147
20402WAT      O61447   9.867   5.159   7.618
20402WAT     H161448   9.955   5.145   7.572
20402WAT     H261449   9.800   5.191   7.552
20403WAT      O61450   3.550   2.452   9.260
20403WAT     H161451   3.496   2.393   9.200
20403WAT     H261452   3.573   2.537   9.212
20404WAT      O61453   9.449   2.428   1.097
20404WAT     H161454   9.545   2.441   1.075
20404WAT     H261455   9.397   2.412   1.013
20405WAT      O61456   2.302   6.913   3.916
20405WAT     H161457   2.237   6.923   3.841
20405WAT     H261458   2.345   6.823   3.911
20406WAT      O61459   6.555   1.234   6.601
20406WAT     H161460   6.651   1.217   6.620
20406WAT     H261461   6.499   1.173   6.657
20407WAT      O61462   6.765   8.548   5.710
20407WAT     H161463   6.833   8.597   5.655
20407WAT     H261464   6.786   8.451   5.711
20408WAT      O61465   9.257   7.070   4.874
20408WAT     H161466   9.226   6.995   4.933
20408WAT     H261467   9.345   7.046   4.833
20409WAT      O61468   2.794   4.746   2.535
20409WAT     H161469   2.886   4.726   2.568
20409WAT     H261470   2.781   4.844   2.528
20410WAT      O61471   7.991   5.599   0.183
20410WAT     H161472   7.932   5.680   0.182
20410WAT     H261473   7.935   5.517   0.190
20411WAT      O61474   2.696   2.457   8.772
20411WAT     H161475   2.698   2.481   8.869
20411WAT     H261476   2.649   2.369   8.760
20412WAT      O61477   2.426   9.484   2.121
20412WAT     H161478   2.506   9.498   2.179
20412WAT     H261479   2.455   9.455   2.030
20413WAT      O61480   6.713   8.957   6.745
20413WAT     H161481   6.621   8.980   6.713
20413WAT     H261482   6.706   8.894   6.822
20414WAT      O61483   4.253   9.490   3.566
20414WAT     H161484   4.194   9.507   3.486
20414WAT     H261485   4.239   9.563   3.633
20415WAT      O61486   8.949   5.691   0.907
20415WAT     H161487   9.025   5.741   0.866
20415WAT     H261488   8.970   5.669   1.002
20416WAT      O61489   0.247   9.504   4.464
20416WAT     H161490   0.257   9.511   4.563
20416WAT     H261491   0.260   9.595   4.423
20417WAT      O61492   5.828   9.783   0.584
20417WAT     H161493   5.847   9.759   0.489
20417WAT     H261494   5.729   9.794   0.596
20418WAT      O61495   1.800   8.732   8.889
20418WAT     H161496   1.730   8.793   8.853
20418WAT     H261497   1.774   8.700   8.980
20419WAT      O61498   3.193   7.367   7.802
20419WAT     H161499   3.253   7.296   7.764
20419WAT     H261500   3.167   7.343   7.895
20420WAT      O61501   8.865   0.470   8.659
20420WAT     H161502   8.885   0.379   8.622
20420WAT     H261503   8.894   0.475   8.754
20421WAT      O61504   0.756   5.480   4.498
20421WAT     H161505   0.714   5.554   4.551
20421WAT     H261506   0.725   5.392   4.534
20422WAT      O61507   8.517   7.023   7.066
20422WAT     H161508   8.586   7.069   7.121
20422WAT     H261509   8.441   6.996   7.124
20423WAT      O61510   9.373   1.293   0.219
20423WAT     H161511   9.281   1.330   0.232
20423WAT     H261512   9.366   1.199   0.185
20424WAT      O61513   1.861   2.253   5.716
20424WAT     H161514   1.909   2.210   5.639
20424WAT     H261515   1.911   2.235   5.800
20425WAT      O61516   5.563   2.665   8.343
20425WAT     H161517   5.507   2.599   8.293
20425WAT     H261518   5.556   2.647   8.441
20426WAT      O61519   8.576   6.816   7.253
20426WAT     H161520   8.670   6.850   7.252
20426WAT     H261521   8.525   6.863   7.325
20427WAT      O61522   0.733   1.492   0.423
20427WAT     H161523   0.661   1.518   0.359
20427WAT     H261524   0.755   1.396   0.411
20428WAT      O61525   1.805   4.906   0.957
20428WAT     H161526   1.902   4.887   0.948
20428WAT     H261527   1.752   4.833   0.913
20429WAT      O61528   8.286   4.075   6.851
20429WAT     H161529   8.381   4.106   6.854
20429WAT     H261530   8.284   3.976   6.841
20430WAT      O61531   7.764   4.717   8.894
20430WAT     H161532   7.766   4.721   8.794
20430WAT     H261533   7.690   4.656   8.923
20431WAT      O61534   6.463   0.378   6.513
20431WAT     H161535   6.431   0.417   6.427
20431WAT     H261536   6.483   0.280   6.500
20432WAT      O61537   0.512   7.849   5.320
20432WAT     H161538   0.573   7.841   5.398
20432WAT     H261539   0.542   7.924   5.261
20433WAT      O61540   4.692   9.022   3.475
20433WAT     H161541   4.678   9.009   3.573
20433WAT     H261542   4.767   8.964   3.443
20434WAT      O61543   8.911   1.582   0.035
20434WAT     H161544   8.915   1.522  -0.045
20434WAT     H261545   8.820   1.623   0.042
20435WAT      O61546   2.495   8.110   6.422
20435WAT     H161547   2.469   8.098   6.518
20435WAT     H261548   2.547   8.030   6.391
20436WAT      O61549   3.225   3.060   1.536
20436WAT     H161550   3.204   3.078   1.632
20436WAT     H261551   3.322   3.035   1.528
20437WAT      O61552   6.270   7.183   9.211
20437WAT     H161553   6.294   7.194   9.307
20437WAT     H261554   6.352   7.190   9.154
20438WAT      O61555   3.982   0.548   8.735
20438WAT     H161556   3.970   0.497   8.650
20438WAT     H261557   4.079   0.551   8.759
20439WAT      O61558   2.635   6.100   2.126
20439WAT     H161559   2.578   6.077   2.048
20439WAT     H261560   2.616   6.193   2.156
20440WAT      O61561   0.287   4.190   0.951
20440WAT     H161562   0.342   4.250   0.893
20440WAT     H261563   0.229   4.132   0.894
20441WAT      O61564   4.062   6.240   6.147
20441WAT     H161565   4.159   6.234   6.171
20441WAT     H261566   4.014   6.294   6.217
20442WAT      O61567   9.058   4.508   7.931
20442WAT     H161568   9.060   4.449   7.850
20442WAT     H261569   9.044   4.452   8.013
20443WAT      O61570   5.500   8.331   6.837
20443WAT     H161571   5.517   8.408   6.898
20443WAT     H261572   5.566   8.258   6.855
20444WAT      O61573   2.364   5.029   2.401
20444WAT     H161574   2.329   5.122   2.387
20444WAT     H261575   2.369   5.011   2.500
20445WAT      O61576   1.683   9.454   1.959
20445WAT     H161577   1.591   9.417   1.950
20445WAT     H261578   1.697   9.488   2.052
20446WAT      O61579   4.534   3.584   8.132
20446WAT     H161580   4.468   3.514   8.103
20446WAT     H261581   4.487   3.654   8.186
20447WAT      O61582   6.354   3.874   0.909
20447WAT     H161583   6.299   3.821   0.844
20447WAT     H261584   6.404   3.945   0.861
20448WAT      O61585   5.834   2.623   7.401
20448WAT     H161586   5.818   2.526   7.382
20448WAT     H261587   5.775   2.653   7.476
20449WAT      O61588   1.159   7.842   3.241
20449WAT     H161589   1.209   7.818   3.157
20449WAT     H261590   1.114   7.931   3.229
20450WAT      O61591   8.096   6.018   4.959
20450WAT     H161592   8.054   6.105   4.933
20450WAT     H261593   8.111   5.962   4.878
20451WAT      O61594   0.647   3.039   5.513
20451WAT     H161595   0.727   3.096   5.532
20451WAT     H261596   0.564   3.095   5.522
20452WAT      O61597   9.251   2.432   8.563
20452WAT     H161598   9.347   2.427   8.591
20452WAT     H261599   9.199   2.485   8.629
20453WAT      O61600   9.728   9.000   1.189
20453WAT     H161601   9.718   8.930   1.118
20453WAT     H261602   9.650   8.995   1.251
20454WAT      O61603   4.646   1.487   7.475
20454WAT     H161604   4.639   1.529   7.565
20454WAT     H261605   4.738   1.500   7.439
20455WAT      O61606   4.511   6.418   0.271
20455WAT     H161607   4.429   6.361   0.273
20455WAT     H261608   4.589   6.363   0.242
20456WAT      O61609   9.849   9.827   2.953
20456WAT     H161610   9.783   9.901   2.961
20456WAT     H261611   9.830   9.757   3.022
20457WAT      O61612   6.681   0.176   0.835
20457WAT     H161613   6.761   0.197   0.893
20457WAT     H261614   6.640   0.090   0.864
20458WAT      O61615   4.917   5.207   4.600
20458WAT     H161616   4.961   5.167   4.520
20458WAT     H261617   4.916   5.140   4.674
20459WAT      O61618   9.466   1.570   0.445
20459WAT     H161619   9.391   1.523   0.491
20459WAT     H261620   9.433   1.613   0.361
20460WAT      O61621   4.265   7.433   5.524
20460WAT     H161622   4.332   7.507   5.530
20460WAT     H261623   4.246   7.413   5.428
20461WAT      O61624   7.242   4.860   7.945
20461WAT     H161625   7.333   4.880   7.909
20461WAT     H261626   7.248   4.788   8.014
20462WAT      O61627   1.255   2.266   7.416
20462WAT     H161628   1.223   2.223   7.501
20462WAT     H261629   1.323   2.336   7.439
20463WAT      O61630   0.680   4.928   1.743
20463WAT     H161631   0.584   4.919   1.770
20463WAT     H261632   0.686   4.982   1.659
20464WAT      O61633   4.482   9.181   2.022
20464WAT     H161634   4.512   9.142   2.109
20464WAT     H261635   4.530   9.267   2.005
20465WAT      O61636   5.271   4.430   4.824
20465WAT     H161637   5.366   4.439   4.794
20465WAT     H261638   5.232   4.521   4.841
20466WAT      O61639   8.349   0.501   2.817
20466WAT     H161640   8.379   0.409   2.841
20466WAT     H261641   8.421   0.547   2.764
20467WAT      O61642   8.518   7.959   7.876
20467WAT     H161643   8.545   7.937   7.970
20467WAT     H261644   8.485   8.053   7.873
20468WAT      O61645   0.117   7.232   7.489
20468WAT     H161646   0.049   7.244   7.417
20468WAT     H261647   0.126   7.134   7.510
20469WAT      O61648   0.187   2.097   3.852
20469WAT     H161649   0.218   2.016   3.803
20469WAT     H261650   0.171   2.171   3.787
20470WAT      O61651   8.813   3.057   8.521
20470WAT     H161652   8.740   2.994   8.496
20470WAT     H261653   8.783   3.152   8.506
20471WAT      O61654   0.431   1.714   1.355
20471WAT     H161655   0.516   1.736   1.403
20471WAT     H261656   0.362   1.783   1.376
20472WAT      O61657   1.159   0.746   0.595
20472WAT     H161658   1.182   0.661   0.547
20472WAT     H261659   1.205   0.748   0.684
20473WAT      O61660   4.845   3.750   3.346
20473WAT     H161661   4.794   3.823   3.393
20473WAT     H261662   4.892   3.788   3.267
20474WAT      O61663   0.578   3.152   6.739
20474WAT     H161664   0.549   3.102   6.820
20474WAT     H261665   0.511   3.137   6.666
20475WAT      O61666   5.328   7.192   7.015
20475WAT     H161667   5.360   7.196   7.110
20475WAT     H261668   5.369   7.113   6.969
20476WAT      O61669   5.999   0.411   4.887
20476WAT     H161670   6.053   0.464   4.952
20476WAT     H261671   6.039   0.420   4.796
20477WAT      O61672   7.120   3.235   7.863
20477WAT     H161673   7.030   3.190   7.854
20477WAT     H261674   7.191   3.173   7.831
20478WAT      O61675   7.389   3.807   0.417
20478WAT     H161676   7.475   3.782   0.461
20478WAT     H261677   7.317   3.744   0.446
20479WAT      O61678   9.241   1.449   1.588
20479WAT     H161679   9.151   1.405   1.578
20479WAT     H261680   9.229   1.547   1.603
20480WAT      O61681   0.644   9.717   9.191
20480WAT     H161682   0.552   9.679   9.180
20480WAT     H261683   0.664   9.779   9.115
20481WAT      O61684   6.884   9.403   3.324
20481WAT     H161685   6.959   9.359   3.276
20481WAT     H261686   6.857   9.348   3.403
20482WAT      O61687   0.782   3.065   0.803
20482WAT     H161688   0.828   3.112   0.878
20482WAT     H261689   0.828   3.085   0.717
20483WAT      O61690   2.509   1.787   1.225
20483WAT     H161691   2.578   1.740   1.170
20483WAT     H261692   2.511   1.884   1.205
20484WAT      O61693   7.492   3.680   8.264
20484WAT     H161694   7.432   3.600   8.253
20484WAT     H261695   7.541   3.697   8.179
20485WAT      O61696   8.580   4.235   8.477
20485WAT     H161697   8.595   4.324   8.433
20485WAT     H261698   8.562   4.249   8.575
20486WAT      O61699   7.243   1.075   2.014
20486WAT     H161700   7.309   1.027   2.072
20486WAT     H261701   7.274   1.072   1.919
20487WAT      O61702   9.178   0.844   5.788
20487WAT     H161703   9.139   0.812   5.875
20487WAT     H261704   9.107   0.843   5.718
20488WAT      O61705   9.504   2.183   0.676
20488WAT     H161706   9.440   2.112   0.704
20488WAT     H261707   9.585   2.181   0.735
20489WAT      O61708   1.708   3.839   5.836
20489WAT     H161709   1.701   3.741   5.818
20489WAT     H261710   1.781   3.857   5.902
20490WAT      O61711   3.907   7.838   5.553
20490WAT     H161712   3.957   7.756   5.583
20490WAT     H261713   3.930   7.858   5.458
20491WAT      O61714   7.057   0.821   1.089
20491WAT     H161715   6.967   0.842   1.126
20491WAT     H261716   7.068   0.722   1.083
20492WAT      O61717   5.954   4.076   6.094
20492WAT     H161718   5.930   4.049   6.001
20492WAT     H261719   6.049   4.052   6.112
20493WAT      O61720   5.594   7.448   5.439
20493WAT     H161721   5.588   7.441   5.339
20493WAT     H261722   5.525   7.389   5.481
20494WAT      O61723   0.374   5.481   3.657
20494WAT     H161724   0.378   5.546   3.582
20494WAT     H261725   0.466   5.461   3.689
20495WAT      O61726   0.700   3.441   4.629
20495WAT     H161727   0.707   3.342   4.628
20495WAT     H261728   0.703   3.476   4.535
20496WAT      O61729   3.223   3.256   7.443
20496WAT     H161730   3.220   3.250   7.343
20496WAT     H261731   3.314   3.284   7.472
20497WAT      O61732   8.336   1.535   5.052
20497WAT     H161733   8.387   1.616   5.082
20497WAT     H261734   8.336   1.531   4.952
20498WAT      O61735   0.837   4.476   7.970
20498WAT     H161736   0.805   4.570   7.966
20498WAT     H261737   0.790   4.422   7.900
20499WAT      O61738   5.791   8.258   9.710
20499WAT     H161739   5.841   8.176   9.735
20499WAT     H261740   5.784   8.319   9.789
20500WAT      O61741   1.395   1.438   0.268
20500WAT     H161742   1.358   1.439   0.360
20500WAT     H261743   1.327   1.401   0.205
20501WAT      O61744   3.641   4.190   5.550
20501WAT     H161745   3.675   4.187   5.644
20501WAT     H261746   3.547   4.158   5.548
20502WAT      O61747   0.033   9.166   8.682
20502WAT     H161748   0.120   9.128   8.651
20502WAT     H261749   0.050   9.254   8.727
20503WAT      O61750   5.200   1.433   3.432
20503WAT     H161751   5.241   1.412   3.343
20503WAT     H261752   5.204   1.531   3.449
20504WAT      O61753   0.834   1.914   6.525
20504WAT     H161754   0.909   1.963   6.482
20504WAT     H261755   0.758   1.977   6.541
20505WAT      O61756   4.764   6.597   2.091
20505WAT     H161757   4.677   6.567   2.052
20505WAT     H261758   4.821   6.635   2.018
20506WAT      O61759   4.873   0.630   1.294
20506WAT     H161760   4.842   0.535   1.302
20506WAT     H261761   4.793   0.690   1.296
20507WAT      O61762   5.740   2.876   3.251
20507WAT     H161763   5.679   2.955   3.261
20507WAT     H261764   5.809   2.895   3.182
20508WAT      O61765   0.039   4.557   4.842
20508WAT     H161766   0.042   4.485   4.773
20508WAT     H261767  -0.026   4.532   4.914
20509WAT      O61768   2.899   3.943   5.043
20509WAT     H161769   2.917   4.006   4.968
20509WAT     H261770   2.978   3.939   5.104
20510WAT      O61771   3.229   6.062   5.191
20510WAT     H161772   3.313   6.112   5.211
20510WAT     H261773   3.155   6.096   5.249
20511WAT      O61774   8.793   8.153   9.122
20511WAT     H161775   8.713   8.134   9.179
20511WAT     H261776   8.767   8.154   9.026
20512WAT      O61777   4.675   7.879   8.183
20512WAT     H161778   4.773   7.890   8.194
20512WAT     H261779   4.656   7.800   8.126
20513WAT      O61780   4.645   8.405   8.771
20513WAT     H161781   4.736   8.431   8.739
20513WAT     H261782   4.577   8.430   8.702
20514WAT      O61783   5.530   1.643   6.908
20514WAT     H161784   5.538   1.561   6.852
20514WAT     H261785   5.481   1.714   6.857
20515WAT      O61786   8.942   7.200   6.759
20515WAT     H161787   8.869   7.136   6.734
20515WAT     H261788   8.948   7.206   6.859
20516WAT      O61789   5.673   9.628   5.337
20516WAT     H161790   5.693   9.707   5.394
20516WAT     H261791   5.755   9.601   5.287
20517WAT      O61792   5.847   9.193   0.372
20517WAT     H161793   5.797   9.161   0.291
20517WAT     H261794   5.782   9.231   0.438
20518WAT      O61795   3.889   2.617   9.321
20518WAT     H161796   3.936   2.583   9.402
20518WAT     H261797   3.797   2.647   9.347
20519WAT      O61798   0.092   8.861   7.920
20519WAT     H161799   0.017   8.801   7.890
20519WAT     H261800   0.085   8.949   7.873
20520WAT      O61801   1.319   6.874   9.717
20520WAT     H161802   1.392   6.814   9.683
20520WAT     H261803   1.359   6.957   9.755
20521WAT      O61804   8.096   9.014   7.512
20521WAT     H161805   8.129   8.967   7.430
20521WAT     H261806   8.032   9.086   7.485
20522WAT      O61807   2.209   2.163   2.919
20522WAT     H161808   2.196   2.242   2.980
20522WAT     H261809   2.256   2.193   2.836
20523WAT      O61810   0.025   2.223   8.562
20523WAT     H161811  -0.038   2.198   8.489
20523WAT     H261812   0.105   2.163   8.558
20524WAT      O61813   3.951   2.495   6.564
20524WAT     H161814   4.004   2.558   6.508
20524WAT     H261815   3.945   2.530   6.658
20525WAT      O61816   2.722   4.683   5.309
20525WAT     H161817   2.771   4.770   5.298
20525WAT     H261818   2.786   4.607   5.298
20526WAT      O61819   1.849   2.876   2.943
20526WAT     H161820   1.927   2.820   2.967
20526WAT     H261821   1.816   2.924   3.024
20527WAT      O61822   3.094   7.682   2.711
20527WAT     H161823   3.048   7.716   2.794
20527WAT     H261824   3.083   7.748   2.637
20528WAT      O61825   9.548   6.967   6.459
20528WAT     H161826   9.615   6.895   6.475
20528WAT     H261827   9.495   6.982   6.542
20529WAT      O61828   0.546   3.132   2.694
20529WAT     H161829   0.629   3.092   2.732
20529WAT     H261830   0.556   3.231   2.689
20530WAT      O61831   4.388   6.740   4.984
20530WAT     H161832   4.432   6.730   4.895
20530WAT     H261833   4.306   6.797   4.975
20531WAT      O61834   8.512   1.021   0.003
20531WAT     H161835   8.588   1.079  -0.027
20531WAT     H261836   8.430   1.077   0.015
20532WAT      O61837   4.414   2.503   9.730
20532WAT     H161838   4.427   2.517   9.632
20532WAT     H261839   4.450   2.413   9.756
20533WAT      O61840   4.862   0.375   2.987
20533WAT     H161841   4.915   0.428   2.920
20533WAT     H261842   4.816   0.438   3.050
20534WAT      O61843   8.560   4.684   7.375
20534WAT     H161844   8.652   4.665   7.341
20534WAT     H261845   8.492   4.647   7.311
20535WAT      O61846   9.709   9.082   5.924
20535WAT     H161847   9.707   9.005   5.860
20535WAT     H261848   9.685   9.050   6.016
20536WAT      O61849   2.627   0.137   7.521
20536WAT     H161850   2.701   0.130   7.588
20536WAT     H261851   2.665   0.144   7.429
20537WAT      O61852   5.846   6.603   5.455
20537WAT     H161853   5.851   6.684   5.397
20537WAT     H261854   5.761   6.604   5.507
20538WAT      O61855   1.313   8.541   5.132
20538WAT     H161856   1.361   8.489   5.061
20538WAT     H261857   1.218   8.555   5.105
20539WAT      O61858   7.600   1.797   3.367
20539WAT     H161859   7.533   1.849   3.419
20539WAT     H261860   7.573   1.796   3.270
20540WAT      O61861   7.748   3.847   7.525
20540WAT     H161862   7.750   3.766   7.584
20540WAT     H261863   7.752   3.929   7.582
20541WAT      O61864   3.240   8.123   0.740
20541WAT     H161865   3.261   8.039   0.691
20541WAT     H261866   3.295   8.198   0.705
20542WAT      O61867   9.832   8.800   3.901
20542WAT     H161868   9.923   8.766   3.879
20542WAT     H261869   9.767   8.724   3.897
20543WAT      O61870   5.515   6.559   0.795
20543WAT     H161871   5.587   6.563   0.726
20543WAT     H261872   5.544   6.502   0.871
20544WAT      O61873   6.085   4.042   9.326
20544WAT     H161874   5.995   3.999   9.318
20544WAT     H261875   6.080   4.136   9.291
20545WAT      O61876   6.249   0.504   4.080
20545WAT     H161877   6.256   0.418   4.030
20545WAT     H261878   6.261   0.487   4.178
20546WAT      O61879   6.065   1.705   2.789
20546WAT     H161880   6.094   1.611   2.811
20546WAT     H261881   6.095   1.728   2.696
20547WAT      O61882   6.843   3.302   2.194
20547WAT     H161883   6.871   3.309   2.290
20547WAT     H261884   6.755   3.348   2.181
20548WAT      O61885   2.981   0.619   3.343
20548WAT     H161886   2.896   0.568   3.328
20548WAT     H261887   3.023   0.589   3.429
20549WAT      O61888   3.999   2.080   3.840
20549WAT     H161889   4.003   2.046   3.934
20549WAT     H261890   4.066   2.153   3.828
20550WAT      O61891   0.896   5.474   4.229
20550WAT     H161892   0.842   5.486   4.312
20550WAT     H261893   0.839   5.428   4.160
20551WAT      O61894   2.764   3.696   1.987
20551WAT     H161895   2.812   3.687   2.074
20551WAT     H261896   2.813   3.645   1.916
20552WAT      O61897   3.148   6.083   4.530
20552WAT     H161898   3.056   6.048   4.548
20552WAT     H261899   3.175   6.061   4.437
20553WAT      O61900   3.330   1.951   8.248
20553WAT     H161901   3.317   1.854   8.226
20553WAT     H261902   3.244   2.000   8.236
20554WAT      O61903   6.558   4.352   1.518
20554WAT     H161904   6.536   4.255   1.508
20554WAT     H261905   6.657   4.365   1.509
20555WAT      O61906   3.454   7.492   7.692
20555WAT     H161907   3.469   7.393   7.689
20555WAT     H261908   3.384   7.513   7.760
20556WAT      O61909   4.897   0.507   4.458
20556WAT     H161910   4.807   0.518   4.414
20556WAT     H261911   4.968   0.539   4.395
20557WAT      O61912   3.554   1.934   4.421
20557WAT     H161913   3.638   1.897   4.381
20557WAT     H261914   3.478   1.873   4.401
20558WAT      O61915   2.326   9.551   3.903
20558WAT     H161916   2.244   9.559   3.959
20558WAT     H261917   2.392   9.490   3.948
20559WAT      O61918   2.828   3.176   1.930
20559WAT     H161919   2.819   3.083   1.895
20559WAT     H261920   2.761   3.235   1.886
20560WAT      O61921   5.998   0.088   3.876
20560WAT     H161922   5.945   0.171   3.855
20560WAT     H261923   6.002   0.075   3.975
20561WAT      O61924   7.321   0.020   3.994
20561WAT     H161925   7.265   0.032   3.912
20561WAT     H261926   7.415   0.047   3.974
20562WAT      O61927   0.463   3.519   3.836
20562WAT     H161928   0.546   3.512   3.780
20562WAT     H261929   0.487   3.506   3.933
20563WAT      O61930   1.506   1.577   1.560
20563WAT     H161931   1.599   1.595   1.528
20563WAT     H261932   1.445   1.651   1.529
20564WAT      O61933   8.980   9.124   7.870
20564WAT     H161934   8.982   9.212   7.917
20564WAT     H261935   9.049   9.123   7.797
20565WAT      O61936   7.320   0.132   2.575
20565WAT     H161937   7.395   0.066   2.573
20565WAT     H261938   7.353   0.220   2.609
20566WAT      O61939   3.078   7.696   4.363
20566WAT     H161940   3.089   7.638   4.282
20566WAT     H261941   3.167   7.723   4.398
20567WAT      O61942   0.996   7.042   4.067
20567WAT     H161943   1.009   7.010   4.161
20567WAT     H261944   0.997   7.142   4.066
20568WAT      O61945   3.782   7.735   1.080
20568WAT     H161946   3.697   7.738   1.026
20568WAT     H261947   3.858   7.711   1.020
20569WAT      O61948   0.887   4.196   2.987
20569WAT     H161949   0.823   4.267   2.957
20569WAT     H261950   0.920   4.218   3.079
20570WAT      O61951   8.903   2.695   3.375
20570WAT     H161952   8.845   2.723   3.299
20570WAT     H261953   8.920   2.773   3.435
20571WAT      O61954   0.464   2.405   8.020
20571WAT     H161955   0.495   2.489   8.064
20571WAT     H261956   0.518   2.328   8.055
20572WAT      O61957   5.979   3.567   1.102
20572WAT     H161958   5.940   3.607   1.185
20572WAT     H261959   5.937   3.477   1.086
20573WAT      O61960   3.664   2.283   1.773
20573WAT     H161961   3.675   2.246   1.681
20573WAT     H261962   3.746   2.263   1.827
20574WAT      O61963   4.934   0.700   1.041
20574WAT     H161964   4.941   0.666   1.135
20574WAT     H261965   5.007   0.766   1.023
20575WAT      O61966   8.419   0.689   3.317
20575WAT     H161967   8.438   0.784   3.341
20575WAT     H261968   8.387   0.684   3.222
20576WAT      O61969   7.037   1.937   6.187
20576WAT     H161970   7.091   2.001   6.241
20576WAT     H261971   6.961   1.903   6.243
20577WAT      O61972   3.143   9.770   6.363
20577WAT     H161973   3.220   9.784   6.301
20577WAT     H261974   3.174   9.720   6.444
20578WAT      O61975   2.037   8.882   0.743
20578WAT     H161976   2.080   8.957   0.692
20578WAT     H261977   2.004   8.813   0.679
20579WAT      O61978   2.699   4.741   5.580
20579WAT     H161979   2.711   4.699   5.490
20579WAT     H261980   2.614   4.795   5.581
20580WAT      O61981   9.608   3.182   0.439
20580WAT     H161982   9.537   3.129   0.392
20580WAT     H261983   9.673   3.119   0.483
20581WAT      O61984   6.181   8.449   7.126
20581WAT     H161985   6.213   8.530   7.174
20581WAT     H261986   6.102   8.410   7.174
20582WAT      O61987   1.415   1.376   8.762
20582WAT     H161988   1.482   1.444   8.734
20582WAT     H261989   1.437   1.287   8.721
20583WAT      O61990   0.935   0.081   4.129
20583WAT     H161991   0.851   0.078   4.183
20583WAT     H261992   1.014   0.075   4.190
20584WAT      O61993   7.558   4.874   2.591
20584WAT     H161994   7.656   4.860   2.599
20584WAT     H261995   7.528   4.938   2.663
20585WAT      O61996   9.437   8.509   9.124
20585WAT     H161997   9.419   8.569   9.202
20585WAT     H261998   9.424   8.561   9.039
20586WAT      O61999   6.699  -0.002   4.937
20586WAT     H162000   6.788  -0.021   4.979
20586WAT     H262001   6.645   0.055   4.999
20587WAT      O62002   3.289   2.801   0.300
20587WAT     H162003   3.337   2.724   0.258
20587WAT     H262004   3.308   2.885   0.249
20588WAT      O62005   5.840   4.229   7.725
20588WAT     H162006   5.781   4.163   7.680
20588WAT     H262007   5.814   4.238   7.821
20589WAT      O62008   3.922   5.318   4.119
20589WAT     H162009   3.877   5.295   4.206
20589WAT     H262010   3.921   5.238   4.060
20590WAT      O62011   5.206   8.469   2.362
20590WAT     H162012   5.272   8.538   2.390
20590WAT     H262013   5.138   8.456   2.434
20591WAT      O62014   1.049   9.407   0.467
20591WAT     H162015   1.088   9.363   0.547
20591WAT     H262016   0.949   9.402   0.472
20592WAT      O62017   8.870   8.660   9.653
20592WAT     H162018   8.910   8.749   9.632
20592WAT     H262019   8.822   8.626   9.572
20593WAT      O62020   0.771   4.577   2.233
20593WAT     H162021   0.845   4.602   2.296
20593WAT     H262022   0.732   4.489   2.261
20594WAT      O62023   6.109   7.200   5.503
20594WAT     H162024   6.176   7.180   5.431
20594WAT     H262025   6.043   7.267   5.469
20595WAT      O62026   1.022   0.983   5.162
20595WAT     H162027   1.019   0.896   5.211
20595WAT     H262028   1.061   1.054   5.221
20596WAT      O62029   8.295   3.578   9.004
20596WAT     H162030   8.280   3.547   8.910
20596WAT     H262031   8.374   3.530   9.042
20597WAT      O62032   1.373   8.769   3.537
20597WAT     H162033   1.449   8.762   3.602
20597WAT     H262034   1.296   8.714   3.570
20598WAT      O62035   8.384   4.457   2.041
20598WAT     H162036   8.417   4.538   2.090
20598WAT     H262037   8.376   4.380   2.104
20599WAT      O62038   8.801   8.311   3.584
20599WAT     H162039   8.837   8.280   3.497
20599WAT     H262040   8.782   8.409   3.581
20600WAT      O62041   9.272   8.376   1.814
20600WAT     H162042   9.275   8.348   1.718
20600WAT     H262043   9.214   8.314   1.865
20601WAT      O62044   3.775   5.612   5.361
20601WAT     H162045   3.792   5.570   5.273
20601WAT     H262046   3.679   5.638   5.368
20602WAT      O62047   6.300   7.852   1.008
20602WAT     H162048   6.218   7.827   1.061
20602WAT     H262049   6.381   7.845   1.067
20603WAT      O62050   3.285   2.721   9.445
20603WAT     H162051   3.196   2.684   9.418
20603WAT     H262052   3.298   2.706   9.543
20604WAT      O62053   5.643   8.989   1.442
20604WAT     H162054   5.728   8.962   1.486
20604WAT     H262055   5.575   9.012   1.511
20605WAT      O62056   9.617   1.851   7.243
20605WAT     H162057   9.622   1.826   7.340
20605WAT     H262058   9.522   1.850   7.214
20606WAT      O62059   8.843   9.784   0.713
20606WAT     H162060   8.811   9.878   0.721
20606WAT     H262061   8.785   9.724   0.767
20607WAT      O62062   7.059   8.205   3.832
20607WAT     H162063   7.113   8.231   3.752
20607WAT     H262064   6.984   8.145   3.803
20608WAT      O62065   8.873   1.185   0.186
20608WAT     H162066   8.784   1.206   0.224
20608WAT     H262067   8.903   1.095   0.218
20609WAT      O62068   8.752   4.064   8.604
20609WAT     H162069   8.833   4.070   8.546
20609WAT     H262070   8.676   4.114   8.562
20610WAT      O62071   7.524   3.540   8.830
20610WAT     H162072   7.593   3.469   8.843
20610WAT     H262073   7.492   3.538   8.736
20611WAT      O62074   7.656   0.009   7.244
20611WAT     H162075   7.724  -0.064   7.254
20611WAT     H262076   7.568  -0.022   7.279
20612WAT      O62077   3.516   3.941   9.623
20612WAT     H162078   3.611   3.914   9.610
20612WAT     H262079   3.509   4.041   9.619
20613WAT      O62080   6.647   7.773   1.820
20613WAT     H162081   6.592   7.727   1.890
20613WAT     H262082   6.663   7.710   1.744
20614WAT      O62083   3.690   9.294   1.907
20614WAT     H162084   3.634   9.242   1.843
20614WAT     H262085   3.763   9.341   1.857
20615WAT      O62086   7.882   0.830   8.084
20615WAT     H162087   7.786   0.813   8.061
20615WAT     H262088   7.905   0.781   8.168
20616WAT      O62089   8.600   1.969   8.245
20616WAT     H162090   8.599   2.065   8.218
20616WAT     H262091   8.527   1.953   8.311
20617WAT      O62092   8.944   1.401   3.528
20617WAT     H162093   8.920   1.310   3.493
20617WAT     H262094   8.983   1.393   3.619
20618WAT      O62095   3.024   7.793   9.822
20618WAT     H162096   2.980   7.733   9.890
20618WAT     H262097   3.101   7.840   9.864
20619WAT      O62098   6.063   2.257   4.494
20619WAT     H162099   6.004   2.223   4.567
20619WAT     H262100   6.074   2.356   4.504
20620WAT      O62101   0.378   5.171   2.758
20620WAT     H162102   0.295   5.145   2.708
20620WAT     H262103   0.458   5.133   2.711
20621WAT      O62104   7.093   4.626   4.572
20621WAT     H162105   7.128   4.644   4.480
20621WAT     H262106   7.170   4.618   4.636
20622WAT      O62107   0.166   5.176   4.626
20622WAT     H162108   0.106   5.238   4.678
20622WAT     H262109   0.208   5.226   4.551
20623WAT      O62110   9.259   6.895   3.758
20623WAT     H162111   9.353   6.881   3.725
20623WAT     H262112   9.262   6.927   3.853
20624WAT      O62113   7.164   5.753   2.877
20624WAT     H162114   7.135   5.800   2.960
20624WAT     H262115   7.133   5.804   2.797
20625WAT      O62116   5.294   6.351   6.205
20625WAT     H162117   5.300   6.335   6.304
20625WAT     H262118   5.202   6.381   6.181
20626WAT      O62119   6.538   5.155   3.645
20626WAT     H162120   6.478   5.082   3.613
20626WAT     H262121   6.633   5.131   3.627
20627WAT      O62122   1.797   0.389   9.859
20627WAT     H162123   1.884   0.416   9.816
20627WAT     H262124   1.773   0.297   9.830
20628WAT      O62125   7.725   1.956   4.706
20628WAT     H162126   7.805   1.950   4.766
20628WAT     H262127   7.754   1.969   4.611
20629WAT      O62128   3.634   0.334   1.417
20629WAT     H162129   3.694   0.285   1.354
20629WAT     H262130   3.539   0.314   1.393
20630WAT      O62131   1.116   6.407   3.218
20630WAT     H162132   1.150   6.483   3.274
20630WAT     H262133   1.051   6.442   3.151
20631WAT      O62134   1.373   0.562   8.673
20631WAT     H162135   1.278   0.571   8.701
20631WAT     H262136   1.380   0.499   8.596
20632WAT      O62137   7.026   3.951   2.816
20632WAT     H162138   7.063   3.993   2.733
20632WAT     H262139   7.017   3.852   2.803
20633WAT      O62140   7.635   2.194   8.128
20633WAT     H162141   7.619   2.187   8.030
20633WAT     H262142   7.554   2.162   8.178
20634WAT      O62143   8.792   6.687   2.718
20634WAT     H162144   8.781   6.592   2.746
20634WAT     H262145   8.883   6.719   2.744
20635WAT      O62146   7.306   3.847   8.393
20635WAT     H162147   7.332   3.831   8.488
20635WAT     H262148   7.386   3.833   8.334
20636WAT      O62149   8.474   5.244   7.546
20636WAT     H162150   8.412   5.318   7.569
20636WAT     H262151   8.498   5.250   7.449
20637WAT      O62152   2.972   5.261   5.966
20637WAT     H162153   2.905   5.217   5.906
20637WAT     H262154   3.029   5.192   6.009
20638WAT      O62155   3.130   3.700   3.491
20638WAT     H162156   3.191   3.649   3.551
20638WAT     H262157   3.035   3.676   3.513
20639WAT      O62158   4.082   2.710   2.503
20639WAT     H162159   4.071   2.619   2.463
20639WAT     H262160   4.089   2.778   2.431
20640WAT      O62161   3.908   8.779   8.483
20640WAT     H162162   3.875   8.702   8.538
20640WAT     H262163   3.899   8.757   8.386
20641WAT      O62164   7.128   0.157   6.699
20641WAT     H162165   7.224   0.157   6.729
20641WAT     H262166   7.111   0.076   6.642
20642WAT      O62167   4.949   7.715   7.109
20642WAT     H162168   4.853   7.739   7.119
20642WAT     H262169   4.992   7.778   7.044
20643WAT      O62170   6.130   1.361   5.725
20643WAT     H162171   6.218   1.409   5.715
20643WAT     H262172   6.146   1.274   5.772
20644WAT      O62173   4.446   2.072   5.942
20644WAT     H162174   4.485   2.080   6.034
20644WAT     H262175   4.394   1.986   5.936
20645WAT      O62176   8.152   3.266   3.406
20645WAT     H162177   8.105   3.265   3.318
20645WAT     H262178   8.229   3.330   3.402
20646WAT      O62179   3.387   2.306   9.087
20646WAT     H162180   3.365   2.375   9.018
20646WAT     H262181   3.448   2.237   9.046
20647WAT      O62182   6.627   3.344   5.082
20647WAT     H162183   6.589   3.347   5.174
20647WAT     H262184   6.626   3.249   5.049
20648WAT      O62185   8.889   5.301   1.713
20648WAT     H162186   8.891   5.391   1.758
20648WAT     H262187   8.884   5.314   1.614
20649WAT      O62188   8.091   4.002   7.474
20649WAT     H162189   8.040   4.013   7.389
20649WAT     H262190   8.109   3.905   7.490
20650WAT      O62191   8.191   2.191   5.008
20650WAT     H162192   8.189   2.254   4.930
20650WAT     H262193   8.140   2.231   5.084
20651WAT      O62194   7.969   0.362   3.377
20651WAT     H162195   7.898   0.300   3.412
20651WAT     H262196   7.952   0.381   3.281
20652WAT      O62197   1.428   9.698   4.310
20652WAT     H162198   1.383   9.738   4.391
20652WAT     H262199   1.526   9.712   4.316
20653WAT      O62200   2.520   1.578   9.031
20653WAT     H162201   2.475   1.553   8.946
20653WAT     H262202   2.494   1.672   9.057
20654WAT      O62203   3.321   4.131   8.602
20654WAT     H162204   3.342   4.035   8.620
20654WAT     H262205   3.222   4.144   8.603
20655WAT      O62206   2.731   7.310   4.282
20655WAT     H162207   2.634   7.298   4.303
20655WAT     H262208   2.741   7.382   4.213
20656WAT      O62209   1.483   2.975   4.454
20656WAT     H162210   1.396   2.929   4.436
20656WAT     H262211   1.484   3.008   4.549
20657WAT      O62212   9.755   1.216   5.761
20657WAT     H162213   9.687   1.146   5.740
20657WAT     H262214   9.719   1.306   5.736
20658WAT      O62215   3.258   7.765   2.962
20658WAT     H162216   3.163   7.745   2.939
20658WAT     H262217   3.314   7.760   2.880
20659WAT      O62218   0.563   1.546   0.196
20659WAT     H162219   0.593   1.521   0.104
20659WAT     H262220   0.473   1.504   0.214
20660WAT      O62221   6.787   6.357   0.068
20660WAT     H162222   6.839   6.442   0.059
20660WAT     H262223   6.780   6.312  -0.021
20661WAT      O62224   9.696   1.455   8.494
20661WAT     H162225   9.737   1.409   8.415
20661WAT     H262226   9.598   1.433   8.498
20662WAT      O62227   5.368   2.060   5.670
20662WAT     H162228   5.314   2.071   5.586
20662WAT     H262229   5.344   2.132   5.735
20663WAT      O62230   8.882   5.826   7.599
20663WAT     H162231   8.879   5.923   7.573
20663WAT     H262232   8.847   5.815   7.692
20664WAT      O62233   3.830   8.820   2.946
20664WAT     H162234   3.749   8.776   2.908
20664WAT     H262235   3.885   8.859   2.872
20665WAT      O62236   6.418   3.666   6.705
20665WAT     H162237   6.359   3.680   6.626
20665WAT     H262238   6.368   3.688   6.789
20666WAT      O62239   1.528   7.837   9.535
20666WAT     H162240   1.525   7.769   9.462
20666WAT     H262241   1.435   7.871   9.554
20667WAT      O62242   2.378   9.674   4.547
20667WAT     H162243   2.327   9.678   4.462
20667WAT     H262244   2.465   9.723   4.537
20668WAT      O62245   6.805   7.311   1.154
20668WAT     H162246   6.841   7.400   1.130
20668WAT     H262247   6.795   7.255   1.072
20669WAT      O62248   4.581   1.904   2.358
20669WAT     H162249   4.670   1.936   2.392
20669WAT     H262250   4.595   1.832   2.291
20670WAT      O62251   7.007   1.944   8.670
20670WAT     H162252   7.058   1.955   8.584
20670WAT     H262253   7.043   2.008   8.738
20671WAT      O62254   2.546   3.611   3.158
20671WAT     H162255   2.613   3.656   3.218
20671WAT     H262256   2.595   3.552   3.093
20672WAT      O62257   2.419   8.072   0.239
20672WAT     H162258   2.325   8.087   0.271
20672WAT     H262259   2.440   7.974   0.244
20673WAT      O62260   5.403   4.527   5.101
20673WAT     H162261   5.417   4.430   5.123
20673WAT     H262262   5.485   4.564   5.058
20674WAT      O62263   6.825   6.249   6.571
20674WAT     H162264   6.747   6.269   6.631
20674WAT     H262265   6.910   6.256   6.623
20675WAT      O62266   6.086   5.860   0.112
20675WAT     H162267   6.006   5.875   0.169
20675WAT     H262268   6.090   5.931   0.041
20676WAT      O62269   4.957   8.182   6.455
20676WAT     H162270   4.967   8.084   6.440
20676WAT     H262271   5.030   8.231   6.405
20677WAT      O62272   8.189   5.447   2.176
20677WAT     H162273   8.269   5.460   2.118
20677WAT     H262274   8.121   5.392   2.126
20678WAT      O62275   8.413   7.901   6.312
20678WAT     H162276   8.399   7.944   6.401
20678WAT     H262277   8.407   7.970   6.240
20679WAT      O62278   6.396   5.360   0.949
20679WAT     H162279   6.428   5.266   0.958
20679WAT     H262280   6.324   5.365   0.881
20680WAT      O62281   9.675   6.222   0.201
20680WAT     H162282   9.691   6.127   0.175
20680WAT     H262283   9.583   6.231   0.239
20681WAT      O62284   4.687   7.436   7.756
20681WAT     H162285   4.672   7.508   7.688
20681WAT     H262286   4.780   7.442   7.792
20682WAT      O62287   3.632   7.878   3.954
20682WAT     H162288   3.578   7.904   4.034
20682WAT     H262289   3.667   7.785   3.965
20683WAT      O62290   2.164   6.788   3.413
20683WAT     H162291   2.210   6.746   3.491
20683WAT     H262292   2.214   6.768   3.329
20684WAT      O62293   5.259   2.317   8.922
20684WAT     H162294   5.195   2.240   8.925
20684WAT     H262295   5.213   2.399   8.954
20685WAT      O62296   2.492   0.141   9.258
20685WAT     H162297   2.432   0.201   9.205
20685WAT     H262298   2.584   0.179   9.258
20686WAT      O62299   9.063   0.179   0.813
20686WAT     H162300   9.071   0.108   0.744
20686WAT     H262301   9.028   0.139   0.898
20687WAT      O62302   6.548   5.654   3.705
20687WAT     H162303   6.463   5.675   3.753
20687WAT     H262304   6.580   5.563   3.732
20688WAT      O62305   3.051   1.171   1.192
20688WAT     H162306   3.124   1.204   1.251
20688WAT     H262307   3.075   1.081   1.156
20689WAT      O62308   5.084   0.610   9.529
20689WAT     H162309   5.023   0.531   9.526
20689WAT     H262310   5.167   0.589   9.477
20690WAT      O62311   4.839   0.010   2.722
20690WAT     H162312   4.860  -0.040   2.806
20690WAT     H262313   4.838  -0.054   2.645
20691WAT      O62314   1.348   7.668   3.968
20691WAT     H162315   1.384   7.580   4.000
20691WAT     H262316   1.397   7.695   3.885
20692WAT      O62317   5.843   6.429   9.106
20692WAT     H162318   5.860   6.524   9.080
20692WAT     H262319   5.835   6.373   9.023
20693WAT      O62320   4.208   2.677   5.282
20693WAT     H162321   4.152   2.595   5.294
20693WAT     H262322   4.148   2.758   5.280
20694WAT      O62323   8.574   1.517   0.126
20694WAT     H162324   8.557   1.504   0.029
20694WAT     H262325   8.602   1.430   0.167
20695WAT      O62326   2.166   5.725   4.084
20695WAT     H162327   2.087   5.671   4.113
20695WAT     H262328   2.169   5.810   4.137
20696WAT      O62329   1.035   3.661   1.579
20696WAT     H162330   0.971   3.701   1.645
20696WAT     H262331   1.114   3.624   1.628
20697WAT      O62332   3.846   8.204   3.036
20697WAT     H162333   3.934   8.158   3.049
20697WAT     H262334   3.780   8.167   3.101
20698WAT      O62335   5.212   6.230   4.492
20698WAT     H162336   5.113   6.234   4.481
20698WAT     H262337   5.255   6.305   4.442
20699WAT      O62338   7.092   7.250   5.137
20699WAT     H162339   7.093   7.213   5.230
20699WAT     H262340   7.002   7.234   5.096
20700WAT      O62341   6.853   0.248   6.259
20700WAT     H162342   6.897   0.258   6.348
20700WAT     H262343   6.901   0.303   6.191
20701WAT      O62344   7.244   7.652   4.919
20701WAT     H162345   7.329   7.608   4.891
20701WAT     H262346   7.171   7.584   4.927
20702WAT      O62347   7.996   9.631   0.884
20702WAT     H162348   7.916   9.587   0.924
20702WAT     H262349   7.972   9.664   0.792
20703WAT      O62350   2.825   6.604   9.271
20703WAT     H162351   2.839   6.690   9.222
20703WAT     H262352   2.886   6.534   9.235
20704WAT      O62353   3.042   0.115   8.486
20704WAT     H162354   3.001   0.060   8.559
20704WAT     H262355   3.133   0.080   8.465
20705WAT      O62356   6.305   5.815   6.993
20705WAT     H162357   6.210   5.792   6.969
20705WAT     H262358   6.307   5.852   7.086
20706WAT      O62359   1.129   8.553   3.042
20706WAT     H162360   1.078   8.623   3.092
20706WAT     H262361   1.219   8.541   3.083
20707WAT      O62362   0.004   8.125   4.072
20707WAT     H162363   0.027   8.035   4.035
20707WAT     H262364   0.088   8.171   4.103
20708WAT      O62365   3.854   2.293   0.075
20708WAT     H162366   3.909   2.270  -0.006
20708WAT     H262367   3.907   2.352   0.135
20709WAT      O62368   0.576   6.042   5.284
20709WAT     H162369   0.552   6.069   5.191
20709WAT     H262370   0.631   6.114   5.327
20710WAT      O62371   6.142   0.224   6.529
20710WAT     H162372   6.175   0.286   6.600
20710WAT     H262373   6.176   0.131   6.547
20711WAT      O62374   3.064   7.667   9.508
20711WAT     H162375   3.013   7.752   9.526
20711WAT     H262376   3.159   7.689   9.487
20712WAT      O62377   5.291   9.081   2.131
20712WAT     H162378   5.360   9.093   2.203
20712WAT     H262379   5.335   9.083   2.041
20713WAT      O62380   5.595   1.805   3.932
20713WAT     H162381   5.610   1.903   3.945
20713WAT     H262382   5.640   1.775   3.848
20714WAT      O62383   3.749   1.958   0.256
20714WAT     H162384   3.802   2.022   0.312
20714WAT     H262385   3.694   1.899   0.315
20715WAT      O62386   2.062   2.179   5.524
20715WAT     H162387   2.148   2.131   5.537
20715WAT     H262388   2.031   2.168   5.429
20716WAT      O62389   0.947   2.296   8.720
20716WAT     H162390   0.930   2.391   8.694
20716WAT     H262391   1.040   2.270   8.693
20717WAT      O62392   2.643   7.139   9.828
20717WAT     H162393   2.577   7.200   9.784
20717WAT     H262394   2.595   7.070   9.882
20718WAT      O62395   5.746   4.695   8.253
20718WAT     H162396   5.763   4.787   8.289
20718WAT     H262397   5.746   4.698   8.153
20719WAT      O62398   9.335   1.901   7.838
20719WAT     H162399   9.269   1.950   7.895
20719WAT     H262400   9.343   1.807   7.869
20720WAT      O62401   4.259   8.077   4.654
20720WAT     H162402   4.302   8.031   4.731
20720WAT     H262403   4.321   8.076   4.576
20721WAT      O62404   9.025   0.466   2.871
20721WAT     H162405   8.936   0.422   2.871
20721WAT     H262406   9.086   0.419   2.935
20722WAT      O62407   6.133   2.597   0.032
20722WAT     H162408   6.044   2.554   0.019
20722WAT     H262409   6.196   2.532   0.075
20723WAT      O62410   2.937   1.361   2.011
20723WAT     H162411   2.864   1.320   2.066
20723WAT     H262412   2.896   1.416   1.938
20724WAT      O62413   0.384   2.899   0.452
20724WAT     H162414   0.437   2.815   0.469
20724WAT     H262415   0.442   2.967   0.408
20725WAT      O62416   9.644   0.361   2.017
20725WAT     H162417   9.650   0.362   2.117
20725WAT     H262418   9.570   0.420   1.987
20726WAT      O62419   2.102   2.800   2.035
20726WAT     H162420   2.129   2.896   2.037
20726WAT     H262421   2.140   2.757   1.953
20727WAT      O62422   2.088   2.028   7.767
20727WAT     H162423   2.119   1.997   7.857
20727WAT     H262424   2.130   1.970   7.697
20728WAT      O62425   6.817   5.135   3.308
20728WAT     H162426   6.814   5.233   3.290
20728WAT     H262427   6.793   5.118   3.403
20729WAT      O62428   3.273   8.783   8.815
20729WAT     H162429   3.352   8.838   8.787
20729WAT     H262430   3.242   8.813   8.905
20730WAT      O62431   3.159   8.889   2.490
20730WAT     H162432   3.223   8.920   2.560
20730WAT     H262433   3.208   8.833   2.423
20731WAT      O62434   5.797   0.546   7.038
20731WAT     H162435   5.854   0.535   6.957
20731WAT     H262436   5.835   0.491   7.113
20732WAT      O62437   4.209   0.517   7.774
20732WAT     H162438   4.253   0.430   7.797
20732WAT     H262439   4.177   0.561   7.857
20733WAT      O62440   7.805   3.388   5.829
20733WAT     H162441   7.735   3.429   5.771
20733WAT     H262442   7.877   3.348   5.771
20734WAT      O62443   1.788   0.458   2.239
20734WAT     H162444   1.769   0.472   2.142
20734WAT     H262445   1.886   0.448   2.252
20735WAT      O62446   3.100   4.120   7.060
20735WAT     H162447   3.099   4.085   7.154
20735WAT     H262448   3.018   4.176   7.044
20736WAT      O62449   1.087   7.105   2.006
20736WAT     H162450   1.090   7.192   1.958
20736WAT     H262451   1.150   7.107   2.084
20737WAT      O62452   7.931   0.194   1.240
20737WAT     H162453   7.888   0.193   1.149
20737WAT     H262454   7.943   0.100   1.272
20738WAT      O62455   6.120   9.089   2.077
20738WAT     H162456   6.075   9.034   2.007
20738WAT     H262457   6.099   9.051   2.167
20739WAT      O62458   2.696   0.970   9.714
20739WAT     H162459   2.690   1.065   9.746
20739WAT     H262460   2.754   0.966   9.633
20740WAT      O62461   6.830   9.656   2.374
20740WAT     H162462   6.844   9.557   2.385
20740WAT     H262463   6.748   9.671   2.319
20741WAT      O62464   8.850   5.977   6.588
20741WAT     H162465   8.883   5.883   6.590
20741WAT     H262466   8.865   6.020   6.677
20742WAT      O62467   4.036   6.013   1.506
20742WAT     H162468   4.093   5.941   1.467
20742WAT     H262469   4.005   6.074   1.433
20743WAT      O62470   8.680   5.485   7.813
20743WAT     H162471   8.616   5.447   7.881
20743WAT     H262472   8.686   5.424   7.735
20744WAT      O62473   8.627   2.496   5.599
20744WAT     H162474   8.675   2.548   5.670
20744WAT     H262475   8.529   2.494   5.621
20745WAT      O62476   4.791   2.769   0.438
20745WAT     H162477   4.872   2.724   0.403
20745WAT     H262478   4.796   2.867   0.418
20746WAT      O62479   3.031   1.741   0.015
20746WAT     H162480   2.980   1.721   0.099
20746WAT     H262481   3.102   1.810   0.035
20747WAT      O62482   0.784   1.564   2.264
20747WAT     H162483   0.867   1.537   2.216
20747WAT     H262484   0.707   1.562   2.201
20748WAT      O62485   2.903   9.318   2.465
20748WAT     H162486   2.937   9.312   2.371
20748WAT     H262487   2.882   9.413   2.487
20749WAT      O62488   0.313   4.440   3.985
20749WAT     H162489   0.215   4.419   3.979
20749WAT     H262490   0.331   4.489   4.070
20750WAT      O62491   3.225   6.917   5.169
20750WAT     H162492   3.154   6.922   5.099
20750WAT     H262493   3.291   6.845   5.145
20751WAT      O62494   6.398   2.056   7.617
20751WAT     H162495   6.470   1.989   7.632
20751WAT     H262496   6.345   2.030   7.536
20752WAT      O62497   6.125   0.821   0.579
20752WAT     H162498   6.105   0.916   0.554
20752WAT     H262499   6.069   0.794   0.657
20753WAT      O62500   4.359   9.661   7.369
20753WAT     H162501   4.275   9.657   7.424
20753WAT     H262502   4.438   9.663   7.429
20754WAT      O62503   6.139   4.525   5.949
20754WAT     H162504   6.130   4.427   5.961
20754WAT     H262505   6.053   4.570   5.973
20755WAT      O62506   7.801   7.932   3.637
20755WAT     H162507   7.800   7.934   3.537
20755WAT     H262508   7.834   7.844   3.668
20756WAT      O62509   5.772   1.766   0.862
20756WAT     H162510   5.801   1.813   0.778
20756WAT     H262511   5.742   1.673   0.840
20757WAT      O62512   5.132   0.984   4.581
20757WAT     H162513   5.197   1.023   4.646
20757WAT     H262514   5.042   1.027   4.593
20758WAT      O62515   7.694   0.223   4.346
20758WAT     H162516   7.670   0.146   4.405
20758WAT     H262517   7.778   0.266   4.378
20759WAT      O62518   0.537   4.122   9.415
20759WAT     H162519   0.498   4.090   9.328
20759WAT     H262520   0.617   4.179   9.396
20760WAT      O62521   5.184   7.769   8.025
20760WAT     H162522   5.253   7.709   8.063
20760WAT     H262523   5.134   7.721   7.953
20761WAT      O62524   7.022   4.294   1.167
20761WAT     H162525   6.966   4.290   1.085
20761WAT     H262526   7.118   4.304   1.142
20762WAT      O62527   5.552   5.304   2.465
20762WAT     H162528   5.557   5.266   2.557
20762WAT     H262529   5.577   5.234   2.398
20763WAT      O62530   7.669   1.553   3.081
20763WAT     H162531   7.623   1.641   3.086
20763WAT     H262532   7.662   1.507   3.170
20764WAT      O62533   0.179   1.258   3.004
20764WAT     H162534   0.105   1.299   2.951
20764WAT     H262535   0.146   1.237   3.096
20765WAT      O62536   4.652   1.745   9.408
20765WAT     H162537   4.689   1.661   9.446
20765WAT     H262538   4.556   1.755   9.437
20766WAT      O62539   6.820   5.869   2.763
20766WAT     H162540   6.740   5.917   2.727
20766WAT     H262541   6.879   5.933   2.812
20767WAT      O62542   7.222   2.455   0.447
20767WAT     H162543   7.203   2.513   0.526
20767WAT     H262544   7.143   2.396   0.429
20768WAT      O62545   7.066   6.167   0.351
20768WAT     H162546   6.993   6.108   0.316
20768WAT     H262547   7.078   6.246   0.291
20769WAT      O62548   5.709   6.698   8.365
20769WAT     H162549   5.724   6.761   8.288
20769WAT     H262550   5.658   6.744   8.437
20770WAT      O62551   0.877   7.242   1.776
20770WAT     H162552   0.947   7.227   1.847
20770WAT     H262553   0.875   7.338   1.750
20771WAT      O62554   0.460   0.558   4.945
20771WAT     H162555   0.513   0.474   4.937
20771WAT     H262556   0.492   0.610   5.024
20772WAT      O62557   6.576   6.526   3.199
20772WAT     H162558   6.655   6.485   3.244
20772WAT     H262559   6.578   6.625   3.212
20773WAT      O62560   9.434   1.414   2.252
20773WAT     H162561   9.370   1.404   2.176
20773WAT     H262562   9.389   1.388   2.338
20774WAT      O62563   9.541   1.689   2.530
20774WAT     H162564   9.476   1.700   2.455
20774WAT     H262565   9.610   1.760   2.525
20775WAT      O62566   5.251   9.584   2.172
20775WAT     H162567   5.335   9.532   2.155
20775WAT     H262568   5.225   9.574   2.268
20776WAT      O62569   6.926   4.014   0.377
20776WAT     H162570   6.850   4.004   0.441
20776WAT     H262571   6.896   3.989   0.285
20777WAT      O62572   6.120   1.166   8.361
20777WAT     H162573   6.023   1.156   8.341
20777WAT     H262574   6.156   1.079   8.396
20778WAT      O62575   2.123   6.165   4.363
20778WAT     H162576   2.207   6.184   4.413
20778WAT     H262577   2.077   6.251   4.341
20779WAT      O62578   6.875   1.824   9.848
20779WAT     H162579   6.821   1.783   9.774
20779WAT     H262580   6.972   1.820   9.824
20780WAT      O62581   6.863   6.553   6.605
20780WAT     H162582   6.771   6.542   6.567
20780WAT     H262583   6.895   6.465   6.640
20781WAT      O62584   7.855   3.675   6.029
20781WAT     H162585   7.849   3.579   6.057
20781WAT     H262586   7.813   3.686   5.939
20782WAT      O62587   2.578   3.020   4.216
20782WAT     H162588   2.495   3.006   4.269
20782WAT     H262589   2.586   3.116   4.191
20783WAT      O62590   1.739   7.334   2.192
20783WAT     H162591   1.818   7.390   2.220
20783WAT     H262592   1.668   7.393   2.156
20784WAT      O62593   5.860   3.657   0.307
20784WAT     H162594   5.895   3.642   0.214
20784WAT     H262595   5.909   3.734   0.349
20785WAT      O62596   2.606   4.653   4.398
20785WAT     H162597   2.530   4.599   4.363
20785WAT     H262598   2.576   4.705   4.478
20786WAT      O62599   4.959   6.838   2.198
20786WAT     H162600   4.981   6.806   2.106
20786WAT     H262601   5.033   6.812   2.260
20787WAT      O62602   7.093   0.994   4.369
20787WAT     H162603   7.131   0.965   4.457
20787WAT     H262604   7.097   1.094   4.363
20788WAT      O62605   9.169   6.720   4.152
20788WAT     H162606   9.255   6.770   4.140
20788WAT     H262607   9.186   6.621   4.144
20789WAT      O62608   2.031   0.164   1.317
20789WAT     H162609   2.038   0.197   1.223
20789WAT     H262610   2.080   0.077   1.327
20790WAT      O62611   5.889   7.166   7.776
20790WAT     H162612   5.942   7.083   7.788
20790WAT     H262613   5.916   7.212   7.692
20791WAT      O62614   7.692   5.864   0.457
20791WAT     H162615   7.727   5.953   0.428
20791WAT     H262616   7.597   5.874   0.486
20792WAT      O62617   3.919   2.830   0.244
20792WAT     H162618   3.845   2.894   0.264
20792WAT     H262619   3.993   2.843   0.310
20793WAT      O62620   4.281   4.549   0.779
20793WAT     H162621   4.334   4.515   0.857
20793WAT     H262622   4.320   4.635   0.746
20794WAT      O62623   1.647   6.570   4.589
20794WAT     H162624   1.614   6.545   4.498
20794WAT     H262625   1.599   6.515   4.658
20795WAT      O62626   3.423   3.287   4.187
20795WAT     H162627   3.457   3.306   4.094
20795WAT     H262628   3.488   3.325   4.254
20796WAT      O62629   1.470   9.627   0.313
20796WAT     H162630   1.483   9.687   0.392
20796WAT     H262631   1.522   9.662   0.235
20797WAT      O62632   0.415   6.952   0.254
20797WAT     H162633   0.398   6.888   0.329
20797WAT     H262634   0.513   6.970   0.247
20798WAT      O62635   6.026   0.792   5.532
20798WAT     H162636   5.978   0.707   5.557
20798WAT     H262637   5.999   0.864   5.596
20799WAT      O62638   6.145   2.460   0.490
20799WAT     H162639   6.126   2.558   0.484
20799WAT     H262640   6.107   2.414   0.409
20800WAT      O62641   7.235   7.781   6.597
20800WAT     H162642   7.135   7.772   6.601
20800WAT     H262643   7.270   7.793   6.690
20801WAT      O62644   6.861   1.801   3.205
20801WAT     H162645   6.789   1.809   3.274
20801WAT     H262646   6.950   1.818   3.246
20802WAT      O62647   3.518   3.450   2.347
20802WAT     H162648   3.595   3.401   2.307
20802WAT     H262649   3.516   3.433   2.446
20803WAT      O62650   0.814   5.211   3.692
20803WAT     H162651   0.876   5.216   3.614
20803WAT     H262652   0.867   5.212   3.777
20804WAT      O62653   7.837   5.170   5.677
20804WAT     H162654   7.928   5.207   5.695
20804WAT     H262655   7.772   5.204   5.746
20805WAT      O62656   4.677   9.622   5.440
20805WAT     H162657   4.611   9.548   5.455
20805WAT     H262658   4.726   9.640   5.525
20806WAT      O62659   1.942   9.789   5.300
20806WAT     H162660   1.846   9.770   5.320
20806WAT     H262661   1.978   9.719   5.238
20807WAT      O62662   5.976   2.644   2.793
20807WAT     H162663   6.019   2.734   2.784
20807WAT     H262664   5.934   2.636   2.883
20808WAT      O62665   5.882   1.312   2.386
20808WAT     H162666   5.906   1.262   2.469
20808WAT     H262667   5.799   1.273   2.346
20809WAT      O62668   5.529   5.814   4.146
20809WAT     H162669   5.599   5.825   4.076
20809WAT     H262670   5.549   5.874   4.223
20810WAT      O62671   1.914   1.197   9.564
20810WAT     H162672   1.822   1.162   9.580
20810WAT     H262673   1.972   1.174   9.641
20811WAT      O62674   7.484   2.384   6.812
20811WAT     H162675   7.556   2.450   6.793
20811WAT     H262676   7.512   2.324   6.887
20812WAT      O62677   7.474   4.593   2.616
20812WAT     H162678   7.499   4.689   2.602
20812WAT     H262679   7.406   4.586   2.689
20813WAT      O62680   4.196   4.507   4.919
20813WAT     H162681   4.289   4.481   4.945
20813WAT     H262682   4.176   4.470   4.828
20814WAT      O62683   0.891   1.480   7.045
20814WAT     H162684   0.836   1.562   7.028
20814WAT     H262685   0.973   1.482   6.987
20815WAT      O62686   8.201   0.581   4.692
20815WAT     H162687   8.123   0.523   4.715
20815WAT     H262688   8.198   0.604   4.595
20816WAT      O62689   2.053   3.071   7.866
20816WAT     H162690   2.022   3.045   7.957
20816WAT     H262691   2.118   3.003   7.831
20817WAT      O62692   0.181   3.205   4.583
20817WAT     H162693   0.124   3.209   4.665
20817WAT     H262694   0.135   3.250   4.507
20818WAT      O62695   3.256   3.675   8.496
20818WAT     H162696   3.328   3.614   8.529
20818WAT     H262697   3.254   3.757   8.553
20819WAT      O62698   5.727   5.442   1.398
20819WAT     H162699   5.687   5.365   1.447
20819WAT     H262700   5.657   5.512   1.383
20820WAT      O62701   9.771   3.510   2.265
20820WAT     H162702   9.774   3.491   2.363
20820WAT     H262703   9.678   3.494   2.231
20821WAT      O62704   4.252   5.565   6.935
20821WAT     H162705   4.180   5.613   6.985
20821WAT     H262706   4.218   5.476   6.904
20822WAT      O62707   0.260   5.305   2.509
20822WAT     H162708   0.273   5.319   2.411
20822WAT     H262709   0.192   5.370   2.543
20823WAT      O62710   7.475   5.144   2.697
20823WAT     H162711   7.409   5.204   2.742
20823WAT     H262712   7.482   5.167   2.601
20824WAT      O62713   0.331   2.190   0.678
20824WAT     H162714   0.313   2.109   0.621
20824WAT     H262715   0.333   2.271   0.620
20825WAT      O62716   0.606   8.707   5.767
20825WAT     H162717   0.643   8.673   5.853
20825WAT     H262718   0.671   8.691   5.693
20826WAT      O62719   9.439   4.023   8.488
20826WAT     H162720   9.535   4.008   8.467
20826WAT     H262721   9.398   4.081   8.418
20827WAT      O62722   2.627   1.223   9.726
20827WAT     H162723   2.539   1.265   9.747
20827WAT     H262724   2.700   1.279   9.764
20828WAT      O62725   1.696   4.202   5.507
20828WAT     H162726   1.687   4.183   5.605
20828WAT     H262727   1.609   4.186   5.461
20829WAT      O62728   3.752   3.351   5.445
20829WAT     H162729   3.766   3.332   5.542
20829WAT     H262730   3.839   3.380   5.404
20830WAT      O62731   6.453   1.658   7.466
20830WAT     H162732   6.368   1.614   7.492
20830WAT     H262733   6.435   1.753   7.440
20831WAT      O62734   1.176   6.032   4.731
20831WAT     H162735   1.201   6.013   4.826
20831WAT     H262736   1.090   5.986   4.709
20832WAT      O62737   0.384   6.933   2.450
20832WAT     H162738   0.290   6.909   2.471
20832WAT     H262739   0.440   6.926   2.533
20833WAT      O62740   4.119   9.283   8.761
20833WAT     H162741   4.076   9.235   8.684
20833WAT     H262742   4.173   9.360   8.727
20834WAT      O62743   8.103   3.782   7.193
20834WAT     H162744   8.010   3.793   7.226
20834WAT     H262745   8.136   3.868   7.154
20835WAT      O62746   0.531   9.807   0.184
20835WAT     H162747   0.531   9.721   0.235
20835WAT     H262748   0.623   9.846   0.184
20836WAT      O62749   2.448   8.541   8.339
20836WAT     H162750   2.412   8.543   8.433
20836WAT     H262751   2.524   8.476   8.334
20837WAT      O62752   0.334   3.519   8.473
20837WAT     H162753   0.365   3.470   8.391
20837WAT     H262754   0.253   3.473   8.510
20838WAT      O62755   7.402   6.805   6.075
20838WAT     H162756   7.407   6.764   6.166
20838WAT     H262757   7.306   6.819   6.050
20839WAT      O62758   0.846   3.469   4.064
20839WAT     H162759   0.886   3.523   4.138
20839WAT     H262760   0.747   3.487   4.060
20840WAT      O62761   8.689   1.038   1.096
20840WAT     H162762   8.705   1.094   1.177
20840WAT     H262763   8.591   1.032   1.079
20841WAT      O62764   7.218   3.816   5.265
20841WAT     H162765   7.167   3.792   5.183
20841WAT     H262766   7.313   3.785   5.256
20842WAT      O62767   5.754   8.412   2.630
20842WAT     H162768   5.690   8.336   2.624
20842WAT     H262769   5.764   8.455   2.540
20843WAT      O62770   0.001   0.303   0.263
20843WAT     H162771   0.095   0.329   0.280
20843WAT     H262772  -0.059   0.383   0.272
20844WAT      O62773   8.738   3.367   9.783
20844WAT     H162774   8.787   3.453   9.792
20844WAT     H262775   8.679   3.353   9.863
20845WAT      O62776   1.529   1.157   0.093
20845WAT     H162777   1.458   1.228   0.089
20845WAT     H262778   1.505   1.091   0.165
20846WAT      O62779   6.212   4.199   5.747
20846WAT     H162780   6.230   4.125   5.682
20846WAT     H262781   6.129   4.247   5.720
20847WAT      O62782   5.381   6.296   0.109
20847WAT     H162783   5.351   6.383   0.147
20847WAT     H262784   5.364   6.223   0.175
20848WAT      O62785   0.859   3.135   9.843
20848WAT     H162786   0.954   3.164   9.858
20848WAT     H262787   0.827   3.172   9.756
20849WAT      O62788   2.311   6.693   8.924
20849WAT     H162789   2.248   6.761   8.888
20849WAT     H262790   2.347   6.723   9.012
20850WAT      O62791   1.778   3.418   1.795
20850WAT     H162792   1.769   3.320   1.777
20850WAT     H262793   1.831   3.461   1.721
20851WAT      O62794   9.826   3.556   4.228
20851WAT     H162795   9.918   3.592   4.210
20851WAT     H262796   9.758   3.620   4.192
20852WAT      O62797   8.341   6.607   0.916
20852WAT     H162798   8.408   6.557   0.862
20852WAT     H262799   8.361   6.595   1.013
20853WAT      O62800   8.686   4.359   4.497
20853WAT     H162801   8.587   4.371   4.491
20853WAT     H262802   8.712   4.340   4.592
20854WAT      O62803   5.571   7.146   0.923
20854WAT     H162804   5.564   7.047   0.915
20854WAT     H262805   5.483   7.184   0.953
20855WAT      O62806   3.190   3.238   8.722
20855WAT     H162807   3.245   3.195   8.793
20855WAT     H262808   3.227   3.214   8.632
20856WAT      O62809   3.392   6.809   7.209
20856WAT     H162810   3.478   6.829   7.163
20856WAT     H262811   3.407   6.741   7.280
20857WAT      O62812   5.840   7.304   5.476
20857WAT     H162813   5.765   7.238   5.470
20857WAT     H262814   5.806   7.392   5.509
20858WAT      O62815   9.534   0.376   2.823
20858WAT     H162816   9.518   0.437   2.744
20858WAT     H262817   9.482   0.410   2.901
20859WAT      O62818   5.316   7.722   9.259
20859WAT     H162819   5.228   7.678   9.275
20859WAT     H262820   5.304   7.803   9.202
20860WAT      O62821   2.354   9.394   7.822
20860WAT     H162822   2.316   9.342   7.899
20860WAT     H262823   2.367   9.489   7.850
20861WAT      O62824   3.232   2.914   2.470
20861WAT     H162825   3.157   2.945   2.412
20861WAT     H262826   3.203   2.916   2.566
20862WAT      O62827   0.314   9.436   2.458
20862WAT     H162828   0.266   9.518   2.489
20862WAT     H262829   0.402   9.462   2.418
20863WAT      O62830   5.530   8.361   4.399
20863WAT     H162831   5.512   8.280   4.454
20863WAT     H262832   5.629   8.379   4.398
20864WAT      O62833   8.728   8.180   7.890
20864WAT     H162834   8.634   8.202   7.918
20864WAT     H262835   8.757   8.095   7.935
20865WAT      O62836   7.052   8.483   3.915
20865WAT     H162837   7.055   8.384   3.905
20865WAT     H262838   7.047   8.507   4.012
20866WAT      O62839   1.165   1.538   8.631
20866WAT     H162840   1.249   1.529   8.684
20866WAT     H262841   1.093   1.577   8.689
20867WAT      O62842   4.732   1.723   9.839
20867WAT     H162843   4.760   1.665   9.915
20867WAT     H262844   4.632   1.723   9.831
20868WAT      O62845   8.530   7.835   9.064
20868WAT     H162846   8.434   7.841   9.090
20868WAT     H262847   8.539   7.845   8.965
20869WAT      O62848   9.844   5.344   7.916
20869WAT     H162849   9.791   5.293   7.847
20869WAT     H262850   9.785   5.363   7.995
20870WAT      O62851   9.450   9.134   1.589
20870WAT     H162852   9.482   9.210   1.534
20870WAT     H262853   9.499   9.132   1.676
20871WAT      O62854   4.276   7.475   4.164
20871WAT     H162855   4.274   7.387   4.210
20871WAT     H262856   4.369   7.495   4.134
20872WAT      O62857   6.477   1.808   1.654
20872WAT     H162858   6.508   1.804   1.749
20872WAT     H262859   6.484   1.716   1.613
20873WAT      O62860   2.468   6.573   3.478
20873WAT     H162861   2.553   6.606   3.519
20873WAT     H262862   2.477   6.476   3.456
20874WAT      O62863   2.950   0.331   1.394
20874WAT     H162864   3.007   0.404   1.356
20874WAT     H262865   2.991   0.242   1.372
20875WAT      O62866   0.419   7.876   1.253
20875WAT     H162867   0.343   7.918   1.303
20875WAT     H262868   0.483   7.835   1.319
20876WAT      O62869   9.237   1.562   9.184
20876WAT     H162870   9.153   1.609   9.213
20876WAT     H262871   9.299   1.553   9.262
20877WAT      O62872   0.698   2.517   5.465
20877WAT     H162873   0.681   2.614   5.483
20877WAT     H262874   0.789   2.507   5.424
20878WAT      O62875   7.934   4.555   6.565
20878WAT     H162876   7.941   4.604   6.478
20878WAT     H262877   7.867   4.481   6.556
20879WAT      O62878   0.302   6.094   0.250
20879WAT     H162879   0.395   6.085   0.285
20879WAT     H262880   0.237   6.058   0.317
20880WAT      O62881   1.312   3.130   7.860
20880WAT     H162882   1.397   3.115   7.810
20880WAT     H262883   1.261   3.204   7.818
20881WAT      O62884   7.819   9.048   8.514
20881WAT     H162885   7.873   9.019   8.435
20881WAT     H262886   7.845   8.994   8.594
20882WAT      O62887   6.811   2.350   7.531
20882WAT     H162888   6.724   2.336   7.578
20882WAT     H262889   6.820   2.446   7.505
20883WAT      O62890   0.784   1.249   1.375
20883WAT     H162891   0.765   1.248   1.474
20883WAT     H262892   0.700   1.225   1.326
20884WAT      O62893   3.606   5.609   2.786
20884WAT     H162894   3.694   5.609   2.834
20884WAT     H262895   3.553   5.529   2.813
20885WAT      O62896   1.822   1.606   7.027
20885WAT     H162897   1.821   1.516   6.984
20885WAT     H262898   1.904   1.655   7.000
20886WAT      O62899   2.879   9.668   1.412
20886WAT     H162900   2.916   9.670   1.320
20886WAT     H262901   2.879   9.574   1.446
20887WAT      O62902   3.713   4.280   0.320
20887WAT     H162903   3.633   4.339   0.328
20887WAT     H262904   3.775   4.317   0.250
20888WAT      O62905   4.542   6.666   0.161
20888WAT     H162906   4.539   6.578   0.209
20888WAT     H262907   4.637   6.687   0.137
20889WAT      O62908   1.770   2.534   3.619
20889WAT     H162909   1.760   2.516   3.717
20889WAT     H262910   1.813   2.623   3.605
20890WAT      O62911   3.198   3.571   3.757
20890WAT     H162912   3.160   3.481   3.735
20890WAT     H262913   3.222   3.575   3.854
20891WAT      O62914   1.719   3.030   7.104
20891WAT     H162915   1.764   3.116   7.083
20891WAT     H262916   1.783   2.968   7.148
20892WAT      O62917   9.640   8.266   0.353
20892WAT     H162918   9.582   8.337   0.393
20892WAT     H262919   9.583   8.189   0.323
20893WAT      O62920   5.929   7.253   1.903
20893WAT     H162921   6.022   7.290   1.901
20893WAT     H262922   5.879   7.285   1.823
20894WAT      O62923   0.292   2.017   8.227
20894WAT     H162924   0.307   2.024   8.129
20894WAT     H262925   0.342   2.090   8.274
20895WAT      O62926   7.910   5.028   7.567
20895WAT     H162927   7.966   5.109   7.587
20895WAT     H262928   7.917   4.963   7.643
20896WAT      O62929   0.625   5.709   8.561
20896WAT     H162930   0.659   5.802   8.548
20896WAT     H262931   0.538   5.698   8.512
20897WAT      O62932   7.639   5.708   5.529
20897WAT     H162933   7.670   5.801   5.509
20897WAT     H262934   7.595   5.670   5.448
20898WAT      O62935   4.534   3.780   4.050
20898WAT     H162936   4.445   3.820   4.073
20898WAT     H262937   4.600   3.853   4.036
20899WAT      O62938   0.640   7.308   4.535
20899WAT     H162939   0.698   7.268   4.464
20899WAT     H262940   0.548   7.269   4.529
20900WAT      O62941   3.549   3.560   5.539
20900WAT     H162942   3.598   3.644   5.561
20900WAT     H262943   3.612   3.495   5.496
20901WAT      O62944   1.300   7.112   5.535
20901WAT     H162945   1.355   7.036   5.570
20901WAT     H262946   1.261   7.088   5.446
20902WAT      O62947   6.663   9.489   1.652
20902WAT     H162948   6.709   9.452   1.571
20902WAT     H262949   6.696   9.581   1.670
20903WAT      O62950   0.827   9.640   8.485
20903WAT     H162951   0.787   9.614   8.397
20903WAT     H262952   0.872   9.729   8.476
20904WAT      O62953   7.341   9.528   6.937
20904WAT     H162954   7.308   9.451   6.882
20904WAT     H262955   7.264   9.577   6.976
20905WAT      O62956   9.149   5.807   8.725
20905WAT     H162957   9.124   5.879   8.790
20905WAT     H262958   9.202   5.736   8.772
20906WAT      O62959   5.844   0.205   4.956
20906WAT     H162960   5.842   0.185   5.054
20906WAT     H262961   5.925   0.260   4.934
20907WAT      O62962   8.390   7.134   4.733
20907WAT     H162963   8.485   7.159   4.715
20907WAT     H262964   8.353   7.086   4.654
20908WAT      O62965   8.180   9.581   2.461
20908WAT     H162966   8.150   9.487   2.476
20908WAT     H262967   8.279   9.583   2.447
20909WAT      O62968   0.258   6.817   2.762
20909WAT     H162969   0.229   6.892   2.822
20909WAT     H262970   0.203   6.818   2.679
20910WAT      O62971   9.573   1.546   9.685
20910WAT     H162972   9.644   1.563   9.617
20910WAT     H262973   9.488   1.589   9.656
20911WAT      O62974   8.935   4.886   1.864
20911WAT     H162975   9.000   4.839   1.804
20911WAT     H262976   8.883   4.952   1.812
20912WAT      O62977   6.624   2.885   1.563
20912WAT     H162978   6.589   2.900   1.470
20912WAT     H262979   6.636   2.974   1.608
20913WAT      O62980   7.704   5.410   1.027
20913WAT     H162981   7.673   5.383   1.118
20913WAT     H262982   7.725   5.328   0.973
20914WAT      O62983   7.067   0.862   3.917
20914WAT     H162984   7.128   0.806   3.974
20914WAT     H262985   7.071   0.829   3.822
20915WAT      O62986   4.429   6.379   4.111
20915WAT     H162987   4.441   6.472   4.146
20915WAT     H262988   4.365   6.330   4.170
20916WAT      O62989   5.147   3.209   4.664
20916WAT     H162990   5.103   3.296   4.644
20916WAT     H262991   5.077   3.138   4.675
20917WAT      O62992   7.839   4.378   4.116
20917WAT     H162993   7.814   4.473   4.097
20917WAT     H262994   7.758   4.320   4.105
20918WAT      O62995   6.387   9.438   2.596
20918WAT     H162996   6.430   9.439   2.686
20918WAT     H262997   6.340   9.351   2.582
20919WAT      O62998   2.118   6.030   5.405
20919WAT     H162999   2.158   5.996   5.490
20919WAT     H263000   2.140   6.127   5.394
20920WAT      O63001   9.677   4.722   5.030
20920WAT     H163002   9.633   4.751   5.115
20920WAT     H263003   9.701   4.626   5.037
20921WAT      O63004   2.045   0.533   2.306
20921WAT     H163005   1.987   0.560   2.382
20921WAT     H263006   2.136   0.573   2.317
20922WAT      O63007   3.772   8.056   6.316
20922WAT     H163008   3.848   8.080   6.256
20922WAT     H263009   3.807   8.021   6.402
20923WAT      O63010   1.318   5.992   4.504
20923WAT     H163011   1.277   6.002   4.594
20923WAT     H263012   1.406   5.945   4.513
20924WAT      O63013   2.210   6.513   3.300
20924WAT     H163014   2.287   6.551   3.250
20924WAT     H263015   2.243   6.464   3.380
20925WAT      O63016   6.424   0.852   2.601
20925WAT     H163017   6.377   0.766   2.583
20925WAT     H263018   6.517   0.834   2.630
20926WAT      O63019   5.418   1.281   6.305
20926WAT     H163020   5.388   1.307   6.397
20926WAT     H263021   5.353   1.317   6.238
20927WAT      O63022   7.839   5.849   2.945
20927WAT     H163023   7.749   5.874   2.908
20927WAT     H263024   7.866   5.916   3.014
20928WAT      O63025   0.229   8.814   9.812
20928WAT     H163026   0.212   8.833   9.908
20928WAT     H263027   0.156   8.853   9.756
20929WAT      O63028   9.443   6.529   3.504
20929WAT     H163029   9.439   6.462   3.577
20929WAT     H263030   9.364   6.519   3.444
20930WAT      O63031   0.537   2.071   3.481
20930WAT     H163032   0.548   2.108   3.573
20930WAT     H263033   0.604   2.112   3.419
20931WAT      O63034   4.266   0.557   4.137
20931WAT     H163035   4.178   0.593   4.104
20931WAT     H263036   4.335   0.569   4.066
20932WAT      O63037   6.421   5.065   0.984
20932WAT     H163038   6.491   5.043   0.915
20932WAT     H263039   6.378   4.981   1.016
20933WAT      O63040   3.815   7.822   0.105
20933WAT     H163041   3.896   7.842   0.050
20933WAT     H263042   3.834   7.746   0.166
20934WAT      O63043   3.517   0.713   1.654
20934WAT     H163044   3.436   0.749   1.701
20934WAT     H263045   3.572   0.789   1.620
20935WAT      O63046   5.732   7.508   3.883
20935WAT     H163047   5.637   7.537   3.876
20935WAT     H263048   5.745   7.422   3.832
20936WAT      O63049   9.757   2.355   8.250
20936WAT     H163050   9.736   2.447   8.282
20936WAT     H263051   9.676   2.297   8.256
20937WAT      O63052   8.351   0.959   3.907
20937WAT     H163053   8.400   1.034   3.863
20937WAT     H263054   8.284   0.921   3.843
20938WAT      O63055   2.536   5.867   6.198
20938WAT     H163056   2.486   5.910   6.123
20938WAT     H263057   2.500   5.902   6.285
20939WAT      O63058   7.655   3.768   0.993
20939WAT     H163059   7.628   3.864   0.983
20939WAT     H263060   7.573   3.711   0.999
20940WAT      O63061   6.548   7.722   0.147
20940WAT     H163062   6.633   7.772   0.142
20940WAT     H263063   6.567   7.623   0.149
20941WAT      O63064   9.599   9.590   8.655
20941WAT     H163065   9.654   9.653   8.601
20941WAT     H263066   9.612   9.609   8.752
20942WAT      O63067   9.022   1.102   1.928
20942WAT     H163068   9.044   1.141   2.017
20942WAT     H263069   9.096   1.041   1.899
20943WAT      O63070   6.581   8.438   7.565
20943WAT     H163071   6.550   8.357   7.516
20943WAT     H263072   6.530   8.518   7.533
20944WAT      O63073   5.646   9.015   2.803
20944WAT     H163074   5.716   8.998   2.872
20944WAT     H263075   5.585   8.937   2.797
20945WAT      O63076   4.633   3.401   9.576
20945WAT     H163077   4.645   3.484   9.521
20945WAT     H263078   4.641   3.423   9.673
20946WAT      O63079   4.400   6.942   4.539
20946WAT     H163080   4.381   7.034   4.572
20946WAT     H263081   4.445   6.947   4.450
20947WAT      O63082   6.953   9.530   8.086
20947WAT     H163083   7.020   9.569   8.024
20947WAT     H263084   6.867   9.580   8.077
20948WAT      O63085   9.009   6.369   8.242
20948WAT     H163086   8.978   6.325   8.326
20948WAT     H263087   8.955   6.335   8.165
20949WAT      O63088   6.378   1.968   0.320
20949WAT     H163089   6.408   1.959   0.225
20949WAT     H263090   6.279   1.982   0.322
20950WAT      O63091   7.611   9.017   6.662
20950WAT     H163092   7.559   9.087   6.614
20950WAT     H263093   7.681   8.980   6.601
20951WAT      O63094   1.010   8.435   5.791
20951WAT     H163095   1.108   8.434   5.812
20951WAT     H263096   0.978   8.530   5.783
20952WAT      O63097   9.634   7.893   8.723
20952WAT     H163098   9.626   7.838   8.640
20952WAT     H263099   9.625   7.990   8.700
20953WAT      O63100   8.934   0.433   2.448
20953WAT     H163101   8.883   0.408   2.365
20953WAT     H263102   9.026   0.395   2.443
20954WAT      O63103   3.320   1.792   6.291
20954WAT     H163104   3.386   1.822   6.223
20954WAT     H263105   3.364   1.784   6.380
20955WAT      O63106   1.900   9.109   2.241
20955WAT     H163107   1.897   9.081   2.145
20955WAT     H263108   1.883   9.030   2.300
20956WAT      O63109   5.178   1.346   6.139
20956WAT     H163110   5.151   1.404   6.061
20956WAT     H263111   5.126   1.261   6.137
20957WAT      O63112   5.723   5.525   8.723
20957WAT     H163113   5.789   5.450   8.726
20957WAT     H263114   5.760   5.604   8.771
20958WAT      O63115   8.826   3.554   0.915
20958WAT     H163116   8.746   3.611   0.896
20958WAT     H263117   8.825   3.474   0.855
20959WAT      O63118   8.012   8.747   3.125
20959WAT     H163119   7.947   8.808   3.079
20959WAT     H263120   7.966   8.662   3.149
20960WAT      O63121   1.834   2.626   5.490
20960WAT     H163122   1.930   2.605   5.506
20960WAT     H263123   1.809   2.602   5.396
20961WAT      O63124   7.397   2.821   8.274
20961WAT     H163125   7.323   2.768   8.231
20961WAT     H263126   7.485   2.779   8.252
20962WAT      O63127   5.004   2.394   3.399
20962WAT     H163128   5.044   2.433   3.482
20962WAT     H263129   5.074   2.343   3.348
20963WAT      O63130   7.542   7.044   9.660
20963WAT     H163131   7.472   6.973   9.665
20963WAT     H263132   7.545   7.081   9.567
20964WAT      O63133   6.881   5.711   7.103
20964WAT     H163134   6.848   5.794   7.058
20964WAT     H263135   6.826   5.632   7.073
20965WAT      O63136   4.392   4.994   5.036
20965WAT     H163137   4.463   4.925   5.020
20965WAT     H263138   4.431   5.085   5.025
20966WAT      O63139   1.286   0.623   6.774
20966WAT     H163140   1.301   0.698   6.838
20966WAT     H263141   1.354   0.628   6.700
20967WAT      O63142   7.182   8.915   6.618
20967WAT     H163143   7.263   8.882   6.667
20967WAT     H263144   7.206   8.934   6.523
20968WAT      O63145   0.260   2.453   4.627
20968WAT     H163146   0.179   2.497   4.665
20968WAT     H263147   0.253   2.354   4.640
20969WAT      O63148   5.742   8.091   6.845
20969WAT     H163149   5.770   8.126   6.756
20969WAT     H263150   5.822   8.069   6.900
20970WAT      O63151   4.414   6.704   8.904
20970WAT     H163152   4.467   6.780   8.866
20970WAT     H263153   4.475   6.627   8.922
20971WAT      O63154   9.306   8.885   5.105
20971WAT     H163155   9.222   8.839   5.074
20971WAT     H263156   9.288   8.983   5.116
20972WAT      O63157   6.422   9.455   4.853
20972WAT     H163158   6.452   9.384   4.790
20972WAT     H263159   6.466   9.542   4.830
20973WAT      O63160   2.078   9.670   9.685
20973WAT     H163161   2.011   9.679   9.759
20973WAT     H263162   2.087   9.574   9.659
20974WAT      O63163   4.053   2.676   7.318
20974WAT     H163164   4.020   2.684   7.412
20974WAT     H263165   3.975   2.674   7.255
20975WAT      O63166   7.586   3.492   1.153
20975WAT     H163167   7.517   3.514   1.083
20975WAT     H263168   7.558   3.532   1.241
20976WAT      O63169   5.839   8.814   9.082
20976WAT     H163170   5.905   8.739   9.082
20976WAT     H263171   5.883   8.897   9.047
20977WAT      O63172   0.837   4.847   2.320
20977WAT     H163173   0.740   4.842   2.300
20977WAT     H263174   0.858   4.790   2.399
20978WAT      O63175   5.243   8.167   0.950
20978WAT     H163176   5.339   8.139   0.953
20978WAT     H263177   5.196   8.133   1.032
20979WAT      O63178   2.865   0.962   9.146
20979WAT     H163179   2.907   0.881   9.188
20979WAT     H263180   2.871   0.955   9.047
20980WAT      O63181   2.791   5.420   1.061
20980WAT     H163182   2.717   5.413   1.128
20980WAT     H263183   2.755   5.455   0.975
20981WAT      O63184   0.415   5.978   4.858
20981WAT     H163185   0.478   5.903   4.838
20981WAT     H263186   0.372   6.009   4.773
20982WAT      O63187   5.837   9.335   5.376
20982WAT     H163188   5.851   9.409   5.311
20982WAT     H263189   5.748   9.291   5.358
20983WAT      O63190   8.928   4.482   4.118
20983WAT     H163191   8.883   4.506   4.032
20983WAT     H263192   8.880   4.405   4.160
20984WAT      O63193   9.447   5.456   0.832
20984WAT     H163194   9.403   5.464   0.922
20984WAT     H263195   9.391   5.504   0.764
20985WAT      O63196   3.391   8.798   5.220
20985WAT     H163197   3.439   8.880   5.251
20985WAT     H263198   3.345   8.818   5.133
20986WAT      O63199   3.823   2.011   6.618
20986WAT     H163200   3.792   2.066   6.540
20986WAT     H263201   3.914   2.043   6.647
20987WAT      O63202   5.235   2.292   1.795
20987WAT     H163203   5.334   2.285   1.785
20987WAT     H263204   5.211   2.387   1.818
20988WAT      O63205   4.232   5.706   0.227
20988WAT     H163206   4.257   5.622   0.275
20988WAT     H263207   4.179   5.684   0.146
20989WAT      O63208   5.888   2.783   8.357
20989WAT     H163209   5.828   2.788   8.437
20989WAT     H263210   5.947   2.863   8.354
20990WAT      O63211   5.738   2.046   0.948
20990WAT     H163212   5.751   1.947   0.936
20990WAT     H263213   5.782   2.094   0.873
20991WAT      O63214   7.635   6.662   8.052
20991WAT     H163215   7.572   6.700   8.119
20991WAT     H263216   7.591   6.661   7.962
20992WAT      O63217   8.047   3.222   9.239
20992WAT     H163218   8.024   3.312   9.203
20992WAT     H263219   8.144   3.202   9.221
20993WAT      O63220   6.713   4.354   1.793
20993WAT     H163221   6.776   4.317   1.860
20993WAT     H263222   6.728   4.309   1.705
20994WAT      O63223   7.539   6.521   6.304
20994WAT     H163224   7.446   6.550   6.329
20994WAT     H263225   7.598   6.601   6.294
20995WAT      O63226   1.133   2.775   5.453
20995WAT     H163227   1.204   2.833   5.494
20995WAT     H263228   1.158   2.679   5.463
20996WAT      O63229   1.139   3.494   5.346
20996WAT     H163230   1.092   3.406   5.357
20996WAT     H263231   1.225   3.492   5.397
20997WAT      O63232   6.158   8.034   7.325
20997WAT     H163233   6.237   7.980   7.294
20997WAT     H263234   6.095   8.048   7.248
20998WAT      O63235   0.036   3.712   3.454
20998WAT     H163236   0.076   3.623   3.475
20998WAT     H263237   0.103   3.784   3.469
20999WAT      O63238   3.772   6.553   0.110
20999WAT     H163239   3.730   6.467   0.080
20999WAT     H263240   3.725   6.630   0.066
21000WAT      O63241   9.232   1.538   7.475
21000WAT     H163242   9.331   1.550   7.465
21000WAT     H263243   9.202   1.581   7.560
21001WAT      O63244   0.810   9.071   6.609
21001WAT     H163245   0.728   9.021   6.583
21001WAT     H263246   0.784   9.160   6.647
21002WAT      O63247   6.821   5.331   0.103
21002WAT     H163248   6.860   5.420   0.128
21002WAT     H263249   6.821   5.322   0.003
21003WAT      O63250   2.916   6.541   7.477
21003WAT     H163251   2.897   6.601   7.555
21003WAT     H263252   2.980   6.469   7.505
21004WAT      O63253   0.357   5.198   1.277
21004WAT     H163254   0.447   5.229   1.245
21004WAT     H263255   0.369   5.123   1.342
21005WAT      O63256   0.748   9.364   6.411
21005WAT     H163257   0.717   9.456   6.386
21005WAT     H263258   0.668   9.308   6.435
21006WAT      O63259   9.164   8.140   0.679
21006WAT     H163260   9.164   8.229   0.726
21006WAT     H263261   9.256   8.117   0.650
21007WAT      O63262   9.881   0.571   2.146
21007WAT     H163263   9.932   0.628   2.211
21007WAT     H263264   9.792   0.546   2.186
21008WAT      O63265   9.368   1.905   5.016
21008WAT     H163266   9.315   1.933   5.096
21008WAT     H263267   9.342   1.961   4.937
21009WAT      O63268   9.324   4.962   7.323
21009WAT     H163269   9.231   4.930   7.342
21009WAT     H263270   9.335   5.055   7.358
21010WAT      O63271   8.109   5.322   5.462
21010WAT     H163272   8.077   5.228   5.471
21010WAT     H263273   8.075   5.376   5.539
21011WAT      O63274   0.506   4.333   6.367
21011WAT     H163275   0.434   4.309   6.302
21011WAT     H263276   0.464   4.368   6.451
21012WAT      O63277   4.469   2.576   6.916
21012WAT     H163278   4.562   2.540   6.908
21012WAT     H263279   4.403   2.502   6.899
21013WAT      O63280   4.253   1.009   5.705
21013WAT     H163281   4.252   1.107   5.686
21013WAT     H263282   4.177   0.985   5.766
21014WAT      O63283   7.926   8.812   4.133
21014WAT     H163284   7.912   8.790   4.229
21014WAT     H263285   7.978   8.897   4.125
21015WAT      O63286   6.880   0.429   5.859
21015WAT     H163287   6.790   0.468   5.838
21015WAT     H263288   6.895   0.432   5.958
21016WAT      O63289   7.232   8.249   5.420
21016WAT     H163290   7.155   8.245   5.484
21016WAT     H263291   7.206   8.301   5.339
21017WAT      O63292   1.997   6.067   3.945
21017WAT     H163293   1.944   6.031   4.022
21017WAT     H263294   2.080   6.111   3.979
21018WAT      O63295   0.134   7.517   2.905
21018WAT     H163296   0.176   7.489   2.992
21018WAT     H263297   0.185   7.477   2.829
21019WAT      O63298   8.289   1.298   1.828
21019WAT     H163299   8.366   1.313   1.891
21019WAT     H263300   8.288   1.202   1.801
21020WAT      O63301   7.722   0.153   1.432
21020WAT     H163302   7.634   0.155   1.384
21020WAT     H263303   7.787   0.212   1.385
21021WAT      O63304   6.567   6.541   8.271
21021WAT     H163305   6.569   6.637   8.243
21021WAT     H263306   6.503   6.529   8.346
21022WAT      O63307   6.465   8.342   1.101
21022WAT     H163308   6.509   8.282   1.034
21022WAT     H263309   6.386   8.295   1.140
21023WAT      O63310   6.783   1.461   5.251
21023WAT     H163311   6.834   1.378   5.231
21023WAT     H263312   6.846   1.532   5.282
21024WAT      O63313   6.848   2.944   3.205
21024WAT     H163314   6.821   2.893   3.123
21024WAT     H263315   6.894   3.029   3.178
21025WAT      O63316   9.144   6.522   6.457
21025WAT     H163317   9.195   6.462   6.396
21025WAT     H263318   9.120   6.473   6.541
21026WAT      O63319   2.353   0.933   1.341
21026WAT     H163320   2.338   0.844   1.385
21026WAT     H263321   2.361   0.920   1.242
21027WAT      O63322   0.563   0.304   6.107
21027WAT     H163323   0.571   0.401   6.084
21027WAT     H263324   0.624   0.283   6.183
21028WAT      O63325   7.068   2.819   0.708
21028WAT     H163326   7.045   2.836   0.613
21028WAT     H263327   6.984   2.810   0.762
21029WAT      O63328   0.313   4.478   0.298
21029WAT     H163329   0.343   4.573   0.286
21029WAT     H263330   0.258   4.471   0.381
21030WAT      O63331   0.068   9.604   5.206
21030WAT     H163332   0.015   9.634   5.285
21030WAT     H263333   0.073   9.504   5.205
21031WAT      O63334   7.704   6.919   2.197
21031WAT     H163335   7.695   6.919   2.098
21031WAT     H263336   7.716   7.013   2.229
21032WAT      O63337   3.595   5.520   1.576
21032WAT     H163338   3.582   5.465   1.658
21032WAT     H263339   3.548   5.608   1.586
21033WAT      O63340   8.702   0.332   6.106
21033WAT     H163341   8.716   0.348   6.204
21033WAT     H263342   8.662   0.241   6.093
21034WAT      O63343   4.495   2.573   0.117
21034WAT     H163344   4.481   2.665   0.153
21034WAT     H263345   4.445   2.563   0.031
21035WAT      O63346   6.091   9.824   2.058
21035WAT     H163347   6.132   9.899   2.108
21035WAT     H263348   6.153   9.794   1.985
21036WAT      O63349   0.414   3.971   7.457
21036WAT     H163350   0.350   4.045   7.476
21036WAT     H263351   0.487   3.971   7.526
21037WAT      O63352   2.374   3.868   5.466
21037WAT     H163353   2.460   3.836   5.427
21037WAT     H263354   2.299   3.811   5.433
21038WAT      O63355   7.584   1.431   5.379
21038WAT     H163356   7.520   1.415   5.304
21038WAT     H263357   7.555   1.511   5.432
21039WAT      O63358   0.363   4.037   2.884
21039WAT     H163359   0.351   3.993   2.795
21039WAT     H263360   0.460   4.055   2.900
21040WAT      O63361   3.074   7.514   2.180
21040WAT     H163362   3.052   7.554   2.091
21040WAT     H263363   3.126   7.581   2.235
21041WAT      O63364   4.540   8.688   3.267
21041WAT     H163365   4.589   8.653   3.188
21041WAT     H263366   4.533   8.788   3.260
21042WAT      O63367   8.249   4.841   2.744
21042WAT     H163368   8.185   4.888   2.806
21042WAT     H263369   8.340   4.880   2.755
21043WAT      O63370   3.507   3.421   6.169
21043WAT     H163371   3.505   3.515   6.136
21043WAT     H263372   3.417   3.396   6.205
21044WAT      O63373   2.581   7.809   8.943
21044WAT     H163374   2.573   7.850   8.852
21044WAT     H263375   2.497   7.760   8.965
21045WAT      O63376   5.090   4.953   3.696
21045WAT     H163377   5.036   4.960   3.612
21045WAT     H263378   5.047   5.009   3.767
21046WAT      O63379   4.455   9.443   2.640
21046WAT     H163380   4.416   9.420   2.729
21046WAT     H263381   4.552   9.462   2.649
21047WAT      O63382   3.207   7.003   2.164
21047WAT     H163383   3.233   6.999   2.261
21047WAT     H263384   3.126   6.946   2.149
21048WAT      O63385   3.615   5.876   0.285
21048WAT     H163386   3.655   5.784   0.283
21048WAT     H263387   3.681   5.942   0.251
21049WAT      O63388   3.780   5.950   8.934
21049WAT     H163389   3.697   5.986   8.976
21049WAT     H263390   3.845   6.024   8.919
21050WAT      O63391   9.523   9.596   7.294
21050WAT     H163392   9.454   9.643   7.238
21050WAT     H263393   9.504   9.611   7.391
21051WAT      O63394   4.883   9.802   1.472
21051WAT     H163395   4.800   9.754   1.446
21051WAT     H263396   4.891   9.804   1.571
21052WAT      O63397   7.273   6.792   2.403
21052WAT     H163398   7.237   6.715   2.350
21052WAT     H263399   7.252   6.779   2.500
21053WAT      O63400   9.472   2.622   6.797
21053WAT     H163401   9.421   2.595   6.879
21053WAT     H263402   9.542   2.688   6.821
21054WAT      O63403   9.277   8.955   0.993
21054WAT     H163404   9.282   8.990   1.087
21054WAT     H263405   9.346   9.000   0.937
21055WAT      O63406   9.650   8.069   3.406
21055WAT     H163407   9.568   8.123   3.388
21055WAT     H263408   9.629   7.972   3.396
21056WAT      O63409   7.762   9.653   3.475
21056WAT     H163410   7.842   9.610   3.517
21056WAT     H263411   7.782   9.675   3.380
21057WAT      O63412   9.464   4.618   9.030
21057WAT     H163413   9.426   4.619   9.122
21057WAT     H263414   9.458   4.526   8.991
21058WAT      O63415   6.081   4.576   4.152
21058WAT     H163416   6.044   4.668   4.165
21058WAT     H263417   6.076   4.552   4.055
21059WAT      O63418   5.338   7.548   7.700
21059WAT     H163419   5.427   7.508   7.680
21059WAT     H263420   5.272   7.519   7.631
21060WAT      O63421   4.504   1.700   5.927
21060WAT     H163422   4.581   1.747   5.971
21060WAT     H263423   4.421   1.713   5.981
21061WAT      O63424   0.852   0.387   2.283
21061WAT     H163425   0.885   0.359   2.373
21061WAT     H263426   0.888   0.477   2.260
21062WAT      O63427   3.921   3.959   2.939
21062WAT     H163428   3.850   4.020   2.906
21062WAT     H263429   3.913   3.870   2.894
21063WAT      O63430   0.541   8.897   3.796
21063WAT     H163431   0.588   8.983   3.816
21063WAT     H263432   0.475   8.911   3.723
21064WAT      O63433   0.319   2.455   3.254
21064WAT     H163434   0.332   2.516   3.332
21064WAT     H263435   0.407   2.440   3.209
21065WAT      O63436   6.851   7.482   9.038
21065WAT     H163437   6.937   7.505   8.994
21065WAT     H263438   6.786   7.558   9.027
21066WAT      O63439   9.799   9.185   0.660
21066WAT     H163440   9.754   9.131   0.588
21066WAT     H263441   9.846   9.124   0.723
21067WAT      O63442   7.014   3.531   8.181
21067WAT     H163443   7.010   3.471   8.261
21067WAT     H263444   7.052   3.619   8.208
21068WAT      O63445   8.606   5.954   9.753
21068WAT     H163446   8.548   6.032   9.731
21068WAT     H263447   8.582   5.918   9.843
21069WAT      O63448   8.955   6.068   8.080
21069WAT     H163449   8.882   6.016   8.125
21069WAT     H263450   8.917   6.150   8.038
21070WAT      O63451   9.398   0.273   0.827
21070WAT     H163452   9.315   0.323   0.849
21070WAT     H263453   9.375   0.188   0.781
21071WAT      O63454   2.065   4.696   6.181
21071WAT     H163455   2.132   4.769   6.196
21071WAT     H263456   2.112   4.614   6.148
21072WAT      O63457   1.214   1.070   5.645
21072WAT     H163458   1.209   1.112   5.554
21072WAT     H263459   1.275   1.124   5.703
21073WAT      O63460   3.547   4.408   0.539
21073WAT     H163461   3.515   4.448   0.626
21073WAT     H263462   3.641   4.377   0.550
21074WAT      O63463   6.038   4.653   1.311
21074WAT     H163464   6.094   4.632   1.231
21074WAT     H263465   6.058   4.587   1.384
21075WAT      O63466   9.276   6.419   4.002
21075WAT     H163467   9.207   6.365   4.051
21075WAT     H263468   9.256   6.417   3.904
21076WAT      O63469   9.682   6.015   1.380
21076WAT     H163470   9.662   6.079   1.453
21076WAT     H263471   9.777   6.027   1.350
21077WAT      O63472   0.405   9.744   6.620
21077WAT     H163473   0.466   9.765   6.697
21077WAT     H263474   0.350   9.825   6.599
21078WAT      O63475   9.297   3.597   6.984
21078WAT     H163476   9.205   3.611   6.949
21078WAT     H263477   9.299   3.609   7.083
21079WAT      O63478   1.336   5.110   4.773
21079WAT     H163479   1.376   5.174   4.706
21079WAT     H263480   1.401   5.037   4.792
21080WAT      O63481   4.194   8.067   5.992
21080WAT     H163482   4.209   8.015   6.076
21080WAT     H263483   4.226   8.013   5.914
21081WAT      O63484   7.899   6.060   6.930
21081WAT     H163485   7.896   6.160   6.930
21081WAT     H263486   7.994   6.030   6.939
21082WAT      O63487   3.917   8.301   0.586
21082WAT     H163488   3.911   8.362   0.507
21082WAT     H263489   3.831   8.252   0.598
21083WAT      O63490   3.499   5.433   4.810
21083WAT     H163491   3.525   5.395   4.899
21083WAT     H263492   3.402   5.416   4.794
21084WAT      O63493   8.802   1.680   7.681
21084WAT     H163494   8.747   1.598   7.668
21084WAT     H263495   8.784   1.717   7.772
21085WAT      O63496   0.728   2.049   9.303
21085WAT     H163497   0.827   2.056   9.318
21085WAT     H263498   0.710   1.992   9.223
21086WAT      O63499   7.528   4.010   8.197
21086WAT     H163500   7.572   4.046   8.115
21086WAT     H263501   7.597   3.993   8.267
21087WAT      O63502   6.706   3.812   5.136
21087WAT     H163503   6.628   3.780   5.083
21087WAT     H263504   6.719   3.754   5.216
21088WAT      O63505   9.224   4.310   1.798
21088WAT     H163506   9.203   4.270   1.709
21088WAT     H263507   9.266   4.400   1.785
21089WAT      O63508   6.678   9.302   6.400
21089WAT     H163509   6.615   9.334   6.471
21089WAT     H263510   6.771   9.331   6.423
21090WAT      O63511   3.244   8.029   2.374
21090WAT     H163512   3.177   7.965   2.412
21090WAT     H263513   3.337   7.999   2.398
21091WAT      O63514   9.126   2.192   3.671
21091WAT     H163515   9.201   2.133   3.641
21091WAT     H263516   9.062   2.205   3.595
21092WAT      O63517   2.362   0.134   3.052
21092WAT     H163518   2.290   0.175   2.995
21092WAT     H263519   2.320   0.078   3.123
21093WAT      O63520   1.811   5.012   7.917
21093WAT     H163521   1.888   4.991   7.977
21093WAT     H263522   1.843   5.017   7.822
21094WAT      O63523   2.383   1.277   4.773
21094WAT     H163524   2.298   1.248   4.728
21094WAT     H263525   2.429   1.197   4.812
21095WAT      O63526   3.942   8.157   1.862
21095WAT     H163527   4.014   8.087   1.857
21095WAT     H263528   3.877   8.143   1.788
21096WAT      O63529   7.544   7.268   2.397
21096WAT     H163530   7.638   7.236   2.409
21096WAT     H263531   7.485   7.224   2.464
21097WAT      O63532   3.354   1.749   0.352
21097WAT     H163533   3.289   1.685   0.393
21097WAT     H263534   3.303   1.825   0.310
21098WAT      O63535   0.448   7.184   0.880
21098WAT     H163536   0.489   7.152   0.795
21098WAT     H263537   0.387   7.261   0.861
21099WAT      O63538   7.353   2.645   3.165
21099WAT     H163539   7.355   2.545   3.156
21099WAT     H263540   7.259   2.676   3.180
21100WAT      O63541   8.654   1.677   3.323
21100WAT     H163542   8.581   1.623   3.364
21100WAT     H263543   8.729   1.687   3.389
21101WAT      O63544   0.189   7.942   6.669
21101WAT     H163545   0.259   7.965   6.601
21101WAT     H263546   0.234   7.911   6.753
21102WAT      O63547   6.041   2.515   3.381
21102WAT     H163548   5.990   2.557   3.305
21102WAT     H263549   6.115   2.460   3.345
21103WAT      O63550   7.678   4.493   2.928
21103WAT     H163551   7.583   4.520   2.941
21103WAT     H263552   7.721   4.476   3.016
21104WAT      O63553   1.609   3.593   4.364
21104WAT     H163554   1.523   3.632   4.397
21104WAT     H263555   1.623   3.618   4.269
21105WAT      O63556   8.112   3.376   0.986
21105WAT     H163557   8.024   3.388   0.940
21105WAT     H263558   8.106   3.298   1.048
21106WAT      O63559   7.644   4.178   7.992
21106WAT     H163560   7.715   4.109   7.972
21106WAT     H263561   7.688   4.263   8.019
21107WAT      O63562   0.269   6.960   0.036
21107WAT     H163563   0.320   6.963  -0.050
21107WAT     H263564   0.332   6.944   0.112
21108WAT      O63565   9.059   1.742   6.349
21108WAT     H163566   8.973   1.692   6.344
21108WAT     H263567   9.135   1.677   6.351
21109WAT      O63568   0.202   1.334   4.118
21109WAT     H163569   0.145   1.301   4.042
21109WAT     H263570   0.155   1.411   4.163
21110WAT      O63571   4.426   6.214   5.109
21110WAT     H163572   4.433   6.115   5.096
21110WAT     H263573   4.505   6.259   5.069
21111WAT      O63574   3.256   2.350   0.380
21111WAT     H163575   3.282   2.344   0.476
21111WAT     H263576   3.286   2.267   0.333
21112WAT      O63577   5.014   0.197   1.942
21112WAT     H163578   4.927   0.212   1.989
21112WAT     H263579   5.069   0.280   1.947
21113WAT      O63580   0.631   6.902   3.460
21113WAT     H163581   0.575   6.905   3.543
21113WAT     H263582   0.692   6.981   3.458
21114WAT      O63583   4.984   7.543   8.012
21114WAT     H163584   4.982   7.534   8.112
21114WAT     H263585   4.980   7.452   7.970
21115WAT      O63586   0.538   8.124   8.309
21115WAT     H163587   0.600   8.105   8.386
21115WAT     H263588   0.583   8.185   8.245
21116WAT      O63589   1.262   3.351   2.150
21116WAT     H163590   1.167   3.346   2.181
21116WAT     H263591   1.292   3.260   2.120
21117WAT      O63592   2.338   3.247   6.935
21117WAT     H163593   2.341   3.148   6.952
21117WAT     H263594   2.285   3.265   6.852
21118WAT      O63595   7.883   2.062   3.004
21118WAT     H163596   7.812   2.029   3.067
21118WAT     H263597   7.967   2.010   3.018
21119WAT      O63598   4.229   0.867   3.844
21119WAT     H163599   4.301   0.800   3.863
21119WAT     H263600   4.149   0.846   3.899
21120WAT      O63601   3.632   1.814   1.905
21120WAT     H163602   3.565   1.790   1.835
21120WAT     H263603   3.603   1.777   1.993
21121WAT      O63604   6.195   4.743   3.281
21121WAT     H163605   6.260   4.768   3.209
21121WAT     H263606   6.166   4.825   3.330
21122WAT      O63607   8.694   2.279   8.996
21122WAT     H163608   8.719   2.293   9.092
21122WAT     H263609   8.726   2.189   8.966
21123WAT      O63610   3.562   8.563   7.906
21123WAT     H163611   3.627   8.499   7.866
21123WAT     H263612   3.610   8.647   7.932
21124WAT      O63613   1.773   2.138   2.159
21124WAT     H163614   1.828   2.143   2.243
21124WAT     H263615   1.720   2.053   2.159
21125WAT      O63616   0.917   7.359   1.052
21125WAT     H163617   0.956   7.436   1.001
21125WAT     H263618   0.990   7.309   1.097
21126WAT      O63619   5.069   5.101   6.150
21126WAT     H163620   5.083   5.166   6.075
21126WAT     H263621   5.005   5.030   6.119
21127WAT      O63622   8.799   4.264   8.173
21127WAT     H163623   8.791   4.168   8.198
21127WAT     H263624   8.871   4.275   8.105
21128WAT      O63625   5.290   1.713   7.150
21128WAT     H163626   5.204   1.763   7.137
21128WAT     H263627   5.331   1.693   7.061
21129WAT      O63628   9.406   7.552   6.653
21129WAT     H163629   9.341   7.553   6.577
21129WAT     H263630   9.472   7.626   6.642
21130WAT      O63631   7.277   0.564   2.501
21130WAT     H163632   7.228   0.611   2.428
21130WAT     H263633   7.245   0.599   2.590
21131WAT      O63634   1.848   7.743   9.315
21131WAT     H163635   1.865   7.660   9.368
21131WAT     H263636   1.855   7.823   9.376
21132WAT      O63637   9.274   0.311   4.862
21132WAT     H163638   9.290   0.212   4.859
21132WAT     H263639   9.179   0.329   4.885
21133WAT      O63640   6.591   6.826   6.774
21133WAT     H163641   6.574   6.899   6.840
21133WAT     H263642   6.562   6.738   6.813
21134WAT      O63643   3.463   1.372   5.234
21134WAT     H163644   3.451   1.275   5.252
21134WAT     H263645   3.443   1.424   5.317
21135WAT      O63646   8.123   0.397   2.130
21135WAT     H163647   8.122   0.303   2.163
21135WAT     H263648   8.036   0.441   2.151
21136WAT      O63649   7.953   2.401   6.279
21136WAT     H163650   7.932   2.322   6.337
21136WAT     H263651   7.954   2.373   6.183
21137WAT      O63652   2.516   0.051   4.597
21137WAT     H163653   2.551   0.134   4.642
21137WAT     H263654   2.418   0.061   4.581
21138WAT      O63655   1.432   0.045   8.675
21138WAT     H163656   1.505   0.103   8.639
21138WAT     H263657   1.380   0.096   8.744
21139WAT      O63658   6.136   1.978   1.021
21139WAT     H163659   6.154   1.927   0.937
21139WAT     H263660   6.126   2.075   0.999
21140WAT      O63661   9.470   7.106   0.160
21140WAT     H163662   9.563   7.096   0.193
21140WAT     H263663   9.471   7.153   0.071
21141WAT      O63664   7.098   8.442   0.374
21141WAT     H163665   7.079   8.536   0.401
21141WAT     H263666   7.175   8.440   0.311
21142WAT      O63667   7.966   2.874   9.643
21142WAT     H163668   8.019   2.822   9.576
21142WAT     H263669   7.881   2.825   9.664
21143WAT      O63670   4.558   9.178   9.068
21143WAT     H163671   4.638   9.168   9.009
21143WAT     H263672   4.484   9.222   9.017
21144WAT      O63673   6.876   4.485   3.313
21144WAT     H163674   6.876   4.436   3.400
21144WAT     H263675   6.782   4.492   3.279
21145WAT      O63676   2.418   6.916   1.695
21145WAT     H163677   2.510   6.896   1.727
21145WAT     H263678   2.377   6.833   1.657
21146WAT      O63679   2.751   8.104   4.865
21146WAT     H163680   2.825   8.106   4.932
21146WAT     H263681   2.671   8.152   4.903
21147WAT      O63682   8.237   2.311   7.776
21147WAT     H163683   8.315   2.343   7.722
21147WAT     H263684   8.181   2.390   7.802
21148WAT      O63685   4.127   4.851   4.299
21148WAT     H163686   4.087   4.782   4.359
21148WAT     H263687   4.156   4.930   4.354
21149WAT      O63688   9.022   2.260   3.405
21149WAT     H163689   8.997   2.296   3.316
21149WAT     H263690   9.084   2.182   3.394
21150WAT      O63691   6.037   9.536   7.090
21150WAT     H163692   6.073   9.485   7.168
21150WAT     H263693   5.939   9.553   7.104
21151WAT      O63694   1.579   8.270   0.755
21151WAT     H163695   1.632   8.246   0.837
21151WAT     H263696   1.592   8.200   0.685
21152WAT      O63697   9.136   1.650   6.648
21152WAT     H163698   9.045   1.685   6.626
21152WAT     H263699   9.166   1.686   6.736
21153WAT      O63700   9.026   1.343   6.125
21153WAT     H163701   8.975   1.361   6.209
21153WAT     H263702   9.061   1.430   6.089
21154WAT      O63703   6.663   8.887   5.813
21154WAT     H163704   6.594   8.820   5.788
21154WAT     H263705   6.737   8.885   5.745
21155WAT      O63706   9.056   8.087   2.893
21155WAT     H163707   9.127   8.029   2.852
21155WAT     H263708   8.983   8.103   2.827
21156WAT      O63709   2.068   3.700   5.750
21156WAT     H163710   2.060   3.663   5.657
21156WAT     H263711   2.068   3.800   5.747
21157WAT      O63712   0.229   0.392   2.594
21157WAT     H163713   0.130   0.386   2.592
21157WAT     H263714   0.261   0.385   2.689
21158WAT      O63715   8.291   7.020   4.527
21158WAT     H163716   8.210   7.075   4.546
21158WAT     H263717   8.268   6.923   4.531
21159WAT      O63718   7.987   7.586   8.059
21159WAT     H163719   7.913   7.597   8.126
21159WAT     H263720   7.961   7.633   7.974
21160WAT      O63721   6.621   2.693   1.252
21160WAT     H163722   6.594   2.789   1.261
21160WAT     H263723   6.715   2.688   1.219
21161WAT      O63724   5.037   5.405   0.536
21161WAT     H163725   5.025   5.387   0.439
21161WAT     H263726   5.039   5.318   0.586
21162WAT      O63727   1.987   6.702   7.918
21162WAT     H163728   1.914   6.747   7.970
21162WAT     H263729   2.070   6.697   7.973
21163WAT      O63730   8.638   9.254   0.071
21163WAT     H163731   8.575   9.329   0.092
21163WAT     H263732   8.598   9.168   0.103
21164WAT      O63733   7.976   1.192   8.884
21164WAT     H163734   8.032   1.273   8.900
21164WAT     H263735   7.952   1.151   8.972
21165WAT      O63736   6.485   9.384   1.147
21165WAT     H163737   6.570   9.376   1.095
21165WAT     H263738   6.469   9.299   1.197
21166WAT      O63739   4.161   8.709   4.630
21166WAT     H163740   4.132   8.797   4.669
21166WAT     H263741   4.148   8.637   4.697
21167WAT      O63742   6.232   6.469   3.821
21167WAT     H163743   6.188   6.556   3.845
21167WAT     H263744   6.330   6.476   3.836
21168WAT      O63745   1.662   0.473   6.480
21168WAT     H163746   1.639   0.485   6.577
21168WAT     H263747   1.756   0.504   6.464
21169WAT      O63748   9.489   3.758   7.917
21169WAT     H163749   9.494   3.660   7.937
21169WAT     H263750   9.557   3.782   7.849
21170WAT      O63751   8.423   8.412   9.012
21170WAT     H163752   8.475   8.326   9.015
21170WAT     H263753   8.325   8.392   9.021
21171WAT      O63754   3.392   8.961   2.660
21171WAT     H163755   3.449   9.040   2.684
21171WAT     H263756   3.375   8.906   2.742
21172WAT      O63757   7.274   7.056   7.841
21172WAT     H163758   7.293   7.080   7.746
21172WAT     H263759   7.179   7.026   7.850
21173WAT      O63760   1.227   9.153   5.058
21173WAT     H163761   1.213   9.063   5.100
21173WAT     H263762   1.144   9.179   5.007
21174WAT      O63763   3.413   5.495   2.190
21174WAT     H163764   3.363   5.442   2.258
21174WAT     H263765   3.349   5.538   2.127
21175WAT      O63766   7.372   4.658   3.884
21175WAT     H163767   7.299   4.689   3.944
21175WAT     H263768   7.351   4.682   3.790
21176WAT      O63769   2.200   4.603   8.596
21176WAT     H163770   2.170   4.646   8.511
21176WAT     H263771   2.271   4.659   8.639
21177WAT      O63772   1.457   3.297   5.719
21177WAT     H163773   1.474   3.370   5.786
21177WAT     H263774   1.467   3.208   5.763
21178WAT      O63775   6.083   0.695   4.448
21178WAT     H163776   6.174   0.717   4.412
21178WAT     H263777   6.042   0.777   4.488
21179WAT      O63778   5.524   5.359   4.428
21179WAT     H163779   5.536   5.456   4.449
21179WAT     H263780   5.515   5.308   4.513
21180WAT      O63781   9.338   9.555   8.141
21180WAT     H163782   9.315   9.540   8.237
21180WAT     H263783   9.435   9.534   8.126
21181WAT      O63784   7.462   3.669   7.226
21181WAT     H163785   7.525   3.612   7.278
21181WAT     H263786   7.398   3.611   7.177
21182WAT      O63787   7.340   8.608   0.981
21182WAT     H163788   7.295   8.523   1.010
21182WAT     H263789   7.271   8.669   0.941
21183WAT      O63790   6.750   7.302   4.775
21183WAT     H163791   6.786   7.273   4.864
21183WAT     H263792   6.786   7.392   4.752
21184WAT      O63793   0.444   9.847   4.606
21184WAT     H163794   0.356   9.822   4.646
21184WAT     H263795   0.515   9.785   4.638
21185WAT      O63796   4.957   4.940   3.441
21185WAT     H163797   5.014   4.980   3.370
21185WAT     H263798   4.892   4.876   3.400
21186WAT      O63799   3.008   3.951   1.072
21186WAT     H163800   2.923   3.915   1.033
21186WAT     H263801   3.008   3.936   1.171
21187WAT      O63802   9.634   8.543   7.389
21187WAT     H163803   9.620   8.637   7.360
21187WAT     H263804   9.668   8.541   7.483
21188WAT      O63805   7.505   2.858   9.813
21188WAT     H163806   7.446   2.782   9.841
21188WAT     H263807   7.597   2.823   9.793
21189WAT      O63808   9.617   7.476   4.632
21189WAT     H163809   9.529   7.427   4.641
21189WAT     H263810   9.617   7.555   4.693
21190WAT      O63811   9.525   3.235   1.118
21190WAT     H163812   9.564   3.305   1.059
21190WAT     H263813   9.471   3.278   1.190
21191WAT      O63814   1.032   6.788   3.474
21191WAT     H163815   1.015   6.862   3.409
21191WAT     H263816   0.954   6.781   3.538
21192WAT      O63817   9.257   5.722   8.988
21192WAT     H163818   9.355   5.732   9.004
21192WAT     H263819   9.207   5.783   9.050
21193WAT      O63820   1.585   6.406   7.178
21193WAT     H163821   1.559   6.497   7.213
21193WAT     H263822   1.684   6.402   7.167
21194WAT      O63823   2.642   7.058   9.012
21194WAT     H163824   2.576   7.033   8.941
21194WAT     H263825   2.617   7.145   9.053
21195WAT      O63826   6.616   3.121   8.172
21195WAT     H163827   6.698   3.111   8.228
21195WAT     H263828   6.634   3.187   8.098
21196WAT      O63829   7.855   8.308   1.795
21196WAT     H163830   7.844   8.405   1.777
21196WAT     H263831   7.765   8.264   1.799
21197WAT      O63832   6.573   6.357   3.492
21197WAT     H163833   6.636   6.303   3.435
21197WAT     H263834   6.625   6.406   3.561
21198WAT      O63835   1.430   9.296   5.161
21198WAT     H163836   1.482   9.343   5.090
21198WAT     H263837   1.366   9.231   5.118
21199WAT      O63838   6.496   1.268   5.256
21199WAT     H163839   6.563   1.258   5.329
21199WAT     H263840   6.543   1.280   5.169
21200WAT      O63841   4.580   4.254   7.272
21200WAT     H163842   4.571   4.326   7.340
21200WAT     H263843   4.494   4.202   7.266
21201WAT      O63844   0.050   4.004   1.098
21201WAT     H163845  -0.005   3.934   1.144
21201WAT     H263846   0.143   3.970   1.085
21202WAT      O63847   5.042   2.187   8.247
21202WAT     H163848   5.110   2.167   8.176
21202WAT     H263849   5.040   2.285   8.264
21203WAT      O63850   6.364   6.856   5.711
21203WAT     H163851   6.383   6.778   5.771
21203WAT     H263852   6.274   6.893   5.732
21204WAT      O63853   6.801   3.256   9.708
21204WAT     H163854   6.725   3.306   9.748
21204WAT     H263855   6.823   3.294   9.618
21205WAT      O63856   1.064   4.144   2.504
21205WAT     H163857   1.092   4.210   2.574
21205WAT     H263858   1.140   4.084   2.482
21206WAT      O63859   7.727   1.333   6.275
21206WAT     H163860   7.786   1.292   6.206
21206WAT     H263861   7.759   1.307   6.366
21207WAT      O63862   4.865   0.711   6.564
21207WAT     H163863   4.858   0.807   6.591
21207WAT     H263864   4.956   0.677   6.586
21208WAT      O63865   3.932   7.146   0.498
21208WAT     H163866   3.994   7.142   0.575
21208WAT     H263867   3.875   7.064   0.496
21209WAT      O63868   4.176   2.463   4.992
21209WAT     H163869   4.205   2.368   4.996
21209WAT     H263870   4.084   2.469   4.953
21210WAT      O63871   3.477   3.168   7.011
21210WAT     H163872   3.440   3.261   7.005
21210WAT     H263873   3.483   3.141   7.107
21211WAT      O63874   4.564   7.662   3.754
21211WAT     H163875   4.621   7.742   3.768
21211WAT     H263876   4.472   7.679   3.790
21212WAT      O63877   3.075   3.720   1.742
21212WAT     H163878   2.985   3.675   1.739
21212WAT     H263879   3.072   3.796   1.807
21213WAT      O63880   9.035   1.609   7.992
21213WAT     H163881   9.040   1.510   7.983
21213WAT     H263882   9.041   1.634   8.089
21214WAT      O63883   7.932   8.502   2.463
21214WAT     H163884   8.030   8.509   2.448
21214WAT     H263885   7.910   8.410   2.495
21215WAT      O63886   6.320   4.524   4.243
21215WAT     H163887   6.365   4.445   4.201
21215WAT     H263888   6.230   4.538   4.201
21216WAT      O63889   7.633   2.941   5.858
21216WAT     H163890   7.557   2.943   5.793
21216WAT     H263891   7.669   2.848   5.864
21217WAT      O63892   3.789   7.798   4.231
21217WAT     H163893   3.841   7.761   4.308
21217WAT     H263894   3.780   7.728   4.160
21218WAT      O63895   3.829   4.878   4.918
21218WAT     H163896   3.739   4.864   4.877
21218WAT     H263897   3.863   4.790   4.952
21219WAT      O63898   3.754   9.715   7.433
21219WAT     H163899   3.787   9.622   7.446
21219WAT     H263900   3.750   9.762   7.521
21220WAT      O63901   5.471   9.127   2.328
21220WAT     H163902   5.480   9.213   2.378
21220WAT     H263903   5.433   9.057   2.389
21221WAT      O63904   0.824   6.293   8.101
21221WAT     H163905   0.803   6.199   8.129
21221WAT     H263906   0.746   6.352   8.121
21222WAT      O63907   7.706   5.878   4.759
21222WAT     H163908   7.754   5.957   4.798
21222WAT     H263909   7.771   5.822   4.708
21223WAT      O63910   5.083   2.382   2.604
21223WAT     H163911   5.057   2.386   2.507
21223WAT     H263912   5.113   2.290   2.627
21224WAT      O63913   2.040   2.041   4.943
21224WAT     H163914   2.009   2.043   4.848
21224WAT     H263915   1.964   2.014   5.002
21225WAT      O63916   3.740   2.113   3.006
21225WAT     H163917   3.767   2.162   3.089
21225WAT     H263918   3.820   2.065   2.968
21226WAT      O63919   3.122   0.190   2.972
21226WAT     H163920   3.212   0.171   2.934
21226WAT     H263921   3.125   0.274   3.025
21227WAT      O63922   2.810   6.358   1.181
21227WAT     H163923   2.719   6.397   1.191
21227WAT     H263924   2.814   6.302   1.098
21228WAT      O63925   5.304   9.455   7.534
21228WAT     H163926   5.361   9.534   7.557
21228WAT     H263927   5.254   9.426   7.616
21229WAT      O63928   3.778   3.419   2.696
21229WAT     H163929   3.845   3.460   2.633
21229WAT     H263930   3.826   3.366   2.765
21230WAT      O63931   3.761   0.773   0.636
21230WAT     H163932   3.752   0.775   0.536
21230WAT     H263933   3.773   0.679   0.667
21231WAT      O63934   8.468   5.787   7.322
21231WAT     H163935   8.538   5.746   7.263
21231WAT     H263936   8.492   5.771   7.418
21232WAT      O63937   6.263   3.914   7.615
21232WAT     H163938   6.298   3.991   7.561
21232WAT     H263939   6.222   3.949   7.699
21233WAT      O63940   0.142   4.145   6.862
21233WAT     H163941   0.069   4.163   6.928
21233WAT     H263942   0.133   4.208   6.784
21234WAT      O63943   6.403   5.787   5.620
21234WAT     H163944   6.347   5.787   5.537
21234WAT     H263945   6.486   5.733   5.604
21235WAT      O63946   3.332   8.465   3.345
21235WAT     H163947   3.265   8.463   3.419
21235WAT     H263948   3.334   8.376   3.299
21236WAT      O63949   5.847   4.076   4.577
21236WAT     H163950   5.923   4.128   4.536
21236WAT     H263951   5.884   4.011   4.643
21237WAT      O63952   4.976   4.412   9.582
21237WAT     H163953   4.907   4.462   9.530
21237WAT     H263954   5.067   4.427   9.542
21238WAT      O63955   7.046   6.643   2.103
21238WAT     H163956   7.131   6.611   2.145
21238WAT     H263957   7.048   6.626   2.005
21239WAT      O63958   8.313   6.239   4.151
21239WAT     H163959   8.371   6.316   4.125
21239WAT     H263960   8.230   6.273   4.194
21240WAT      O63961   1.398   2.267   4.298
21240WAT     H163962   1.315   2.224   4.334
21240WAT     H263963   1.476   2.242   4.355
21241WAT      O63964   0.220   4.165   5.798
21241WAT     H163965   0.261   4.246   5.842
21241WAT     H263966   0.289   4.093   5.790
21242WAT      O63967   7.938   1.582   2.672
21242WAT     H163968   7.899   1.562   2.762
21242WAT     H263969   7.941   1.499   2.617
21243WAT      O63970   2.900   8.165   1.802
21243WAT     H163971   2.806   8.194   1.788
21243WAT     H263972   2.939   8.215   1.879
21244WAT      O63973   1.199   6.589   0.385
21244WAT     H163974   1.188   6.645   0.467
21244WAT     H263975   1.192   6.492   0.410
21245WAT      O63976   0.883   9.178   2.683
21245WAT     H163977   0.824   9.183   2.602
21245WAT     H263978   0.916   9.084   2.694
21246WAT      O63979   3.814   3.912   3.643
21246WAT     H163980   3.865   3.961   3.714
21246WAT     H263981   3.835   3.814   3.648
21247WAT      O63982   6.851   4.861   8.641
21247WAT     H163983   6.949   4.874   8.629
21247WAT     H263984   6.823   4.775   8.598
21248WAT      O63985   1.527   5.433   1.137
21248WAT     H163986   1.588   5.357   1.115
21248WAT     H263987   1.495   5.476   1.053
21249WAT      O63988   9.533   0.155   9.558
21249WAT     H163989   9.625   0.160   9.599
21249WAT     H263990   9.538   0.178   9.461
21250WAT      O63991   2.761   5.274   9.676
21250WAT     H163992   2.721   5.290   9.766
21250WAT     H263993   2.692   5.293   9.606
21251WAT      O63994   4.195   9.248   9.565
21251WAT     H163995   4.184   9.283   9.472
21251WAT     H263996   4.105   9.225   9.603
21252WAT      O63997   2.091   3.497   5.149
21252WAT     H163998   2.173   3.445   5.172
21252WAT     H263999   2.015   3.434   5.135
21253WAT      O64000   8.433   8.673   2.770
21253WAT     H164001   8.392   8.712   2.688
21253WAT     H264002   8.480   8.587   2.748
21254WAT      O64003   7.616   5.365   9.274
21254WAT     H164004   7.569   5.437   9.326
21254WAT     H264005   7.563   5.342   9.193
21255WAT      O64006   1.646   9.484   3.427
21255WAT     H164007   1.620   9.399   3.473
21255WAT     H264008   1.572   9.513   3.367
21256WAT      O64009   1.788   3.685   7.643
21256WAT     H164010   1.785   3.748   7.720
21256WAT     H264011   1.862   3.711   7.581
21257WAT      O64012   3.305   8.960   2.146
21257WAT     H164013   3.312   8.890   2.216
21257WAT     H264014   3.268   8.920   2.062
21258WAT      O64015   1.517   5.320   2.266
21258WAT     H164016   1.417   5.320   2.256
21258WAT     H264017   1.559   5.323   2.175
21259WAT      O64018   4.539   7.555   1.108
21259WAT     H164019   4.626   7.533   1.154
21259WAT     H264020   4.508   7.476   1.056
21260WAT      O64021   5.678   8.275   6.204
21260WAT     H164022   5.774   8.246   6.205
21260WAT     H264023   5.635   8.249   6.291
21261WAT      O64024   0.907   0.168   4.640
21261WAT     H164025   0.979   0.211   4.586
21261WAT     H264026   0.899   0.215   4.728
21262WAT      O64027   1.627   7.984   5.563
21262WAT     H164028   1.668   7.903   5.522
21262WAT     H264029   1.533   7.963   5.591
21263WAT      O64030   2.758   6.325   6.361
21263WAT     H164031   2.836   6.275   6.324
21263WAT     H264032   2.737   6.291   6.452
21264WAT      O64033   3.636   8.809   5.812
21264WAT     H164034   3.574   8.792   5.889
21264WAT     H264035   3.670   8.721   5.777
21265WAT      O64036   7.317   4.024   9.738
21265WAT     H164037   7.415   4.003   9.737
21265WAT     H264038   7.297   4.094   9.670
21266WAT      O64039   6.116   2.994   5.917
21266WAT     H164040   6.059   3.051   5.976
21266WAT     H264041   6.057   2.932   5.865
21267WAT      O64042   7.159   9.063   0.443
21267WAT     H164043   7.156   9.041   0.541
21267WAT     H264044   7.097   9.003   0.393
21268WAT      O64045   1.935   8.374   2.790
21268WAT     H164046   1.910   8.278   2.780
21268WAT     H264047   2.002   8.398   2.720
21269WAT      O64048   6.538   9.209   9.469
21269WAT     H164049   6.507   9.156   9.548
21269WAT     H264050   6.595   9.285   9.499
21270WAT      O64051   3.519   9.024   0.405
21270WAT     H164052   3.484   9.037   0.498
21270WAT     H264053   3.444   8.999   0.344
21271WAT      O64054   9.711   4.333   3.682
21271WAT     H164055   9.734   4.294   3.771
21271WAT     H264056   9.655   4.414   3.694
21272WAT      O64057   3.366   4.770   8.907
21272WAT     H164058   3.331   4.774   8.814
21272WAT     H264059   3.290   4.778   8.972
21273WAT      O64060   8.429   0.761   5.331
21273WAT     H164061   8.520   0.720   5.342
21273WAT     H264062   8.437   0.845   5.277
21274WAT      O64063   0.932   2.821   4.804
21274WAT     H164064   1.015   2.821   4.860
21274WAT     H264065   0.877   2.740   4.826
21275WAT      O64066   8.606   8.610   8.570
21275WAT     H164067   8.660   8.667   8.631
21275WAT     H264068   8.573   8.666   8.493
21276WAT      O64069   9.788   5.092   9.302
21276WAT     H164070   9.800   5.027   9.228
21276WAT     H264071   9.857   5.164   9.295
21277WAT      O64072   1.312   1.091   7.723
21277WAT     H164073   1.258   1.055   7.799
21277WAT     H264074   1.403   1.118   7.756
21278WAT      O64075   5.615   6.247   3.038
21278WAT     H164076   5.605   6.346   3.045
21278WAT     H264077   5.701   6.220   3.081
21279WAT      O64078   4.087   1.679   3.674
21279WAT     H164079   4.174   1.663   3.719
21279WAT     H264080   4.043   1.591   3.654
21280WAT      O64081   9.183   5.744   1.318
21280WAT     H164082   9.267   5.746   1.371
21280WAT     H264083   9.171   5.832   1.271
21281WAT      O64084   3.363   1.730   4.452
21281WAT     H164085   3.325   1.728   4.359
21281WAT     H264086   3.290   1.744   4.518
21282WAT      O64087   1.307   8.931   0.722
21282WAT     H164088   1.271   9.005   0.664
21282WAT     H264089   1.264   8.845   0.696
21283WAT      O64090   1.853   3.463   7.797
21283WAT     H164091   1.943   3.507   7.799
21283WAT     H264092   1.786   3.526   7.758
21284WAT      O64093   5.805   3.955   9.335
21284WAT     H164094   5.734   3.885   9.346
21284WAT     H264095   5.810   3.983   9.239
21285WAT      O64096   3.324   3.750   5.806
21285WAT     H164097   3.336   3.849   5.803
21285WAT     H264098   3.367   3.713   5.888
21286WAT      O64099   5.802   5.297   6.416
21286WAT     H164100   5.708   5.294   6.451
21286WAT     H264101   5.803   5.264   6.322
21287WAT      O64102   2.843   8.658   3.546
21287WAT     H164103   2.846   8.569   3.500
21287WAT     H264104   2.825   8.645   3.643
21288WAT      O64105   3.039   7.180   5.186
21288WAT     H164106   2.993   7.099   5.148
21288WAT     H264107   3.136   7.160   5.200
21289WAT      O64108   2.536   2.641   8.356
21289WAT     H164109   2.606   2.693   8.308
21289WAT     H264110   2.466   2.703   8.391
21290WAT      O64111   2.533   7.879   0.681
21290WAT     H164112   2.504   7.943   0.752
21290WAT     H264113   2.584   7.804   0.723
21291WAT      O64114   4.562   4.105   4.072
21291WAT     H164115   4.647   4.066   4.035
21291WAT     H264116   4.543   4.192   4.027
21292WAT      O64117   1.367   7.045   0.156
21292WAT     H164118   1.404   7.060   0.065
21292WAT     H264119   1.421   6.975   0.203
21293WAT      O64120   4.491   0.835   0.323
21293WAT     H164121   4.507   0.929   0.293
21293WAT     H264122   4.559   0.775   0.281
21294WAT      O64123   8.310   8.610   4.217
21294WAT     H164124   8.348   8.672   4.286
21294WAT     H264125   8.370   8.530   4.208
21295WAT      O64126   8.330   4.934   0.262
21295WAT     H164127   8.253   4.888   0.305
21295WAT     H264128   8.411   4.925   0.320
21296WAT      O64129   4.303   8.692   9.273
21296WAT     H164130   4.219   8.718   9.225
21296WAT     H264131   4.363   8.772   9.280
21297WAT      O64132   5.777   6.624   1.641
21297WAT     H164133   5.747   6.537   1.679
21297WAT     H264134   5.870   6.614   1.606
21298WAT      O64135   8.505   6.835   1.604
21298WAT     H164136   8.520   6.736   1.606
21298WAT     H264137   8.455   6.859   1.520
21299WAT      O64138   3.153   4.192   3.947
21299WAT     H164139   3.058   4.178   3.918
21299WAT     H264140   3.154   4.241   4.035
21300WAT      O64141   2.144   8.082   9.261
21300WAT     H164142   2.089   7.999   9.261
21300WAT     H264143   2.214   8.076   9.189
21301WAT      O64144   7.609   2.699   3.322
21301WAT     H164145   7.621   2.732   3.229
21301WAT     H264146   7.525   2.645   3.328
21302WAT      O64147   2.344   0.658   5.027
21302WAT     H164148   2.411   0.634   4.957
21302WAT     H264149   2.253   0.659   4.987
21303WAT      O64150   3.997   6.447   7.700
21303WAT     H164151   3.899   6.465   7.686
21303WAT     H264152   4.051   6.509   7.644
21304WAT      O64153   8.977   4.787   4.022
21304WAT     H164154   8.963   4.689   4.009
21304WAT     H264155   8.912   4.838   3.966
21305WAT      O64156   7.784   7.360   6.816
21305WAT     H164157   7.843   7.426   6.862
21305WAT     H264158   7.763   7.393   6.724
21306WAT      O64159   9.710   4.847   3.075
21306WAT     H164160   9.807   4.854   3.049
21306WAT     H264161   9.703   4.849   3.175
21307WAT      O64162   8.570   0.138   7.240
21307WAT     H164163   8.514   0.156   7.158
21307WAT     H264164   8.535   0.192   7.316
21308WAT      O64165   2.659   5.833   4.858
21308WAT     H164166   2.688   5.874   4.772
21308WAT     H264167   2.614   5.745   4.840
21309WAT      O64168   4.278   4.884   1.305
21309WAT     H164169   4.311   4.856   1.215
21309WAT     H264170   4.276   4.983   1.310
21310WAT      O64171   0.066   4.863   7.403
21310WAT     H164172   0.052   4.867   7.304
21310WAT     H264173  -0.022   4.867   7.450
21311WAT      O64174   8.151   6.816   2.928
21311WAT     H164175   8.109   6.867   3.003
21311WAT     H264176   8.221   6.754   2.965
21312WAT      O64177   5.409   5.017   9.246
21312WAT     H164178   5.498   4.972   9.255
21312WAT     H264179   5.354   4.967   9.179
21313WAT      O64180   5.610   6.423   1.030
21313WAT     H164181   5.628   6.502   1.088
21313WAT     H264182   5.645   6.340   1.073
21314WAT      O64183   9.857   3.126   9.873
21314WAT     H164184   9.795   3.162   9.803
21314WAT     H264185   9.925   3.195   9.896
21315WAT      O64186   4.365   2.380   5.383
21315WAT     H164187   4.376   2.470   5.423
21315WAT     H264188   4.432   2.317   5.422
21316WAT      O64189   3.801   5.898   2.488
21316WAT     H164190   3.853   5.912   2.403
21316WAT     H264191   3.743   5.818   2.478
21317WAT      O64192   6.692   5.429   3.269
21317WAT     H164193   6.686   5.474   3.180
21317WAT     H264194   6.600   5.418   3.307
21318WAT      O64195   5.883   5.496   9.370
21318WAT     H164196   5.887   5.545   9.458
21318WAT     H264197   5.955   5.427   9.368
21319WAT      O64198   2.696   3.324   7.608
21319WAT     H164199   2.674   3.301   7.513
21319WAT     H264200   2.760   3.401   7.610
21320WAT      O64201   0.277   0.799   8.379
21320WAT     H164202   0.377   0.798   8.391
21320WAT     H264203   0.233   0.816   8.468
21321WAT      O64204   5.972   0.541   8.407
21321WAT     H164205   5.953   0.452   8.448
21321WAT     H264206   6.059   0.538   8.357
21322WAT      O64207   5.853   4.485   2.674
21322WAT     H164208   5.789   4.417   2.637
21322WAT     H264209   5.837   4.573   2.628
21323WAT      O64210   4.944   1.390   3.199
21323WAT     H164211   5.029   1.408   3.148
21323WAT     H264212   4.917   1.295   3.186
21324WAT      O64213   0.508   6.286   6.568
21324WAT     H164214   0.581   6.316   6.630
21324WAT     H264215   0.446   6.362   6.549
21325WAT      O64216   4.751   3.970   0.137
21325WAT     H164217   4.784   3.966   0.043
21325WAT     H264218   4.682   3.899   0.152
21326WAT      O64219   7.384   1.320   3.405
21326WAT     H164220   7.369   1.297   3.309
21326WAT     H264221   7.458   1.387   3.412
21327WAT      O64222   2.583   6.671   7.371
21327WAT     H164223   2.584   6.744   7.440
21327WAT     H264224   2.506   6.610   7.389
21328WAT      O64225   5.411   6.285   5.662
21328WAT     H164226   5.437   6.375   5.627
21328WAT     H264227   5.480   6.218   5.635
21329WAT      O64228   0.351   0.746   8.931
21329WAT     H164229   0.333   0.836   8.893
21329WAT     H264230   0.391   0.755   9.022
21330WAT      O64231   8.942   3.340   4.590
21330WAT     H164232   8.859   3.374   4.634
21330WAT     H264233   8.921   3.310   4.497
21331WAT      O64234   7.494   4.321   3.806
21331WAT     H164235   7.547   4.401   3.780
21331WAT     H264236   7.396   4.343   3.803
21332WAT      O64237   1.044   5.700   3.268
21332WAT     H164238   0.997   5.644   3.201
21332WAT     H264239   1.094   5.642   3.332
21333WAT      O64240   2.610   3.516   5.499
21333WAT     H164241   2.545   3.442   5.486
21333WAT     H264242   2.703   3.479   5.495
21334WAT      O64243   7.048   6.611   0.433
21334WAT     H164244   7.048   6.547   0.510
21334WAT     H264245   7.006   6.697   0.461
21335WAT      O64246   8.166   6.633   5.928
21335WAT     H164247   8.073   6.650   5.895
21335WAT     H264248   8.163   6.603   6.023
21336WAT      O64249   7.393   2.285   5.396
21336WAT     H164250   7.304   2.318   5.367
21336WAT     H264251   7.421   2.208   5.338
21337WAT      O64252   6.876   6.364   7.837
21337WAT     H164253   6.937   6.413   7.775
21337WAT     H264254   6.782   6.372   7.803
21338WAT      O64255   5.296   3.945   2.551
21338WAT     H164256   5.232   3.916   2.481
21338WAT     H264257   5.268   3.907   2.639
21339WAT      O64258   7.263   4.711   7.465
21339WAT     H164259   7.350   4.756   7.443
21339WAT     H264260   7.221   4.677   7.381
21340WAT      O64261   5.077   6.863   0.208
21340WAT     H164262   5.011   6.788   0.216
21340WAT     H264263   5.164   6.827   0.172
21341WAT      O64264   8.266   9.551   0.966
21341WAT     H164265   8.174   9.580   0.936
21341WAT     H264266   8.259   9.464   1.014
21342WAT      O64267   7.672   7.527   1.491
21342WAT     H164268   7.586   7.504   1.536
21342WAT     H264269   7.745   7.468   1.526
21343WAT      O64270   7.988   9.352   6.132
21343WAT     H164271   8.040   9.417   6.187
21343WAT     H264272   7.983   9.264   6.181
21344WAT      O64273   3.110   7.509   6.001
21344WAT     H164274   3.031   7.485   5.945
21344WAT     H264275   3.193   7.471   5.960
21345WAT      O64276   5.054   7.020   9.014
21345WAT     H164277   5.142   7.063   8.991
21345WAT     H264278   4.987   7.042   8.943
21346WAT      O64279   2.187   5.075   0.657
21346WAT     H164280   2.151   5.094   0.749
21346WAT     H264281   2.286   5.066   0.661
21347WAT      O64282   8.694   4.629   7.618
21347WAT     H164283   8.769   4.577   7.577
21347WAT     H264284   8.628   4.653   7.547
21348WAT      O64285   7.513   3.265   6.447
21348WAT     H164286   7.573   3.240   6.371
21348WAT     H264287   7.527   3.362   6.469
21349WAT      O64288   4.644   8.665   3.509
21349WAT     H164289   4.630   8.657   3.410
21349WAT     H264290   4.638   8.575   3.551
21350WAT      O64291   4.365   4.135   3.745
21350WAT     H164292   4.410   4.176   3.824
21350WAT     H264293   4.349   4.037   3.762
21351WAT      O64294   6.671   3.579   1.196
21351WAT     H164295   6.572   3.586   1.197
21351WAT     H264296   6.710   3.661   1.152
21352WAT      O64297   4.139   1.421   1.940
21352WAT     H164298   4.051   1.438   1.983
21352WAT     H264299   4.185   1.345   1.986
21353WAT      O64300   1.169   3.630   7.988
21353WAT     H164301   1.140   3.552   7.932
21353WAT     H264302   1.173   3.712   7.932
21354WAT      O64303   7.396   4.744   1.182
21354WAT     H164304   7.423   4.671   1.120
21354WAT     H264305   7.454   4.824   1.168
21355WAT      O64306   0.792   5.846   2.549
21355WAT     H164307   0.810   5.759   2.594
21355WAT     H264308   0.725   5.897   2.602
21356WAT      O64309   5.469   6.697   0.514
21356WAT     H164310   5.548   6.658   0.561
21356WAT     H264311   5.450   6.644   0.431
21357WAT      O64312   3.815   3.343   7.224
21357WAT     H164313   3.911   3.369   7.223
21357WAT     H264314   3.808   3.243   7.226
21358WAT      O64315   9.483   7.271   4.058
21358WAT     H164316   9.457   7.353   4.108
21358WAT     H264317   9.538   7.297   3.978
21359WAT      O64318   2.559   8.154   8.043
21359WAT     H164319   2.540   8.252   8.037
21359WAT     H264320   2.522   8.118   8.129
21360WAT      O64321   4.110   5.068   8.458
21360WAT     H164322   4.091   5.046   8.554
21360WAT     H264323   4.091   4.988   8.401
21361WAT      O64324   4.039   9.279   0.877
21361WAT     H164325   4.030   9.359   0.935
21361WAT     H264326   3.949   9.254   0.840
21362WAT      O64327   8.516   5.611   0.341
21362WAT     H164328   8.476   5.528   0.381
21362WAT     H264329   8.474   5.629   0.252
21363WAT      O64330   9.870   6.224   0.650
21363WAT     H164331   9.820   6.201   0.566
21363WAT     H264332   9.926   6.146   0.677
21364WAT      O64333   9.787   6.597   5.802
21364WAT     H164334   9.795   6.497   5.805
21364WAT     H264335   9.706   6.623   5.750
21365WAT      O64336   5.289   0.579   7.902
21365WAT     H164337   5.349   0.529   7.965
21365WAT     H264338   5.275   0.525   7.819
21366WAT      O64339   8.697   2.552   3.452
21366WAT     H164340   8.773   2.613   3.430
21366WAT     H264341   8.733   2.466   3.488
21367WAT      O64342   4.119   9.142   4.959
21367WAT     H164343   4.178   9.151   4.880
21367WAT     H264344   4.149   9.205   5.031
21368WAT      O64345   9.836   5.525   8.296
21368WAT     H164346   9.933   5.523   8.319
21368WAT     H264347   9.808   5.620   8.282
21369WAT      O64348   9.052   5.858   0.517
21369WAT     H164349   9.068   5.803   0.435
21369WAT     H264350   8.953   5.869   0.531
21370WAT      O64351   2.648   9.010   8.057
21370WAT     H164352   2.632   9.014   8.156
21370WAT     H264353   2.589   8.940   8.017
21371WAT      O64354   5.405   2.097   7.515
21371WAT     H164355   5.464   2.046   7.578
21371WAT     H264356   5.351   2.163   7.567
21372WAT      O64357   6.116   5.648   9.279
21372WAT     H164358   6.024   5.627   9.244
21372WAT     H264359   6.110   5.724   9.344
21373WAT      O64360   0.515   9.813   2.945
21373WAT     H164361   0.425   9.795   2.906
21373WAT     H264362   0.539   9.909   2.929
21374WAT      O64363   5.449   5.419   8.245
21374WAT     H164364   5.389   5.419   8.165
21374WAT     H264365   5.395   5.407   8.328
21375WAT      O64366   3.156   0.787   2.622
21375WAT     H164367   3.239   0.841   2.636
21375WAT     H264368   3.084   0.846   2.585
21376WAT      O64369   9.779   9.100   5.527
21376WAT     H164370   9.869   9.093   5.484
21376WAT     H264371   9.715   9.145   5.464
21377WAT      O64372   2.485   3.789   8.662
21377WAT     H164373   2.528   3.849   8.729
21377WAT     H264374   2.484   3.695   8.698
21378WAT      O64375   3.049   1.817   6.222
21378WAT     H164376   3.139   1.786   6.252
21378WAT     H264377   2.981   1.794   6.291
21379WAT      O64378   4.422   8.117   1.660
21379WAT     H164379   4.458   8.194   1.712
21379WAT     H264380   4.374   8.054   1.722
21380WAT      O64381   3.093   9.607   2.266
21380WAT     H164382   3.067   9.703   2.275
21380WAT     H264383   3.146   9.579   2.345
21381WAT      O64384   8.852   3.117   2.223
21381WAT     H164385   8.782   3.060   2.179
21381WAT     H264386   8.823   3.141   2.316
21382WAT      O64387   2.322   6.121   4.720
21382WAT     H164388   2.301   6.180   4.641
21382WAT     H264389   2.382   6.046   4.691
21383WAT      O64390   2.911   8.939   2.346
21383WAT     H164391   2.955   8.977   2.264
21383WAT     H264392   2.980   8.926   2.417
21384WAT      O64393   5.872   3.049   0.683
21384WAT     H164394   5.875   2.974   0.617
21384WAT     H264395   5.863   3.012   0.775
21385WAT      O64396   4.588   9.468   9.813
21385WAT     H164397   4.606   9.545   9.875
21385WAT     H264398   4.562   9.503   9.723
21386WAT      O64399   2.286   8.637   1.565
21386WAT     H164400   2.293   8.587   1.651
21386WAT     H264401   2.373   8.631   1.516
21387WAT      O64402   3.238   8.696   4.371
21387WAT     H164403   3.316   8.635   4.372
21387WAT     H264404   3.243   8.754   4.290
21388WAT      O64405   4.998   7.842   0.722
21388WAT     H164406   5.002   7.931   0.768
21388WAT     H264407   4.947   7.851   0.637
21389WAT      O64408   1.748   4.882   4.183
21389WAT     H164409   1.686   4.804   4.185
21389WAT     H264410   1.799   4.882   4.097
21390WAT      O64411   8.738   9.254   7.272
21390WAT     H164412   8.657   9.303   7.239
21390WAT     H264413   8.749   9.270   7.370
21391WAT      O64414   8.236   8.886   0.944
21391WAT     H164415   8.204   8.980   0.958
21391WAT     H264416   8.229   8.835   1.030
21392WAT      O64417   1.674   0.447   6.740
21392WAT     H164418   1.596   0.394   6.773
21392WAT     H264419   1.754   0.427   6.796
21393WAT      O64420   8.922   2.325   0.150
21393WAT     H164421   8.923   2.245   0.210
21393WAT     H264422   8.832   2.367   0.152
21394WAT      O64423   7.883   0.634   4.783
21394WAT     H164424   7.916   0.543   4.757
21394WAT     H264425   7.863   0.687   4.701
21395WAT      O64426   0.765   0.610   9.050
21395WAT     H164427   0.864   0.625   9.051
21395WAT     H264428   0.743   0.535   8.988
21396WAT      O64429   5.198   6.871   5.961
21396WAT     H164430   5.137   6.929   5.907
21396WAT     H264431   5.207   6.782   5.917
21397WAT      O64432   4.262   1.558   0.997
21397WAT     H164433   4.330   1.616   0.952
21397WAT     H264434   4.206   1.614   1.058
21398WAT      O64435   8.606   2.496   2.695
21398WAT     H164436   8.537   2.423   2.684
21398WAT     H264437   8.562   2.585   2.682
21399WAT      O64438   5.454   2.854   0.980
21399WAT     H164439   5.422   2.767   0.942
21399WAT     H264440   5.474   2.843   1.077
21400WAT      O64441   4.476   3.027   1.002
21400WAT     H164442   4.477   2.957   0.930
21400WAT     H264443   4.515   2.990   1.086
21401WAT      O64444   4.011   4.722   9.564
21401WAT     H164445   3.958   4.749   9.644
21401WAT     H264446   3.953   4.667   9.503
21402WAT      O64447   4.935   9.070   0.506
21402WAT     H164448   4.904   9.142   0.444
21402WAT     H264449   4.983   9.111   0.584
21403WAT      O64450   5.795   1.861   3.511
21403WAT     H164451   5.895   1.856   3.509
21403WAT     H264452   5.762   1.895   3.424
21404WAT      O64453   7.157   7.883   7.621
21404WAT     H164454   7.232   7.855   7.680
21404WAT     H264455   7.178   7.971   7.578
21405WAT      O64456   8.695   1.149   6.901
21405WAT     H164457   8.634   1.210   6.953
21405WAT     H264458   8.785   1.192   6.892
21406WAT      O64459   0.015   6.740   3.142
21406WAT     H164460   0.042   6.657   3.092
21406WAT     H264461  -0.013   6.714   3.235
21407WAT      O64462   5.455   1.721   6.099
21407WAT     H164463   5.541   1.682   6.065
21407WAT     H264464   5.435   1.805   6.049
21408WAT      O64465   5.795   0.461   1.857
21408WAT     H164466   5.763   0.546   1.815
21408WAT     H264467   5.729   0.432   1.927
21409WAT      O64468   5.965   3.218   6.010
21409WAT     H164469   5.978   3.242   5.914
21409WAT     H264470   5.987   3.297   6.067
21410WAT      O64471   0.502   3.832   6.005
21410WAT     H164472   0.470   3.771   6.077
21410WAT     H264473   0.589   3.872   6.032
21411WAT      O64474   8.231   2.719   5.535
21411WAT     H164475   8.262   2.681   5.622
21411WAT     H264476   8.147   2.673   5.506
21412WAT      O64477   4.712   5.476   8.365
21412WAT     H164478   4.732   5.377   8.365
21412WAT     H264479   4.774   5.522   8.428
21413WAT      O64480   0.296   7.273   0.364
21413WAT     H164481   0.276   7.309   0.272
21413WAT     H264482   0.228   7.202   0.387
21414WAT      O64483   1.404   6.784   6.355
21414WAT     H164484   1.501   6.769   6.339
21414WAT     H264485   1.352   6.705   6.321
21415WAT      O64486   9.156   8.187   4.189
21415WAT     H164487   9.172   8.241   4.107
21415WAT     H264488   9.089   8.233   4.247
21416WAT      O64489   0.848   3.593   8.110
21416WAT     H164490   0.943   3.606   8.138
21416WAT     H264491   0.826   3.655   8.035
21417WAT      O64492   5.193   3.715   6.398
21417WAT     H164493   5.142   3.750   6.319
21417WAT     H264494   5.182   3.616   6.404
21418WAT      O64495   7.635   8.308   6.025
21418WAT     H164496   7.637   8.360   6.110
21418WAT     H264497   7.728   8.288   5.995
21419WAT      O64498   9.715   2.111   6.902
21419WAT     H164499   9.700   2.168   6.983
21419WAT     H264500   9.756   2.024   6.929
21420WAT      O64501   1.706   2.128   1.695
21420WAT     H164502   1.800   2.143   1.725
21420WAT     H264503   1.654   2.084   1.769
21421WAT      O64504   0.270   4.770   4.431
21421WAT     H164505   0.322   4.758   4.515
21421WAT     H264506   0.302   4.851   4.382
21422WAT      O64507   4.960   4.553   3.089
21422WAT     H164508   4.983   4.477   3.027
21422WAT     H264509   4.923   4.515   3.174
21423WAT      O64510   9.306   3.602   7.246
21423WAT     H164511   9.348   3.663   7.313
21423WAT     H264512   9.352   3.513   7.249
21424WAT      O64513   7.589   8.418   1.445
21424WAT     H164514   7.546   8.491   1.498
21424WAT     H264515   7.687   8.435   1.438
21425WAT      O64516   6.245   8.228   1.207
21425WAT     H164517   6.219   8.160   1.139
21425WAT     H264518   6.164   8.278   1.237
21426WAT      O64519   2.276   0.685   1.458
21426WAT     H164520   2.239   0.615   1.521
21426WAT     H264521   2.328   0.640   1.386
21427WAT      O64522   6.182   5.638   8.488
21427WAT     H164523   6.155   5.731   8.511
21427WAT     H264524   6.109   5.593   8.437
21428WAT      O64525   3.367   8.091   7.345
21428WAT     H164526   3.390   8.029   7.270
21428WAT     H264527   3.419   8.064   7.426
21429WAT      O64528   8.502   5.931   6.911
21429WAT     H164529   8.516   5.943   6.812
21429WAT     H264530   8.591   5.932   6.957
21430WAT      O64531   1.327   4.387   3.402
21430WAT     H164532   1.395   4.315   3.390
21430WAT     H264533   1.240   4.357   3.362
21431WAT      O64534   1.601   1.696   3.570
21431WAT     H164535   1.653   1.613   3.590
21431WAT     H264536   1.515   1.672   3.524
21432WAT      O64537   3.221   9.243   7.745
21432WAT     H164538   3.174   9.193   7.818
21432WAT     H264539   3.280   9.180   7.694
21433WAT      O64540   6.145   4.134   8.257
21433WAT     H164541   6.183   4.176   8.340
21433WAT     H264542   6.171   4.037   8.255
21434WAT      O64543   4.111   7.008   1.471
21434WAT     H164544   4.160   6.971   1.550
21434WAT     H264545   4.137   6.958   1.388
21435WAT      O64546   7.229   6.126   7.442
21435WAT     H164547   7.232   6.089   7.349
21435WAT     H264548   7.213   6.052   7.507
21436WAT      O64549   2.708   0.288   4.259
21436WAT     H164550   2.631   0.331   4.307
21436WAT     H264551   2.679   0.259   4.169
21437WAT      O64552   5.411   3.490   8.231
21437WAT     H164553   5.315   3.507   8.255
21437WAT     H264554   5.448   3.568   8.181
21438WAT      O64555   2.229   7.129   7.395
21438WAT     H164556   2.135   7.159   7.381
21438WAT     H264557   2.291   7.183   7.338
21439WAT      O64558   9.538   9.355   8.510
21439WAT     H164559   9.549   9.442   8.558
21439WAT     H264560   9.574   9.281   8.567
21440WAT      O64561   2.635   9.714   9.074
21440WAT     H164562   2.711   9.714   9.139
21440WAT     H264563   2.636   9.798   9.020
21441WAT      O64564   6.564   6.903   1.202
21441WAT     H164565   6.595   6.808   1.209
21441WAT     H264566   6.572   6.933   1.107
21442WAT      O64567   9.563   2.468   7.916
21442WAT     H164568   9.584   2.385   7.866
21442WAT     H264569   9.476   2.457   7.964
21443WAT      O64570   2.091   9.567   8.528
21443WAT     H164571   2.016   9.571   8.462
21443WAT     H264572   2.178   9.581   8.481
21444WAT      O64573   5.852   5.069   4.137
21444WAT     H164574   5.771   5.032   4.093
21444WAT     H264575   5.859   5.167   4.116
21445WAT      O64576   0.982   1.135   0.021
21445WAT     H164577   1.007   1.163  -0.072
21445WAT     H264578   1.044   1.062   0.052
21446WAT      O64579   9.237   0.558   7.178
21446WAT     H164580   9.180   0.544   7.097
21446WAT     H264581   9.202   0.505   7.254
21447WAT      O64582   6.893   5.318   9.744
21447WAT     H164583   6.939   5.244   9.694
21447WAT     H264584   6.955   5.395   9.754
21448WAT      O64585   0.825   0.098   2.782
21448WAT     H164586   0.788   0.187   2.756
21448WAT     H264587   0.759   0.026   2.758
21449WAT      O64588   7.924   9.150   6.679
21449WAT     H164589   8.023   9.166   6.679
21449WAT     H264590   7.876   9.235   6.659
21450WAT      O64591   1.444   2.531   9.458
21450WAT     H164592   1.492   2.581   9.530
21450WAT     H264593   1.488   2.442   9.444
21451WAT      O64594   9.180   9.718   7.999
21451WAT     H164595   9.134   9.658   7.934
21451WAT     H264596   9.249   9.665   8.050
21452WAT      O64597   4.097   6.997   4.633
21452WAT     H164598   4.019   7.057   4.614
21452WAT     H264599   4.147   6.980   4.549
21453WAT      O64600   3.398   1.419   2.314
21453WAT     H164601   3.445   1.447   2.397
21453WAT     H264602   3.357   1.499   2.270
21454WAT      O64603   8.509   3.762   4.767
21454WAT     H164604   8.427   3.782   4.820
21454WAT     H264605   8.590   3.780   4.823
21455WAT      O64606   2.791   1.472   8.177
21455WAT     H164607   2.733   1.404   8.222
21455WAT     H264608   2.734   1.545   8.139
21456WAT      O64609   0.111   0.556   1.880
21456WAT     H164610   0.086   0.558   1.977
21456WAT     H264611   0.028   0.555   1.824
21457WAT      O64612   5.157   1.173   6.922
21457WAT     H164613   5.073   1.183   6.976
21457WAT     H264614   5.146   1.221   6.835
21458WAT      O64615   5.978   0.813   5.922
21458WAT     H164616   5.959   0.884   5.854
21458WAT     H264617   6.077   0.800   5.930
21459WAT      O64618   6.299   6.447   8.060
21459WAT     H164619   6.358   6.522   8.030
21459WAT     H264620   6.326   6.363   8.015
21460WAT      O64621   9.257   5.308   3.181
21460WAT     H164622   9.339   5.251   3.184
21460WAT     H264623   9.183   5.264   3.231
21461WAT      O64624   8.090   4.106   1.976
21461WAT     H164625   8.057   4.115   2.070
21461WAT     H264626   8.032   4.161   1.915
21462WAT      O64627   5.750   3.968   8.702
21462WAT     H164628   5.789   3.907   8.632
21462WAT     H264629   5.654   3.986   8.680
21463WAT      O64630   6.464   0.851   4.190
21463WAT     H164631   6.389   0.844   4.255
21463WAT     H264632   6.427   0.864   4.098
21464WAT      O64633   6.080   5.968   8.157
21464WAT     H164634   6.042   5.885   8.117
21464WAT     H264635   6.179   5.971   8.141
21465WAT      O64636   8.407   7.131   5.309
21465WAT     H164637   8.395   7.080   5.224
21465WAT     H264638   8.498   7.112   5.347
21466WAT      O64639   8.841   0.123   6.302
21466WAT     H164640   8.821   0.222   6.303
21466WAT     H264641   8.858   0.094   6.208
21467WAT      O64642   9.030   6.424   2.547
21467WAT     H164643   8.970   6.425   2.628
21467WAT     H264644   8.985   6.474   2.473
21468WAT      O64645   2.925   5.962   1.137
21468WAT     H164646   2.894   5.879   1.090
21468WAT     H264647   2.853   6.031   1.135
21469WAT      O64648   2.484   4.062   7.405
21469WAT     H164649   2.515   3.967   7.395
21469WAT     H264650   2.558   4.117   7.444
21470WAT      O64651   9.584   1.411   6.364
21470WAT     H164652   9.621   1.352   6.436
21470WAT     H264653   9.634   1.498   6.364
21471WAT      O64654   7.209   7.873   4.760
21471WAT     H164655   7.244   7.785   4.790
21471WAT     H264656   7.203   7.875   4.660
21472WAT      O64657   1.552   6.201   7.380
21472WAT     H164658   1.584   6.290   7.350
21472WAT     H264659   1.627   6.135   7.377
21473WAT      O64660   7.291   4.542   9.674
21473WAT     H164661   7.323   4.637   9.681
21473WAT     H264662   7.210   4.539   9.615
21474WAT      O64663   1.673   3.322   5.439
21474WAT     H164664   1.576   3.322   5.415
21474WAT     H264665   1.695   3.407   5.487
21475WAT      O64666   9.268   3.441   8.164
21475WAT     H164667   9.220   3.440   8.077
21475WAT     H264668   9.307   3.532   8.180
21476WAT      O64669   9.170   9.340   8.709
21476WAT     H164670   9.071   9.347   8.701
21476WAT     H264671   9.207   9.286   8.633
21477WAT      O64672   5.561   0.853   7.569
21477WAT     H164673   5.603   0.899   7.648
21477WAT     H264674   5.464   0.875   7.565
21478WAT      O64675   1.007   1.826   5.814
21478WAT     H164676   0.927   1.818   5.873
21478WAT     H264677   0.979   1.857   5.723
21479WAT      O64678   5.464   9.045   3.704
21479WAT     H164679   5.550   9.041   3.653
21479WAT     H264680   5.402   9.109   3.660
21480WAT      O64681   1.052   7.055   2.646
21480WAT     H164682   1.017   7.005   2.567
21480WAT     H264683   1.044   7.153   2.630
21481WAT      O64684   6.262   9.112   5.197
21481WAT     H164685   6.316   9.191   5.168
21481WAT     H264686   6.313   9.028   5.181
21482WAT      O64687   9.211   9.669   0.815
21482WAT     H164688   9.288   9.730   0.830
21482WAT     H264689   9.148   9.710   0.750
21483WAT      O64690   9.744   9.622   6.867
21483WAT     H164691   9.830   9.642   6.915
21483WAT     H264692   9.740   9.675   6.783
21484WAT      O64693   5.078   9.819   9.868
21484WAT     H164694   5.081   9.810   9.967
21484WAT     H264695   5.071   9.915   9.843
21485WAT      O64696   2.227   2.386   1.573
21485WAT     H164697   2.241   2.296   1.530
21485WAT     H264698   2.182   2.374   1.661
21486WAT      O64699   5.040   1.746   0.238
21486WAT     H164700   5.073   1.828   0.284
21486WAT     H264701   4.960   1.710   0.286
21487WAT      O64702   6.998   6.439   4.501
21487WAT     H164703   7.059   6.379   4.450
21487WAT     H264704   6.914   6.455   4.448
21488WAT      O64705   2.122   1.989   8.256
21488WAT     H164706   2.204   2.046   8.244
21488WAT     H264707   2.097   1.947   8.169
21489WAT      O64708   7.517   4.480   0.081
21489WAT     H164709   7.417   4.486   0.084
21489WAT     H264710   7.553   4.562   0.036
21490WAT      O64711   3.013   5.180   9.415
21490WAT     H164712   2.915   5.194   9.400
21490WAT     H264713   3.028   5.088   9.454
21491WAT      O64714   9.432   0.762   7.562
21491WAT     H164715   9.365   0.788   7.492
21491WAT     H264716   9.399   0.790   7.652
21492WAT      O64717   1.986   5.582   1.567
21492WAT     H164718   1.959   5.678   1.576
21492WAT     H264719   2.085   5.576   1.553
21493WAT      O64720   4.286   7.507   9.186
21493WAT     H164721   4.271   7.410   9.167
21493WAT     H264722   4.291   7.520   9.285
21494WAT      O64723   5.051   3.264   8.426
21494WAT     H164724   5.078   3.196   8.358
21494WAT     H264725   4.953   3.254   8.446
21495WAT      O64726   3.332   5.954   4.791
21495WAT     H164727   3.270   6.019   4.835
21495WAT     H264728   3.407   6.004   4.747
21496WAT      O64729   7.814   6.369   0.323
21496WAT     H164730   7.762   6.414   0.396
21496WAT     H264731   7.899   6.418   0.307
21497WAT      O64732   4.932   7.308   4.491
21497WAT     H164733   4.999   7.297   4.418
21497WAT     H264734   4.850   7.255   4.469
21498WAT      O64735   8.759   3.025   7.664
21498WAT     H164736   8.811   3.033   7.579
21498WAT     H264737   8.702   3.106   7.676
21499WAT      O64738   4.312   7.031   3.185
21499WAT     H164739   4.231   7.080   3.153
21499WAT     H264740   4.317   6.942   3.140
21500WAT      O64741   6.481   5.799   3.169
21500WAT     H164742   6.579   5.791   3.151
21500WAT     H264743   6.467   5.852   3.253
21501WAT      O64744   2.325   2.740   0.134
21501WAT     H164745   2.309   2.812   0.201
21501WAT     H264746   2.343   2.654   0.182
21502WAT      O64747   8.784   2.400   6.447
21502WAT     H164748   8.855   2.430   6.384
21502WAT     H264749   8.694   2.426   6.411
21503WAT      O64750   7.547   0.665   5.671
21503WAT     H164751   7.533   0.746   5.614
21503WAT     H264752   7.624   0.681   5.733
21504WAT      O64753   6.651   3.873   8.492
21504WAT     H164754   6.592   3.902   8.416
21504WAT     H264755   6.726   3.817   8.457
21505WAT      O64756   2.046   4.727   5.530
21505WAT     H164757   2.046   4.629   5.549
21505WAT     H264758   2.140   4.761   5.530
21506WAT      O64759   0.204   7.678   6.869
21506WAT     H164760   0.258   7.620   6.929
21506WAT     H264761   0.131   7.722   6.922
21507WAT      O64762   1.062   5.047   0.700
21507WAT     H164763   1.027   5.128   0.653
21507WAT     H264764   1.142   5.012   0.650
21508WAT      O64765   7.530   9.835   4.757
21508WAT     H164766   7.615   9.786   4.778
21508WAT     H264767   7.493   9.876   4.841
21509WAT      O64768   1.985   5.647   9.129
21509WAT     H164769   2.058   5.715   9.129
21509WAT     H264770   2.003   5.578   9.198
21510WAT      O64771   4.552   9.470   3.864
21510WAT     H164772   4.489   9.547   3.854
21510WAT     H264773   4.529   9.418   3.947
21511WAT      O64774   3.290   3.685   0.157
21511WAT     H164775   3.215   3.719   0.213
21511WAT     H264776   3.303   3.745   0.077
21512WAT      O64777   8.226   6.555   7.005
21512WAT     H164778   8.159   6.600   7.064
21512WAT     H264779   8.317   6.591   7.024
21513WAT      O64780   4.285   6.599   7.905
21513WAT     H164781   4.357   6.644   7.958
21513WAT     H264782   4.196   6.633   7.936
21514WAT      O64783   9.562   7.398   3.817
21514WAT     H164784   9.555   7.330   3.744
21514WAT     H264785   9.486   7.463   3.809
21515WAT      O64786   9.161   8.819   8.438
21515WAT     H164787   9.221   8.757   8.488
21515WAT     H264788   9.129   8.775   8.354
21516WAT      O64789   0.536   7.132   6.568
21516WAT     H164790   0.631   7.122   6.538
21516WAT     H264791   0.512   7.229   6.571
21517WAT      O64792   1.384   6.858   9.373
21517WAT     H164793   1.303   6.909   9.344
21517WAT     H264794   1.463   6.919   9.374
21518WAT      O64795   7.854   3.031   1.379
21518WAT     H164796   7.865   2.992   1.470
21518WAT     H264797   7.905   2.976   1.313
21519WAT      O64798   4.452   8.142   1.382
21519WAT     H164799   4.431   8.125   1.478
21519WAT     H264800   4.375   8.111   1.326
21520WAT      O64801   5.631   0.849   4.845
21520WAT     H164802   5.709   0.808   4.798
21520WAT     H264803   5.567   0.777   4.872
21521WAT      O64804   3.505   4.791   1.198
21521WAT     H164805   3.478   4.698   1.172
21521WAT     H264806   3.443   4.825   1.268
21522WAT      O64807   5.981   8.063   9.782
21522WAT     H164808   5.985   7.967   9.808
21522WAT     H264809   6.056   8.084   9.719
21523WAT      O64810   3.426   0.006   6.210
21523WAT     H164811   3.358   0.056   6.157
21523WAT     H264812   3.489   0.070   6.253
21524WAT      O64813   1.481   3.330   6.101
21524WAT     H164814   1.505   3.402   6.036
21524WAT     H264815   1.406   3.362   6.159
21525WAT      O64816   1.428   6.531   7.976
21525WAT     H164817   1.358   6.587   8.022
21525WAT     H264818   1.425   6.547   7.878
21526WAT      O64819   9.542   6.981   3.875
21526WAT     H164820   9.557   7.021   3.785
21526WAT     H264821   9.480   7.040   3.928
21527WAT      O64822   2.157   5.256   2.483
21527WAT     H164823   2.073   5.242   2.535
21527WAT     H264824   2.139   5.317   2.406
21528WAT      O64825   7.099   0.543   3.842
21528WAT     H164826   7.119   0.622   3.784
21528WAT     H264827   7.115   0.567   3.938
21529WAT      O64828   5.461   3.430   1.168
21529WAT     H164829   5.387   3.448   1.233
21529WAT     H264830   5.476   3.511   1.111
21530WAT      O64831   5.062   6.105   4.240
21530WAT     H164832   5.062   6.204   4.232
21530WAT     H264833   5.126   6.066   4.174
21531WAT      O64834   7.614   7.507   2.301
21531WAT     H164835   7.625   7.422   2.353
21531WAT     H264836   7.527   7.505   2.252
21532WAT      O64837   4.879   9.508   1.569
21532WAT     H164838   4.950   9.516   1.499
21532WAT     H264839   4.793   9.545   1.533
21533WAT      O64840   0.312   4.163   9.569
21533WAT     H164841   0.399   4.150   9.522
21533WAT     H264842   0.254   4.224   9.516
21534WAT      O64843   1.523   8.264   3.560
21534WAT     H164844   1.608   8.259   3.613
21534WAT     H264845   1.512   8.356   3.523
21535WAT      O64846   7.313   3.886   7.221
21535WAT     H164847   7.356   3.803   7.258
21535WAT     H264848   7.243   3.860   7.154
21536WAT      O64849   8.085   0.669   2.414
21536WAT     H164850   8.139   0.587   2.435
21536WAT     H264851   8.061   0.669   2.317
21537WAT      O64852   3.176   9.345   4.191
21537WAT     H164853   3.121   9.426   4.174
21537WAT     H264854   3.217   9.350   4.282
21538WAT      O64855   5.566   3.229   4.359
21538WAT     H164856   5.535   3.167   4.431
21538WAT     H264857   5.590   3.318   4.400
21539WAT      O64858   2.400   4.183   7.165
21539WAT     H164859   2.440   4.148   7.249
21539WAT     H264860   2.313   4.228   7.185
21540WAT      O64861   4.344   6.882   0.427
21540WAT     H164862   4.311   6.961   0.377
21540WAT     H264863   4.438   6.898   0.458
21541WAT      O64864   6.062   6.567   8.089
21541WAT     H164865   6.024   6.562   8.181
21541WAT     H264866   6.146   6.514   8.084
21542WAT      O64867   3.722   5.198   8.447
21542WAT     H164868   3.747   5.143   8.367
21542WAT     H264869   3.739   5.144   8.530
21543WAT      O64870   7.339   9.259   4.814
21543WAT     H164871   7.243   9.271   4.788
21543WAT     H264872   7.384   9.349   4.818
21544WAT      O64873   0.864   3.341   3.403
21544WAT     H164874   0.914   3.425   3.424
21544WAT     H264875   0.905   3.295   3.324
21545WAT      O64876   5.666   2.771   5.455
21545WAT     H164877   5.614   2.834   5.512
21545WAT     H264878   5.604   2.720   5.396
21546WAT      O64879   4.398   2.315   2.620
21546WAT     H164880   4.421   2.399   2.571
21546WAT     H264881   4.367   2.337   2.713
21547WAT      O64882   9.166   3.968   7.560
21547WAT     H164883   9.099   3.895   7.547
21547WAT     H264884   9.251   3.929   7.596
21548WAT      O64885   0.800   8.402   1.417
21548WAT     H164886   0.822   8.421   1.513
21548WAT     H264887   0.754   8.314   1.411
21549WAT      O64888   0.120   2.692   4.960
21549WAT     H164889   0.195   2.636   4.995
21549WAT     H264890   0.136   2.787   4.984
21550WAT      O64891   9.089   0.385   9.199
21550WAT     H164892   9.186   0.409   9.189
21550WAT     H264893   9.069   0.305   9.143
21551WAT      O64894   1.205   3.050   3.835
21551WAT     H164895   1.178   3.143   3.858
21551WAT     H264896   1.304   3.045   3.824
21552WAT      O64897   6.849   3.570   5.430
21552WAT     H164898   6.948   3.585   5.434
21552WAT     H264899   6.802   3.646   5.475
21553WAT      O64900   1.148   5.751   1.404
21553WAT     H164901   1.048   5.757   1.406
21553WAT     H264902   1.177   5.661   1.435
21554WAT      O64903   1.366   0.366   6.774
21554WAT     H164904   1.310   0.307   6.832
21554WAT     H264905   1.339   0.461   6.788
21555WAT      O64906   0.247   2.278   4.901
21555WAT     H164907   0.287   2.253   4.990
21555WAT     H264908   0.295   2.228   4.829
21556WAT      O64909   1.550   6.660   7.557
21556WAT     H164910   1.480   6.628   7.494
21556WAT     H264911   1.509   6.722   7.624
21557WAT      O64912   0.381   4.720   2.914
21557WAT     H164913   0.333   4.651   2.861
21557WAT     H264914   0.439   4.675   2.982
21558WAT      O64915   1.861   7.390   5.015
21558WAT     H164916   1.792   7.427   5.077
21558WAT     H264917   1.879   7.294   5.039
21559WAT      O64918   1.121   1.183   0.469
21559WAT     H164919   1.079   1.171   0.559
21559WAT     H264920   1.058   1.233   0.409
21560WAT      O64921   5.566   5.737   0.159
21560WAT     H164922   5.565   5.779   0.069
21560WAT     H264923   5.545   5.807   0.228
21561WAT      O64924   2.970   7.820   1.409
21561WAT     H164925   2.913   7.821   1.491
21561WAT     H264926   2.942   7.894   1.348
21562WAT      O64927   5.615   3.102   5.575
21562WAT     H164928   5.543   3.097   5.644
21562WAT     H264929   5.574   3.112   5.485
21563WAT      O64930   0.018   4.292   1.614
21563WAT     H164931   0.041   4.207   1.567
21563WAT     H264932   0.051   4.370   1.561
21564WAT      O64933   1.712   1.195   2.399
21564WAT     H164934   1.735   1.171   2.493
21564WAT     H264935   1.795   1.220   2.349
21565WAT      O64936   3.925   6.134   1.294
21565WAT     H164937   3.972   6.116   1.207
21565WAT     H264938   3.875   6.220   1.287
21566WAT      O64939   7.166   7.032   6.486
21566WAT     H164940   7.237   7.102   6.491
21566WAT     H264941   7.150   6.994   6.577
21567WAT      O64942   2.792   4.875   9.345
21567WAT     H164943   2.825   4.962   9.308
21567WAT     H264944   2.708   4.849   9.297
21568WAT      O64945   5.216   1.308   2.510
21568WAT     H164946   5.287   1.237   2.504
21568WAT     H264947   5.237   1.369   2.586
21569WAT      O64948   5.434   8.343   3.779
21569WAT     H164949   5.533   8.335   3.793
21569WAT     H264950   5.392   8.385   3.860
21570WAT      O64951   8.821   4.167   2.356
21570WAT     H164952   8.841   4.264   2.343
21570WAT     H264953   8.740   4.143   2.302
21571WAT      O64954   4.342   6.279   6.101
21571WAT     H164955   4.435   6.261   6.136
21571WAT     H264956   4.314   6.203   6.042
21572WAT      O64957   3.013   8.822   8.385
21572WAT     H164958   2.938   8.762   8.357
21572WAT     H264959   3.035   8.804   8.481
21573WAT      O64960   1.682   9.771   5.396
21573WAT     H164961   1.601   9.723   5.362
21573WAT     H264962   1.694   9.752   5.493
21574WAT      O64963   6.215   9.203   8.557
21574WAT     H164964   6.168   9.288   8.584
21574WAT     H264965   6.209   9.192   8.458
21575WAT      O64966   5.000   0.062   5.392
21575WAT     H164967   5.050  -0.018   5.423
21575WAT     H264968   4.971   0.116   5.471
21576WAT      O64969   9.340   2.562   2.967
21576WAT     H164970   9.311   2.500   2.894
21576WAT     H264971   9.265   2.575   3.032
21577WAT      O64972   1.325   9.786   4.522
21577WAT     H164973   1.360   9.814   4.612
21577WAT     H264974   1.229   9.760   4.530
21578WAT      O64975   6.723   1.609   9.059
21578WAT     H164976   6.782   1.688   9.076
21578WAT     H264977   6.779   1.527   9.048
21579WAT      O64978   2.610   3.104   5.002
21579WAT     H164979   2.644   3.163   5.075
21579WAT     H264980   2.567   3.160   4.931
21580WAT      O64981   1.852   1.274   0.328
21580WAT     H164982   1.896   1.349   0.375
21580WAT     H264983   1.888   1.187   0.362
21581WAT      O64984   2.721   9.531   9.453
21581WAT     H164985   2.632   9.527   9.409
21581WAT     H264986   2.709   9.535   9.552
21582WAT      O64987   2.940   6.126   5.649
21582WAT     H164988   2.989   6.127   5.736
21582WAT     H264989   2.880   6.206   5.644
21583WAT      O64990   5.102   3.474   3.418
21583WAT     H164991   5.101   3.520   3.329
21583WAT     H264992   5.158   3.391   3.412
21584WAT      O64993   0.388   4.558   5.280
21584WAT     H164994   0.485   4.548   5.299
21584WAT     H264995   0.351   4.470   5.249
21585WAT      O64996   3.490   1.883   3.433
21585WAT     H164997   3.411   1.821   3.437
21585WAT     H264998   3.458   1.977   3.435
21586WAT      O64999   1.015   1.108   8.362
21586WAT     H165000   0.974   1.116   8.271
21586WAT     H265001   0.957   1.050   8.420
21587WAT      O65002   5.847   1.379   3.800
21587WAT     H165003   5.918   1.409   3.862
21587WAT     H265004   5.763   1.361   3.851
21588WAT      O65005   0.464   8.976   9.820
21588WAT     H165006   0.442   8.999   9.726
21588WAT     H265007   0.409   8.898   9.849
21589WAT      O65008   8.334   3.618   7.763
21589WAT     H165009   8.362   3.682   7.834
21589WAT     H265010   8.370   3.648   7.674
21590WAT      O65011   1.030   6.866   2.410
21590WAT     H165012   0.980   6.842   2.326
21590WAT     H265013   1.128   6.851   2.396
21591WAT      O65014   1.626   1.348   6.488
21591WAT     H165015   1.565   1.347   6.409
21591WAT     H265016   1.720   1.332   6.458
21592WAT      O65017   1.544   7.042   2.338
21592WAT     H165018   1.634   7.085   2.334
21592WAT     H265019   1.504   7.058   2.428
21593WAT      O65020   2.354   8.600   6.538
21593WAT     H165021   2.323   8.688   6.572
21593WAT     H265022   2.430   8.614   6.474
21594WAT      O65023   0.458   2.397   1.937
21594WAT     H165024   0.414   2.323   1.886
21594WAT     H265025   0.542   2.363   1.980
21595WAT      O65026   8.939   0.133   3.783
21595WAT     H165027   8.860   0.091   3.737
21595WAT     H265028   8.918   0.146   3.879
21596WAT      O65029   5.680   3.477   0.889
21596WAT     H165030   5.722   3.416   0.956
21596WAT     H265031   5.662   3.566   0.931
21597WAT      O65032   3.804   4.545   9.431
21597WAT     H165033   3.837   4.455   9.401
21597WAT     H265034   3.758   4.535   9.519
21598WAT      O65035   2.161   8.103   6.649
21598WAT     H165036   2.224   8.048   6.704
21598WAT     H265037   2.182   8.200   6.662
21599WAT      O65038   6.846   4.368   5.996
21599WAT     H165039   6.878   4.345   6.088
21599WAT     H265040   6.792   4.453   5.999
21600WAT      O65041   7.388   3.734   7.682
21600WAT     H165042   7.402   3.688   7.770
21600WAT     H265043   7.471   3.783   7.657
21601WAT      O65044   1.623   8.211   0.022
21601WAT     H165045   1.683   8.203   0.102
21601WAT     H265046   1.535   8.248   0.050
21602WAT      O65047   4.750   6.359   5.696
21602WAT     H165048   4.776   6.291   5.628
21602WAT     H265049   4.687   6.317   5.762
21603WAT      O65050   2.078   2.616   6.410
21603WAT     H165051   2.081   2.710   6.444
21603WAT     H265052   2.119   2.612   6.319
21604WAT      O65053   1.281   8.063   2.217
21604WAT     H165054   1.275   7.975   2.169
21604WAT     H265055   1.195   8.112   2.207
21605WAT      O65056   5.783   8.791   2.246
21605WAT     H165057   5.695   8.815   2.204
21605WAT     H265058   5.815   8.865   2.304
21606WAT      O65059   8.969   6.147   5.871
21606WAT     H165060   8.960   6.085   5.949
21606WAT     H265061   9.031   6.106   5.803
21607WAT      O65062   5.988   0.091   9.258
21607WAT     H165063   5.900   0.137   9.243
21607WAT     H265064   6.059   0.159   9.277
21608WAT      O65065   4.735   4.622   0.349
21608WAT     H165066   4.705   4.575   0.265
21608WAT     H265067   4.832   4.645   0.341
21609WAT      O65068   4.668   4.313   6.843
21609WAT     H165069   4.633   4.241   6.783
21609WAT     H265070   4.756   4.346   6.808
21610WAT      O65071   6.494   7.347   5.177
21610WAT     H165072   6.530   7.414   5.242
21610WAT     H265073   6.564   7.277   5.159
21611WAT      O65074   4.211   0.605   4.839
21611WAT     H165075   4.118   0.628   4.810
21611WAT     H265076   4.252   0.685   4.883
21612WAT      O65077   4.935   4.781   6.303
21612WAT     H165078   4.901   4.834   6.225
21612WAT     H265079   5.018   4.732   6.276
21613WAT      O65080   5.014   8.013   3.888
21613WAT     H165081   4.934   8.017   3.947
21613WAT     H265082   5.094   8.049   3.937
21614WAT      O65083   5.245   0.330   5.711
21614WAT     H165084   5.319   0.313   5.646
21614WAT     H265085   5.198   0.244   5.731
21615WAT      O65086   2.234   7.548   4.205
21615WAT     H165087   2.281   7.541   4.293
21615WAT     H265088   2.286   7.608   4.144
21616WAT      O65089   0.236   2.644   0.124
21616WAT     H165090   0.151   2.626   0.074
21616WAT     H265091   0.217   2.699   0.205
21617WAT      O65092   3.046   1.232   7.771
21617WAT     H165093   3.058   1.149   7.826
21617WAT     H265094   2.998   1.301   7.826
21618WAT      O65095   2.682   2.514   0.481
21618WAT     H165096   2.659   2.560   0.395
21618WAT     H265097   2.620   2.437   0.496
21619WAT      O65098   1.313   3.676   3.727
21619WAT     H165099   1.269   3.692   3.815
21619WAT     H265100   1.412   3.671   3.741
21620WAT      O65101   9.165   7.250   7.442
21620WAT     H165102   9.179   7.258   7.541
21620WAT     H265103   9.134   7.158   7.421
21621WAT      O65104   2.868   5.294   7.500
21621WAT     H165105   2.814   5.242   7.567
21621WAT     H265106   2.914   5.230   7.439
21622WAT      O65107   3.094   0.129   1.291
21622WAT     H165108   3.128   0.128   1.197
21622WAT     H265109   3.059   0.039   1.315
21623WAT      O65110   7.071   9.409   7.132
21623WAT     H165111   7.108   9.378   7.045
21623WAT     H265112   6.977   9.376   7.143
21624WAT      O65113   0.823   3.273   2.518
21624WAT     H165114   0.824   3.187   2.466
21624WAT     H265115   0.913   3.289   2.558
21625WAT      O65116   6.293   6.532   0.742
21625WAT     H165117   6.290   6.632   0.735
21625WAT     H265118   6.368   6.505   0.803
21626WAT      O65119   9.501   0.918   2.920
21626WAT     H165120   9.479   0.942   2.825
21626WAT     H265121   9.477   0.994   2.980
21627WAT      O65122   4.061   5.225   1.978
21627WAT     H165123   3.983   5.244   1.919
21627WAT     H265124   4.038   5.249   2.073
21628WAT      O65125   2.349   8.808   4.046
21628WAT     H165126   2.380   8.762   3.963
21628WAT     H265127   2.371   8.751   4.125
21629WAT      O65128   5.422   3.304   3.249
21629WAT     H165129   5.478   3.381   3.217
21629WAT     H265130   5.462   3.265   3.332
21630WAT      O65131   2.144   8.583   3.718
21630WAT     H165132   2.120   8.680   3.727
21630WAT     H265133   2.187   8.568   3.629
21631WAT      O65134   0.993   9.258   3.047
21631WAT     H165135   0.999   9.355   3.070
21631WAT     H265136   0.902   9.237   3.012
21632WAT      O65137   9.676   2.868   6.528
21632WAT     H165138   9.643   2.784   6.485
21632WAT     H265139   9.606   2.905   6.588
21633WAT      O65140   0.221   0.367   8.016
21633WAT     H165141   0.262   0.340   8.104
21633WAT     H265142   0.147   0.431   8.033
21634WAT      O65143   6.317   8.851   9.869
21634WAT     H165144   6.235   8.897   9.904
21634WAT     H265145   6.386   8.846   9.941
21635WAT      O65146   8.672   1.403   5.327
21635WAT     H165147   8.629   1.337   5.266
21635WAT     H265148   8.767   1.419   5.299
21636WAT      O65149   0.815   8.681   4.719
21636WAT     H165150   0.881   8.755   4.711
21636WAT     H265151   0.846   8.603   4.664
21637WAT      O65152   3.307   0.450   6.057
21637WAT     H165153   3.286   0.417   6.150
21637WAT     H265154   3.386   0.400   6.022
21638WAT      O65155   1.116   5.381   4.085
21638WAT     H165156   1.039   5.416   4.139
21638WAT     H265157   1.202   5.413   4.125
21639WAT      O65158   5.152   5.133   8.915
21639WAT     H165159   5.146   5.193   8.994
21639WAT     H265160   5.173   5.187   8.834
21640WAT      O65161   7.733   7.857   4.322
21640WAT     H165162   7.693   7.821   4.238
21640WAT     H265163   7.833   7.856   4.314
21641WAT      O65164   4.902   1.469   2.844
21641WAT     H165165   4.985   1.417   2.866
21641WAT     H265166   4.863   1.435   2.759
21642WAT      O65167   6.751   8.129   5.490
21642WAT     H165168   6.841   8.172   5.495
21642WAT     H265169   6.750   8.047   5.547
21643WAT      O65170   1.393   6.781   5.925
21643WAT     H165171   1.385   6.686   5.956
21643WAT     H265172   1.302   6.822   5.920
21644WAT      O65173   7.648   4.824   8.115
21644WAT     H165174   7.593   4.837   8.033
21644WAT     H265175   7.601   4.865   8.194
21645WAT      O65176   8.489   0.477   9.832
21645WAT     H165177   8.460   0.423   9.911
21645WAT     H265178   8.499   0.573   9.859
21646WAT      O65179   8.101   7.201   4.559
21646WAT     H165180   8.086   7.196   4.460
21646WAT     H265181   8.153   7.284   4.580
21647WAT      O65182   0.331   1.925   9.040
21647WAT     H165183   0.260   1.896   8.975
21647WAT     H265184   0.294   1.995   9.101
21648WAT      O65185   5.958   5.300   2.102
21648WAT     H165186   6.051   5.336   2.098
21648WAT     H265187   5.925   5.280   2.010
21649WAT      O65188   4.922   3.820   4.741
21649WAT     H165189   4.982   3.747   4.773
21649WAT     H265190   4.924   3.896   4.806
21650WAT      O65191   3.398   1.421   4.495
21650WAT     H165192   3.381   1.377   4.583
21650WAT     H265193   3.416   1.518   4.510
21651WAT      O65194   4.307   5.878   4.559
21651WAT     H165195   4.291   5.833   4.471
21651WAT     H265196   4.313   5.977   4.545
21652WAT      O65197   7.278   0.918   2.876
21652WAT     H165198   7.343   0.922   2.952
21652WAT     H265199   7.280   1.005   2.826
21653WAT      O65200   0.346   1.773   2.062
21653WAT     H165201   0.294   1.782   1.977
21653WAT     H265202   0.287   1.736   2.133
21654WAT      O65203   3.363   6.128   1.598
21654WAT     H165204   3.389   6.078   1.516
21654WAT     H265205   3.443   6.176   1.634
21655WAT      O65206   1.124   3.673   8.248
21655WAT     H165207   1.150   3.763   8.282
21655WAT     H265208   1.144   3.667   8.150
21656WAT      O65209   5.594   0.623   1.035
21656WAT     H165210   5.667   0.604   0.970
21656WAT     H265211   5.631   0.673   1.113
21657WAT      O65212   9.366   0.923   6.109
21657WAT     H165213   9.447   0.923   6.050
21657WAT     H265214   9.365   0.839   6.165
21658WAT      O65215   1.063   4.693   9.096
21658WAT     H165216   1.090   4.778   9.141
21658WAT     H265217   1.134   4.666   9.030
21659WAT      O65218   8.322   7.759   9.737
21659WAT     H165219   8.228   7.792   9.726
21659WAT     H265220   8.342   7.691   9.666
21660WAT      O65221   9.272   8.124   5.145
21660WAT     H165222   9.355   8.072   5.167
21660WAT     H265223   9.248   8.110   5.049
21661WAT      O65224   3.395   3.808   7.793
21661WAT     H165225   3.466   3.787   7.726
21661WAT     H265226   3.340   3.885   7.760
21662WAT      O65227   2.536   1.995   2.204
21662WAT     H165228   2.505   1.941   2.126
21662WAT     H265229   2.630   1.969   2.227
21663WAT      O65230   0.084   6.479   2.643
21663WAT     H165231   0.104   6.542   2.718
21663WAT     H265232   0.068   6.532   2.559
21664WAT      O65233   5.307   0.738   4.270
21664WAT     H165234   5.268   0.822   4.234
21664WAT     H265235   5.404   0.732   4.245
21665WAT      O65236   4.313   8.300   5.864
21665WAT     H165237   4.336   8.368   5.933
21665WAT     H265238   4.270   8.222   5.909
21666WAT      O65239   3.901   0.022   8.860
21666WAT     H165240   3.980  -0.021   8.816
21666WAT     H265241   3.837  -0.049   8.891
21667WAT      O65242   8.520   2.741   4.772
21667WAT     H165243   8.471   2.732   4.686
21667WAT     H265244   8.574   2.826   4.771
21668WAT      O65245   1.246   8.548   4.803
21668WAT     H165246   1.249   8.460   4.756
21668WAT     H265247   1.335   8.567   4.843
21669WAT      O65248   2.573   1.868   6.387
21669WAT     H165249   2.623   1.945   6.427
21669WAT     H265250   2.518   1.901   6.310
21670WAT      O65251   2.275   8.843   6.601
21670WAT     H165252   2.252   8.866   6.696
21670WAT     H265253   2.216   8.896   6.539
21671WAT      O65254   0.486   9.485   8.942
21671WAT     H165255   0.476   9.528   8.852
21671WAT     H265256   0.583   9.478   8.965
21672WAT      O65257   2.842   8.775   6.683
21672WAT     H165258   2.884   8.853   6.636
21672WAT     H265259   2.794   8.718   6.616
21673WAT      O65260   3.323   7.481   0.424
21673WAT     H165261   3.343   7.443   0.514
21673WAT     H265262   3.277   7.569   0.434
21674WAT      O65263   8.592   2.751   2.376
21674WAT     H165264   8.588   2.660   2.334
21674WAT     H265265   8.562   2.746   2.471
21675WAT      O65266   1.657   2.431   5.749
21675WAT     H165267   1.679   2.528   5.738
21675WAT     H265268   1.741   2.380   5.765
21676WAT      O65269   2.848   9.841   9.286
21676WAT     H165270   2.861   9.749   9.249
21676WAT     H265271   2.920   9.901   9.252
21677WAT      O65272   0.573   0.192   1.319
21677WAT     H165273   0.596   0.288   1.301
21677WAT     H265274   0.592   0.137   1.237
21678WAT      O65275   8.316   1.768   7.789
21678WAT     H165276   8.383   1.839   7.808
21678WAT     H265277   8.261   1.751   7.871
21679WAT      O65278   1.379   8.055   0.677
21679WAT     H165279   1.393   7.958   0.695
21679WAT     H265280   1.388   8.107   0.762
21680WAT      O65281   7.728   7.170   4.052
21680WAT     H165282   7.653   7.121   4.006
21680WAT     H265283   7.718   7.162   4.151
21681WAT      O65284   1.910   2.784   4.302
21681WAT     H165285   1.914   2.856   4.232
21681WAT     H265286   1.859   2.706   4.266
21682WAT      O65287   4.463   6.198   9.311
21682WAT     H165288   4.553   6.230   9.282
21682WAT     H265289   4.447   6.227   9.406
21683WAT      O65290   5.313   3.477   3.889
21683WAT     H165291   5.404   3.482   3.848
21683WAT     H265292   5.251   3.428   3.827
21684WAT      O65293   1.861   3.183   9.106
21684WAT     H165294   1.828   3.107   9.161
21684WAT     H265295   1.802   3.195   9.027
21685WAT      O65296   0.032   8.433   5.923
21685WAT     H165297   0.060   8.472   5.835
21685WAT     H265298  -0.067   8.445   5.934
21686WAT      O65299   9.345   7.924   0.451
21686WAT     H165300   9.367   7.971   0.536
21686WAT     H265301   9.247   7.903   0.449
21687WAT      O65302   4.840   4.775   1.899
21687WAT     H165303   4.809   4.685   1.929
21687WAT     H265304   4.798   4.798   1.812
21688WAT      O65305   1.901   2.030   1.369
21688WAT     H165306   1.926   2.127   1.366
21688WAT     H265307   1.812   2.021   1.414
21689WAT      O65308   6.074   5.295   6.181
21689WAT     H165309   6.101   5.387   6.210
21689WAT     H265310   5.974   5.288   6.184
21690WAT      O65311   7.859   2.629   4.836
21690WAT     H165312   7.821   2.617   4.928
21690WAT     H265313   7.805   2.577   4.770
21691WAT      O65314   1.503   3.465   2.203
21691WAT     H165315   1.412   3.424   2.190
21691WAT     H265316   1.492   3.561   2.229
21692WAT      O65317   3.668   3.009   5.982
21692WAT     H165318   3.658   3.107   5.962
21692WAT     H265319   3.748   2.974   5.934
21693WAT      O65320   1.345   0.138   5.066
21693WAT     H165321   1.341   0.047   5.024
21693WAT     H265322   1.440   0.170   5.068
21694WAT      O65323   4.933   9.662   4.086
21694WAT     H165324   4.943   9.580   4.030
21694WAT     H265325   5.022   9.686   4.126
21695WAT      O65326   6.095   7.490   4.615
21695WAT     H165327   6.138   7.458   4.531
21695WAT     H265328   5.996   7.495   4.602
21696WAT      O65329   9.649   7.247   5.851
21696WAT     H165330   9.614   7.292   5.769
21696WAT     H265331   9.706   7.169   5.824
21697WAT      O65332   0.275   2.108   8.571
21697WAT     H165333   0.353   2.055   8.604
21697WAT     H265334   0.305   2.167   8.496
21698WAT      O65335   8.857   7.206   2.841
21698WAT     H165336   8.888   7.237   2.751
21698WAT     H265337   8.901   7.260   2.912
21699WAT      O65338   0.793   8.724   7.648
21699WAT     H165339   0.749   8.809   7.676
21699WAT     H265340   0.725   8.652   7.640
21700WAT      O65341   8.712   3.419   4.976
21700WAT     H165342   8.718   3.457   4.884
21700WAT     H265343   8.803   3.398   5.010
21701WAT      O65344   3.675   0.485   3.757
21701WAT     H165345   3.686   0.388   3.734
21701WAT     H265346   3.595   0.522   3.710
21702WAT      O65347   0.885   4.705   4.695
21702WAT     H165348   0.821   4.728   4.622
21702WAT     H265349   0.978   4.724   4.665
21703WAT      O65350   1.797   2.966   5.765
21703WAT     H165351   1.811   3.051   5.816
21703WAT     H265352   1.770   2.987   5.671
21704WAT      O65353   5.012   8.883   9.605
21704WAT     H165354   4.945   8.809   9.607
21704WAT     H265355   5.007   8.929   9.516
21705WAT      O65356   4.619   1.517   8.367
21705WAT     H165357   4.661   1.464   8.440
21705WAT     H265358   4.690   1.546   8.302
21706WAT      O65359   1.416   6.550   2.931
21706WAT     H165360   1.489   6.580   2.870
21706WAT     H265361   1.455   6.519   3.018
21707WAT      O65362   5.504   8.726   4.154
21707WAT     H165363   5.551   8.656   4.100
21707WAT     H265364   5.419   8.752   4.108
21708WAT      O65365   4.215   6.666   4.444
21708WAT     H165366   4.145   6.595   4.434
21708WAT     H265367   4.260   6.656   4.532
21709WAT      O65368   9.777   9.348   5.661
21709WAT     H165369   9.765   9.249   5.654
21709WAT     H265370   9.763   9.377   5.756
21710WAT      O65371   1.575   1.633   9.831
21710WAT     H165372   1.609   1.719   9.792
21710WAT     H265373   1.648   1.565   9.828
21711WAT      O65374   6.167   2.576   2.609
21711WAT     H165375   6.194   2.481   2.626
21711WAT     H265376   6.110   2.608   2.684
21712WAT      O65377   7.232   7.520   5.808
21712WAT     H165378   7.143   7.557   5.784
21712WAT     H265379   7.304   7.584   5.780
21713WAT      O65380   2.284   0.559   5.374
21713WAT     H165381   2.283   0.478   5.433
21713WAT     H265382   2.342   0.541   5.294
21714WAT      O65383   2.736   6.692   2.218
21714WAT     H165384   2.775   6.758   2.282
21714WAT     H265385   2.810   6.646   2.168
21715WAT      O65386   0.036   8.270   6.450
21715WAT     H165387   0.129   8.264   6.486
21715WAT     H265388  -0.026   8.295   6.524
21716WAT      O65389   0.456   9.017   9.263
21716WAT     H165390   0.408   8.939   9.304
21716WAT     H265391   0.438   9.020   9.165
21717WAT      O65392   8.217   4.427   4.979
21717WAT     H165393   8.223   4.378   4.892
21717WAT     H265394   8.238   4.365   5.054
21718WAT      O65395   5.326   5.466   6.421
21718WAT     H165396   5.298   5.417   6.503
21718WAT     H265397   5.282   5.555   6.418
21719WAT      O65398   7.598   9.150   0.678
21719WAT     H165399   7.527   9.128   0.611
21719WAT     H265400   7.683   9.171   0.631
21720WAT      O65401   8.774   6.832   6.075
21720WAT     H165402   8.761   6.930   6.058
21720WAT     H265403   8.858   6.818   6.128
21721WAT      O65404   2.119   6.724   6.525
21721WAT     H165405   2.171   6.639   6.533
21721WAT     H265406   2.177   6.801   6.552
21722WAT      O65407   3.889   5.639   4.066
21722WAT     H165408   3.806   5.584   4.078
21722WAT     H265409   3.962   5.580   4.032
21723WAT      O65410   5.023   7.535   3.094
21723WAT     H165411   5.110   7.559   3.137
21723WAT     H265412   5.018   7.576   3.003
21724WAT      O65413   2.592   1.561   3.743
21724WAT     H165414   2.538   1.639   3.711
21724WAT     H265415   2.608   1.498   3.666
21725WAT      O65416   7.232   4.227   8.874
21725WAT     H165417   7.315   4.173   8.863
21725WAT     H265418   7.179   4.191   8.951
21726WAT      O65419   2.168   8.893   6.860
21726WAT     H165420   2.203   8.972   6.911
21726WAT     H265421   2.198   8.809   6.905
21727WAT      O65422   4.437   3.252   1.415
21727WAT     H165423   4.498   3.228   1.339
21727WAT     H265424   4.455   3.346   1.444
21728WAT      O65425   3.558   8.439   3.732
21728WAT     H165426   3.589   8.502   3.802
21728WAT     H265427   3.621   8.362   3.725
21729WAT      O65428   9.702   7.743   0.701
21729WAT     H165429   9.653   7.801   0.765
21729WAT     H265430   9.706   7.650   0.737
21730WAT      O65431   5.215   3.838   7.007
21730WAT     H165432   5.151   3.885   7.067
21730WAT     H265433   5.245   3.900   6.934
21731WAT      O65434   4.699   0.046   5.794
21731WAT     H165435   4.750   0.077   5.874
21731WAT     H265436   4.743  -0.035   5.756
21732WAT      O65437   6.234   4.687   4.433
21732WAT     H165438   6.262   4.640   4.350
21732WAT     H265439   6.221   4.620   4.506
21733WAT      O65440   4.832   6.714   5.885
21733WAT     H165441   4.757   6.689   5.946
21733WAT     H265442   4.880   6.632   5.856
21734WAT      O65443   2.844   1.625   5.693
21734WAT     H165444   2.820   1.536   5.732
21734WAT     H265445   2.938   1.624   5.661
21735WAT      O65446   6.253   5.640   0.280
21735WAT     H165447   6.161   5.626   0.318
21735WAT     H265448   6.269   5.738   0.268
21736WAT      O65449   0.711   1.415   8.084
21736WAT     H165450   0.682   1.479   8.155
21736WAT     H265451   0.741   1.466   8.003
21737WAT      O65452   1.882   3.138   2.838
21737WAT     H165453   1.888   3.042   2.868
21737WAT     H265454   1.850   3.195   2.914
21738WAT      O65455   6.323   4.027   3.317
21738WAT     H165456   6.387   3.960   3.353
21738WAT     H265457   6.368   4.082   3.246
21739WAT      O65458   6.128   8.908   6.112
21739WAT     H165459   6.187   8.989   6.108
21739WAT     H265460   6.110   8.876   6.019
21740WAT      O65461   6.077   0.103   8.359
21740WAT     H165462   6.135   0.045   8.415
21740WAT     H265463   6.132   0.151   8.291
21741WAT      O65464   2.907   7.370   7.787
21741WAT     H165465   2.863   7.330   7.707
21741WAT     H265466   3.004   7.384   7.768
21742WAT      O65467   1.830   9.071   8.796
21742WAT     H165468   1.747   9.026   8.830
21742WAT     H265469   1.807   9.161   8.761
21743WAT      O65470   1.411   8.448   7.329
21743WAT     H165471   1.394   8.545   7.348
21743WAT     H265472   1.463   8.439   7.244
21744WAT      O65473   2.885   3.740   0.214
21744WAT     H165474   2.845   3.679   0.283
21744WAT     H265475   2.813   3.799   0.176
21745WAT      O65476   7.454   0.894   4.881
21745WAT     H165477   7.496   0.822   4.935
21745WAT     H265478   7.522   0.933   4.818
21746WAT      O65479   6.741   6.235   5.279
21746WAT     H165480   6.839   6.255   5.267
21746WAT     H265481   6.702   6.297   5.347
21747WAT      O65482   5.435   7.578   7.255
21747WAT     H165483   5.523   7.583   7.303
21747WAT     H265484   5.392   7.668   7.255
21748WAT      O65485   2.112   1.762   1.895
21748WAT     H165486   2.076   1.736   1.985
21748WAT     H265487   2.126   1.861   1.892
21749WAT      O65488   5.896   1.352   4.665
21749WAT     H165489   5.867   1.348   4.570
21749WAT     H265490   5.864   1.271   4.714
21750WAT      O65491   7.923   8.924   9.837
21750WAT     H165492   7.946   8.989   9.910
21750WAT     H265493   7.956   8.959   9.749
21751WAT      O65494   7.313   6.771   4.571
21751WAT     H165495   7.280   6.777   4.478
21751WAT     H265496   7.413   6.781   4.572
21752WAT      O65497   5.555   7.052   4.101
21752WAT     H165498   5.574   7.064   4.003
21752WAT     H265499   5.546   6.954   4.121
21753WAT      O65500   3.874   7.151   4.576
21753WAT     H165501   3.874   7.134   4.477
21753WAT     H265502   3.781   7.142   4.611
21754WAT      O65503   5.894   8.003   4.446
21754WAT     H165504   5.833   7.940   4.399
21754WAT     H265505   5.985   7.961   4.456
21755WAT      O65506   3.490   4.755   2.362
21755WAT     H165507   3.540   4.689   2.418
21755WAT     H265508   3.513   4.848   2.390
21756WAT      O65509   0.706   1.869   2.613
21756WAT     H165510   0.741   1.962   2.602
21756WAT     H265511   0.777   1.803   2.590
21757WAT      O65512   0.436   5.272   5.250
21757WAT     H165513   0.530   5.291   5.278
21757WAT     H265514   0.377   5.271   5.331
21758WAT      O65515   4.544   3.791   1.569
21758WAT     H165516   4.599   3.842   1.503
21758WAT     H265517   4.463   3.755   1.522
21759WAT      O65518   2.482   6.360   8.153
21759WAT     H165519   2.394   6.379   8.108
21759WAT     H265520   2.467   6.304   8.234
21760WAT      O65521   2.684   0.730   4.170
21760WAT     H165522   2.759   0.675   4.206
21760WAT     H265523   2.679   0.817   4.220
21761WAT      O65524   8.924   2.738   2.561
21761WAT     H165525   8.968   2.722   2.473
21761WAT     H265526   8.925   2.653   2.614
21762WAT      O65527   5.430   0.672   0.194
21762WAT     H165528   5.512   0.639   0.240
21762WAT     H265529   5.449   0.684   0.096
21763WAT      O65530   9.011   0.404   4.910
21763WAT     H165531   8.953   0.462   4.853
21763WAT     H265532   9.080   0.460   4.956
21764WAT      O65533   6.506   1.702   8.112
21764WAT     H165534   6.549   1.767   8.176
21764WAT     H265535   6.415   1.735   8.087
21765WAT      O65536   2.615   8.767   6.898
21765WAT     H165537   2.534   8.826   6.902
21765WAT     H265538   2.664   8.784   6.813
21766WAT      O65539   4.103   4.077   7.966
21766WAT     H165540   4.064   4.149   8.024
21766WAT     H265541   4.069   3.988   7.996
21767WAT      O65542   6.558   7.666   6.963
21767WAT     H165543   6.487   7.619   6.911
21767WAT     H265544   6.522   7.753   6.996
21768WAT      O65545   5.593   7.410   7.653
21768WAT     H165546   5.611   7.469   7.732
21768WAT     H265547   5.617   7.316   7.675
21769WAT      O65548   4.315   8.394   0.947
21769WAT     H165549   4.250   8.352   0.883
21769WAT     H265550   4.301   8.493   0.948
21770WAT      O65551   2.141   4.046   0.872
21770WAT     H165552   2.156   4.003   0.961
21770WAT     H265553   2.205   4.008   0.805
21771WAT      O65554   1.547   4.182   9.099
21771WAT     H165555   1.634   4.200   9.053
21771WAT     H265556   1.530   4.253   9.167
21772WAT      O65557   3.748   6.240   4.792
21772WAT     H165558   3.783   6.149   4.817
21772WAT     H265559   3.654   6.249   4.825
21773WAT      O65560   2.800   0.459   2.331
21773WAT     H165561   2.808   0.418   2.422
21773WAT     H265562   2.861   0.538   2.324
21774WAT      O65563   3.508   3.076   3.789
21774WAT     H165564   3.599   3.056   3.827
21774WAT     H265565   3.518   3.112   3.697
21775WAT      O65566   0.843   8.400   9.287
21775WAT     H165567   0.883   8.313   9.318
21775WAT     H265568   0.866   8.472   9.353
21776WAT      O65569   8.346   7.513   7.781
21776WAT     H165570   8.313   7.579   7.714
21776WAT     H265571   8.302   7.425   7.765
21777WAT      O65572   1.278   7.296   1.465
21777WAT     H165573   1.281   7.303   1.365
21777WAT     H265574   1.190   7.257   1.493
21778WAT      O65575   6.803   4.005   8.136
21778WAT     H165576   6.711   3.999   8.175
21778WAT     H265577   6.867   4.039   8.205
21779WAT      O65578   6.393   7.240   3.850
21779WAT     H165579   6.453   7.303   3.800
21779WAT     H265580   6.345   7.290   3.922
21780WAT      O65581   2.714   8.978   2.107
21780WAT     H165582   2.808   8.980   2.075
21780WAT     H265583   2.690   9.066   2.148
21781WAT      O65584   7.543   6.799   2.397
21781WAT     H165585   7.594   6.834   2.318
21781WAT     H265586   7.449   6.833   2.393
21782WAT      O65587   9.641   5.206   5.936
21782WAT     H165588   9.549   5.240   5.957
21782WAT     H265589   9.672   5.243   5.849
21783WAT      O65590   2.984   8.097   4.995
21783WAT     H165591   3.025   8.022   4.944
21783WAT     H265592   2.994   8.080   5.093
21784WAT      O65593   2.304   5.484   0.774
21784WAT     H165594   2.345   5.403   0.815
21784WAT     H265595   2.205   5.471   0.767
21785WAT      O65596   0.568   0.743   0.141
21785WAT     H165597   0.664   0.772   0.145
21785WAT     H265598   0.557   0.660   0.195
21786WAT      O65599   7.238   1.581   8.035
21786WAT     H165600   7.323   1.531   8.051
21786WAT     H265601   7.250   1.677   8.064
21787WAT      O65602   7.891   6.241   1.559
21787WAT     H165603   7.836   6.319   1.588
21787WAT     H265604   7.898   6.241   1.459
21788WAT      O65605   8.564   0.773   3.893
21788WAT     H165606   8.541   0.762   3.797
21788WAT     H265607   8.543   0.867   3.921
21789WAT      O65608   8.782   3.052   5.305
21789WAT     H165609   8.760   2.971   5.251
21789WAT     H265610   8.702   3.111   5.311
21790WAT      O65611   4.266   5.903   1.127
21790WAT     H165612   4.240   5.836   1.058
21790WAT     H265613   4.264   5.860   1.218
21791WAT      O65614   9.228   1.586   0.746
21791WAT     H165615   9.206   1.525   0.670
21791WAT     H265616   9.153   1.586   0.811
21792WAT      O65617   7.398   8.453   2.356
21792WAT     H165618   7.364   8.478   2.447
21792WAT     H265619   7.345   8.500   2.286
21793WAT      O65620   8.890   8.605   8.905
21793WAT     H165621   8.926   8.561   8.823
21793WAT     H265622   8.957   8.669   8.941
21794WAT      O65623   4.243   6.907   1.688
21794WAT     H165624   4.257   6.814   1.719
21794WAT     H265625   4.326   6.961   1.703
21795WAT      O65626   5.543   2.834   0.033
21795WAT     H165627   5.623   2.826  -0.027
21795WAT     H265628   5.464   2.793  -0.012
21796WAT      O65629   4.361   4.092   4.799
21796WAT     H165630   4.454   4.075   4.832
21796WAT     H265631   4.355   4.064   4.703
21797WAT      O65632   7.860   4.614   8.239
21797WAT     H165633   7.905   4.691   8.194
21797WAT     H265634   7.815   4.557   8.170
21798WAT      O65635   4.100   1.131   5.442
21798WAT     H165636   4.105   1.063   5.515
21798WAT     H265637   4.174   1.114   5.376
21799WAT      O65638   9.536   5.737   9.762
21799WAT     H165639   9.494   5.827   9.769
21799WAT     H265640   9.613   5.741   9.698
21800WAT      O65641   6.008   1.203   7.792
21800WAT     H165642   5.926   1.206   7.850
21800WAT     H265643   6.087   1.181   7.849
21801WAT      O65644   4.908   8.209   8.915
21801WAT     H165645   4.986   8.150   8.938
21801WAT     H265646   4.924   8.301   8.949
21802WAT      O65647   4.911   8.511   8.300
21802WAT     H165648   4.914   8.449   8.377
21802WAT     H265649   4.828   8.567   8.305
21803WAT      O65650   1.891   8.046   7.718
21803WAT     H165651   1.881   7.966   7.660
21803WAT     H265652   1.967   8.031   7.782
21804WAT      O65653   3.402   5.146   5.752
21804WAT     H165654   3.361   5.077   5.692
21804WAT     H265655   3.332   5.209   5.783
21805WAT      O65656   2.861   6.668   5.323
21805WAT     H165657   2.805   6.728   5.379
21805WAT     H265658   2.934   6.628   5.378
21806WAT      O65659   3.277   3.239   2.225
21806WAT     H165660   3.371   3.233   2.258
21806WAT     H265661   3.230   3.152   2.240
21807WAT      O65662   6.141   9.796   2.980
21807WAT     H165663   6.070   9.854   2.940
21807WAT     H265664   6.114   9.700   2.974
21808WAT      O65665   6.213   0.769   1.820
21808WAT     H165666   6.169   0.859   1.829
21808WAT     H265667   6.149   0.698   1.849
21809WAT      O65668   1.563   1.010   7.505
21809WAT     H165669   1.637   0.990   7.441
21809WAT     H265670   1.543   0.929   7.560
21810WAT      O65671   3.893   3.958   6.779
21810WAT     H165672   3.984   3.928   6.753
21810WAT     H265673   3.824   3.899   6.735
21811WAT      O65674   7.435   9.599   5.645
21811WAT     H165675   7.335   9.608   5.648
21811WAT     H265676   7.476   9.686   5.619
21812WAT      O65677   2.917   8.329   0.634
21812WAT     H165678   2.866   8.308   0.717
21812WAT     H265679   2.941   8.244   0.587
21813WAT      O65680   7.747   0.922   7.827
21813WAT     H165681   7.713   0.944   7.735
21813WAT     H265682   7.841   0.954   7.836
21814WAT      O65683   0.337   8.278   1.203
21814WAT     H165684   0.315   8.353   1.265
21814WAT     H265685   0.259   8.215   1.197
21815WAT      O65686   4.577   7.243   4.328
21815WAT     H165687   4.520   7.164   4.308
21815WAT     H265688   4.581   7.302   4.247
21816WAT      O65689   4.079   3.702   3.390
21816WAT     H165690   4.024   3.786   3.384
21816WAT     H265691   4.111   3.689   3.483
21817WAT      O65692   5.781   3.805   7.019
21817WAT     H165693   5.810   3.897   7.045
21817WAT     H265694   5.788   3.795   6.920
21818WAT      O65695   5.794   1.302   1.205
21818WAT     H165696   5.734   1.242   1.258
21818WAT     H265697   5.748   1.388   1.186
21819WAT      O65698   7.856   3.327   0.888
21819WAT     H165699   7.854   3.411   0.943
21819WAT     H265700   7.807   3.342   0.802
21820WAT      O65701   4.422   6.747   1.019
21820WAT     H165702   4.349   6.815   1.016
21820WAT     H265703   4.472   6.748   0.932
21821WAT      O65704   9.188   4.519   6.534
21821WAT     H165705   9.124   4.525   6.457
21821WAT     H265706   9.277   4.489   6.501
21822WAT      O65707   7.372   4.174   6.601
21822WAT     H165708   7.307   4.249   6.591
21822WAT     H265709   7.460   4.211   6.631
21823WAT      O65710   2.205   8.261   7.784
21823WAT     H165711   2.219   8.162   7.788
21823WAT     H265712   2.114   8.280   7.750
21824WAT      O65713   7.559   6.050   2.101
21824WAT     H165714   7.634   6.019   2.160
21824WAT     H265715   7.486   6.090   2.156
21825WAT      O65716   6.916   2.517   7.088
21825WAT     H165717   6.943   2.526   6.992
21825WAT     H265718   6.906   2.420   7.111
21826WAT      O65719   7.121   2.500   6.284
21826WAT     H165720   7.049   2.546   6.335
21826WAT     H265721   7.137   2.546   6.197
21827WAT      O65722   0.571   3.531   1.898
21827WAT     H165723   0.594   3.571   1.987
21827WAT     H265724   0.578   3.602   1.827
21828WAT      O65725   0.104   4.363   5.994
21828WAT     H165726   0.024   4.419   5.973
21828WAT     H265727   0.080   4.296   6.064
21829WAT      O65728   7.371   1.954   8.490
21829WAT     H165729   7.418   1.871   8.462
21829WAT     H265730   7.318   1.990   8.413
21830WAT      O65731   0.195   6.046   0.822
21830WAT     H165732   0.142   5.963   0.806
21830WAT     H265733   0.248   6.036   0.906
21831WAT      O65734   8.920   0.546   7.676
21831WAT     H165735   8.969   0.525   7.760
21831WAT     H265736   8.967   0.620   7.627
21832WAT      O65737   8.992   8.522   7.244
21832WAT     H165738   8.923   8.535   7.316
21832WAT     H265739   9.082   8.545   7.281
21833WAT      O65740   3.488   0.385   9.301
21833WAT     H165741   3.393   0.353   9.307
21833WAT     H265742   3.509   0.408   9.206
21834WAT      O65743   0.139   8.296   1.975
21834WAT     H165744   0.228   8.300   2.020
21834WAT     H265745   0.149   8.254   1.885
21835WAT      O65746   1.254   2.852   7.508
21835WAT     H165747   1.312   2.823   7.584
21835WAT     H265748   1.160   2.821   7.524
21836WAT      O65749   5.166   5.604   2.926
21836WAT     H165750   5.197   5.663   3.000
21836WAT     H265751   5.219   5.623   2.843
21837WAT      O65752   8.940   8.911   9.634
21837WAT     H165753   8.962   8.992   9.689
21837WAT     H265754   8.888   8.939   9.553
21838WAT      O65755   3.059   4.343   5.954
21838WAT     H165756   3.058   4.315   5.858
21838WAT     H265757   2.995   4.419   5.967
21839WAT      O65758   4.018   5.517   8.567
21839WAT     H165759   4.114   5.529   8.544
21839WAT     H265760   3.976   5.453   8.502
21840WAT      O65761   1.493   9.069   9.476
21840WAT     H165762   1.528   9.048   9.567
21840WAT     H265763   1.517   8.995   9.413
21841WAT      O65764   2.977   0.952   1.456
21841WAT     H165765   2.897   0.952   1.396
21841WAT     H265766   3.058   0.980   1.404
21842WAT      O65767   2.588   3.990   8.025
21842WAT     H165768   2.680   4.003   7.987
21842WAT     H265769   2.520   4.017   7.957
21843WAT      O65770   8.488   3.149   1.424
21843WAT     H165771   8.412   3.211   1.406
21843WAT     H265772   8.552   3.192   1.487
21844WAT      O65773   1.515   4.666   8.709
21844WAT     H165774   1.535   4.740   8.774
21844WAT     H265775   1.468   4.704   8.629
21845WAT      O65776   5.688   8.861   4.313
21845WAT     H165777   5.715   8.841   4.407
21845WAT     H265778   5.624   8.791   4.282
21846WAT      O65779   7.426   9.283   1.188
21846WAT     H165780   7.430   9.206   1.123
21846WAT     H265781   7.358   9.350   1.157
21847WAT      O65782   6.939   7.336   6.032
21847WAT     H165783   6.944   7.436   6.027
21847WAT     H265784   7.030   7.297   6.017
21848WAT      O65785   7.997   9.072   2.451
21848WAT     H165786   8.092   9.044   2.465
21848WAT     H265787   7.939   9.030   2.520
21849WAT      O65788   4.744   8.635   6.429
21849WAT     H165789   4.803   8.555   6.441
21849WAT     H265790   4.685   8.646   6.509
21850WAT      O65791   6.959   6.496   8.094
21850WAT     H165792   6.957   6.596   8.095
21850WAT     H265793   6.906   6.462   8.017
21851WAT      O65794   2.620   2.931   9.589
21851WAT     H165795   2.555   2.928   9.665
21851WAT     H265796   2.707   2.969   9.620
21852WAT      O65797   2.296   0.335   9.163
21852WAT     H165798   2.228   0.344   9.235
21852WAT     H265799   2.316   0.425   9.124
21853WAT      O65800   3.903   4.174   1.020
21853WAT     H165801   3.946   4.111   1.085
21853WAT     H265802   3.804   4.162   1.022
21854WAT      O65803   3.622   1.945   4.966
21854WAT     H165804   3.644   1.849   4.980
21854WAT     H265805   3.676   1.980   4.889
21855WAT      O65806   1.550   4.699   4.126
21855WAT     H165807   1.489   4.667   4.198
21855WAT     H265808   1.504   4.692   4.037
21856WAT      O65809   1.192   9.198   4.056
21856WAT     H165810   1.272   9.208   3.996
21856WAT     H265811   1.222   9.192   4.151
21857WAT      O65812   3.490   0.047   3.178
21857WAT     H165813   3.476  -0.038   3.229
21857WAT     H265814   3.587   0.057   3.155
21858WAT      O65815   9.225   3.847   3.651
21858WAT     H165816   9.236   3.945   3.636
21858WAT     H265817   9.127   3.823   3.646
21859WAT      O65818   1.553   3.324   4.701
21859WAT     H165819   1.643   3.323   4.657
21859WAT     H265820   1.538   3.238   4.749
21860WAT      O65821   1.690   1.654   5.501
21860WAT     H165822   1.733   1.737   5.467
21860WAT     H265823   1.723   1.634   5.593
21861WAT      O65824   0.391   9.301   0.343
21861WAT     H165825   0.470   9.291   0.403
21861WAT     H265826   0.344   9.387   0.364
21862WAT      O65827   4.427   7.141   9.580
21862WAT     H165828   4.339   7.172   9.617
21862WAT     H265829   4.482   7.220   9.556
21863WAT      O65830   7.936   3.019   3.695
21863WAT     H165831   8.009   2.953   3.676
21863WAT     H265832   7.853   2.970   3.721
21864WAT      O65833   8.699   3.875   4.939
21864WAT     H165834   8.676   3.967   4.972
21864WAT     H265835   8.734   3.820   5.015
21865WAT      O65836   6.203   1.368   0.733
21865WAT     H165837   6.253   1.297   0.684
21865WAT     H265838   6.219   1.360   0.831
21866WAT      O65839   3.218   4.981   1.729
21866WAT     H165840   3.213   4.898   1.784
21866WAT     H265841   3.308   5.023   1.738
21867WAT      O65842   4.703   6.470   9.693
21867WAT     H165843   4.756   6.386   9.678
21867WAT     H265844   4.722   6.535   9.620
21868WAT      O65845   6.773   6.528   2.108
21868WAT     H165846   6.750   6.579   2.025
21868WAT     H265847   6.870   6.541   2.129
21869WAT      O65848   3.863   9.562   2.250
21869WAT     H165849   3.852   9.463   2.256
21869WAT     H265850   3.804   9.599   2.179
21870WAT      O65851   8.796   1.606   0.463
21870WAT     H165852   8.759   1.636   0.375
21870WAT     H265853   8.823   1.686   0.517
21871WAT      O65854   4.932   8.480   8.978
21871WAT     H165855   4.987   8.504   8.898
21871WAT     H265856   4.874   8.558   9.004
21872WAT      O65857   0.430   2.788   4.186
21872WAT     H165858   0.431   2.745   4.277
21872WAT     H265859   0.344   2.766   4.140
21873WAT      O65860   4.827   8.962   6.002
21873WAT     H165861   4.780   9.009   6.077
21873WAT     H265862   4.925   8.959   6.021
21874WAT      O65863   9.160   3.781   1.375
21874WAT     H165864   9.151   3.861   1.316
21874WAT     H265865   9.104   3.707   1.338
21875WAT      O65866   6.150   6.260   2.466
21875WAT     H165867   6.231   6.202   2.474
21875WAT     H265868   6.091   6.224   2.394
21876WAT      O65869   8.434   2.167   2.489
21876WAT     H165870   8.494   2.095   2.455
21876WAT     H265871   8.441   2.248   2.430
21877WAT      O65872   8.542   0.960   7.847
21877WAT     H165873   8.515   0.916   7.933
21877WAT     H265874   8.605   0.900   7.798
21878WAT      O65875   9.088   7.324   9.877
21878WAT     H165876   9.097   7.227   9.899
21878WAT     H265877   9.142   7.378   9.942
21879WAT      O65878   0.166   6.977   8.319
21879WAT     H165879   0.131   7.066   8.350
21879WAT     H265880   0.257   6.962   8.357
21880WAT      O65881   1.704   3.421   8.313
21880WAT     H165882   1.743   3.329   8.316
21880WAT     H265883   1.663   3.437   8.223
21881WAT      O65884   8.201   9.830   4.606
21881WAT     H165885   8.200   9.788   4.515
21881WAT     H265886   8.232   9.763   4.673
21882WAT      O65887   3.796   5.688   6.868
21882WAT     H165888   3.879   5.632   6.876
21882WAT     H265889   3.807   5.772   6.922
21883WAT      O65890   2.058   4.508   3.315
21883WAT     H165891   2.011   4.576   3.259
21883WAT     H265892   2.052   4.534   3.411
21884WAT      O65893   7.167   9.202   8.214
21884WAT     H165894   7.251   9.253   8.195
21884WAT     H265895   7.171   9.167   8.308
21885WAT      O65896   0.436   4.577   4.243
21885WAT     H165897   0.358   4.570   4.306
21885WAT     H265898   0.521   4.568   4.294
21886WAT      O65899   9.436   8.971   7.216
21886WAT     H165900   9.451   9.069   7.215
21886WAT     H265901   9.508   8.926   7.270
21887WAT      O65902   0.993   5.160   4.207
21887WAT     H165903   1.055   5.234   4.181
21887WAT     H265904   0.902   5.177   4.167
21888WAT      O65905   2.794   3.316   4.362
21888WAT     H165906   2.779   3.405   4.320
21888WAT     H265907   2.850   3.259   4.302
21889WAT      O65908   7.263   4.206   4.577
21889WAT     H165909   7.186   4.266   4.555
21889WAT     H265910   7.349   4.255   4.560
21890WAT      O65911   9.331   3.395   5.769
21890WAT     H165912   9.281   3.324   5.819
21890WAT     H265913   9.377   3.353   5.690
21891WAT      O65914   3.065   3.984   7.361
21891WAT     H165915   3.015   3.922   7.302
21891WAT     H265916   3.156   3.946   7.379
21892WAT      O65917   1.695   5.567   0.451
21892WAT     H165918   1.685   5.641   0.384
21892WAT     H265919   1.792   5.558   0.476
21893WAT      O65920   2.349   6.838   6.135
21893WAT     H165921   2.268   6.835   6.192
21893WAT     H265922   2.327   6.806   6.043
21894WAT      O65923   3.170   4.703   7.559
21894WAT     H165924   3.213   4.740   7.641
21894WAT     H265925   3.074   4.730   7.557
21895WAT      O65926   5.030   1.255   5.493
21895WAT     H165927   5.073   1.165   5.504
21895WAT     H265928   4.948   1.246   5.436
21896WAT      O65929   2.956   2.588   1.660
21896WAT     H165930   2.999   2.621   1.743
21896WAT     H265931   2.899   2.508   1.681
21897WAT      O65932   6.625   0.708   5.312
21897WAT     H165933   6.642   0.620   5.356
21897WAT     H265934   6.559   0.761   5.366
21898WAT      O65935   3.046   8.627   4.971
21898WAT     H165936   3.144   8.628   4.953
21898WAT     H265937   3.012   8.533   4.967
21899WAT      O65938   4.206   6.896   4.879
21899WAT     H165939   4.145   6.827   4.918
21899WAT     H265940   4.193   6.899   4.780
21900WAT      O65941   6.375   6.654   0.423
21900WAT     H165942   6.300   6.588   0.415
21900WAT     H265943   6.452   6.611   0.470
21901WAT      O65944   8.226   2.909   3.360
21901WAT     H165945   8.314   2.917   3.407
21901WAT     H265946   8.195   3.000   3.331
21902WAT      O65947   9.385   1.601   8.357
21902WAT     H165948   9.418   1.525   8.301
21902WAT     H265949   9.393   1.577   8.454
21903WAT      O65950   3.427   9.234   2.987
21903WAT     H165951   3.483   9.210   2.908
21903WAT     H265952   3.479   9.216   3.071
21904WAT      O65953   1.500   4.015   3.737
21904WAT     H165954   1.589   4.058   3.743
21904WAT     H265955   1.475   3.976   3.825
21905WAT      O65956   7.950   4.300   2.171
21905WAT     H165957   7.978   4.343   2.085
21905WAT     H265958   8.005   4.336   2.246
21906WAT      O65959   8.296   7.794   9.447
21906WAT     H165960   8.210   7.823   9.489
21906WAT     H265961   8.353   7.875   9.431
21907WAT      O65962   3.868   5.519   6.119
21907WAT     H165963   3.837   5.483   6.030
21907WAT     H265964   3.931   5.595   6.104
21908WAT      O65965   6.658   1.600   7.315
21908WAT     H165966   6.743   1.573   7.361
21908WAT     H265967   6.584   1.602   7.382
21909WAT      O65968   1.293   8.302   4.705
21909WAT     H165969   1.218   8.250   4.744
21909WAT     H265970   1.351   8.242   4.649
21910WAT      O65971   4.691   3.230   4.651
21910WAT     H165972   4.613   3.193   4.703
21910WAT     H265973   4.775   3.215   4.702
21911WAT      O65974   5.878   9.466   1.121
21911WAT     H165975   5.957   9.436   1.174
21911WAT     H265976   5.796   9.462   1.178
21912WAT      O65977   6.704   0.195   2.169
21912WAT     H165978   6.696   0.219   2.265
21912WAT     H265979   6.613   0.185   2.129
21913WAT      O65980   7.494   3.519   4.116
21913WAT     H165981   7.576   3.511   4.173
21913WAT     H265982   7.521   3.541   4.022
21914WAT      O65983   8.364   6.025   3.020
21914WAT     H165984   8.414   6.001   2.937
21914WAT     H265985   8.384   5.959   3.092
21915WAT      O65986   2.569   8.047   7.784
21915WAT     H165987   2.571   8.077   7.880
21915WAT     H265988   2.548   8.125   7.726
21916WAT      O65989   4.330   5.434   4.346
21916WAT     H165990   4.287   5.366   4.287
21916WAT     H265991   4.427   5.413   4.357
21917WAT      O65992   6.973   9.837   0.510
21917WAT     H165993   7.016   9.764   0.562
21917WAT     H265994   7.032   9.917   0.509
21918WAT      O65995   3.684   1.176   5.733
21918WAT     H165996   3.622   1.254   5.721
21918WAT     H265997   3.757   1.180   5.665
21919WAT      O65998   1.291   9.698   3.421
21919WAT     H165999   1.331   9.655   3.340
21919WAT     H266000   1.307   9.797   3.416
21920WAT      O66001   5.949   4.538   7.955
21920WAT     H166002   5.934   4.442   7.978
21920WAT     H266003   5.861   4.579   7.930
21921WAT      O66004   8.657   4.585   0.285
21921WAT     H166005   8.672   4.510   0.221
21921WAT     H266006   8.559   4.602   0.295
21922WAT      O66007   4.846   4.209   3.751
21922WAT     H166008   4.932   4.211   3.699
21922WAT     H266009   4.809   4.116   3.749
21923WAT      O66010   0.577   7.244   0.414
21923WAT     H166011   0.487   7.274   0.383
21923WAT     H266012   0.579   7.145   0.422
21924WAT      O66013   3.395   5.103   9.077
21924WAT     H166014   3.308   5.076   9.117
21924WAT     H266015   3.399   5.203   9.070
21925WAT      O66016   5.009   6.048   5.815
21925WAT     H166017   4.937   6.104   5.856
21925WAT     H266018   5.094   6.100   5.809
21926WAT      O66019   6.464   7.970   8.751
21926WAT     H166020   6.495   8.030   8.825
21926WAT     H266021   6.516   7.992   8.668
21927WAT      O66022   8.334   1.305   3.329
21927WAT     H166023   8.258   1.286   3.266
21927WAT     H266024   8.319   1.256   3.414
21928WAT      O66025   4.585   5.524   9.127
21928WAT     H166026   4.606   5.593   9.196
21928WAT     H266027   4.487   5.523   9.109
21929WAT      O66028   4.840   4.976   3.858
21929WAT     H166029   4.746   4.962   3.827
21929WAT     H266030   4.868   4.900   3.916
21930WAT      O66031   2.023   8.693   0.219
21930WAT     H166032   2.117   8.720   0.202
21930WAT     H266033   2.012   8.595   0.202
21931WAT      O66034   2.568   2.602   5.263
21931WAT     H166035   2.556   2.521   5.206
21931WAT     H266036   2.646   2.590   5.324
21932WAT      O66037   5.977   9.826   6.680
21932WAT     H166038   5.994   9.924   6.671
21932WAT     H266039   6.029   9.777   6.609
21933WAT      O66040   4.827   2.038   2.411
21933WAT     H166041   4.914   2.042   2.362
21933WAT     H266042   4.837   1.980   2.492
21934WAT      O66043   9.789   5.942   8.707
21934WAT     H166044   9.730   6.023   8.711
21934WAT     H266045   9.883   5.969   8.691
21935WAT      O66046   4.027   5.865   5.687
21935WAT     H166047   4.059   5.828   5.600
21935WAT     H266048   3.945   5.921   5.672
21936WAT      O66049   7.601   3.796   8.714
21936WAT     H166050   7.648   3.758   8.794
21936WAT     H266051   7.504   3.771   8.717
21937WAT      O66052   3.145   2.626   7.716
21937WAT     H166053   3.080   2.699   7.738
21937WAT     H266054   3.098   2.538   7.717
21938WAT      O66055   8.975   9.545   0.066
21938WAT     H166056   8.969   9.616   0.136
21938WAT     H266057   8.955   9.584  -0.024
21939WAT      O66058   3.068   3.585   0.690
21939WAT     H166059   3.005   3.662   0.701
21939WAT     H266060   3.018   3.505   0.660
21940WAT      O66061   8.659   5.590   6.889
21940WAT     H166062   8.714   5.665   6.852
21940WAT     H266063   8.569   5.591   6.846
21941WAT      O66064   5.996   2.647   4.909
21941WAT     H166065   6.011   2.719   4.841
21941WAT     H266066   6.047   2.668   4.992
21942WAT      O66067   0.312   8.400   8.272
21942WAT     H166068   0.310   8.488   8.321
21942WAT     H266069   0.219   8.368   8.257
21943WAT      O66070   6.958   1.428   9.865
21943WAT     H166071   6.864   1.414   9.835
21943WAT     H266072   7.010   1.473   9.793
21944WAT      O66073   8.217   3.971   0.588
21944WAT     H166074   8.205   3.931   0.678
21944WAT     H266075   8.314   3.993   0.573
21945WAT      O66076   9.030   1.315   0.695
21945WAT     H166077   9.116   1.265   0.703
21945WAT     H266078   8.998   1.312   0.600
21946WAT      O66079   0.851   6.830   3.156
21946WAT     H166080   0.769   6.796   3.203
21946WAT     H266081   0.889   6.759   3.098
21947WAT      O66082   5.111   4.297   1.517
21947WAT     H166083   5.201   4.318   1.480
21947WAT     H266084   5.069   4.381   1.552
21948WAT      O66085   2.751   1.830   9.262
21948WAT     H166086   2.744   1.922   9.300
21948WAT     H266087   2.827   1.825   9.198
21949WAT      O66088   4.761   2.501   9.817
21949WAT     H166089   4.661   2.502   9.819
21949WAT     H266090   4.797   2.517   9.909
21950WAT      O66091   6.484   9.557   9.432
21950WAT     H166092   6.506   9.526   9.339
21950WAT     H266093   6.386   9.546   9.449
21951WAT      O66094   7.276   7.150   9.049
21951WAT     H166095   7.343   7.085   9.013
21951WAT     H266096   7.184   7.110   9.040
21952WAT      O66097   0.069   1.207   3.919
21952WAT     H166098   0.030   1.289   3.879
21952WAT     H266099   0.120   1.156   3.849
21953WAT      O66100   7.838   8.958   3.004
21953WAT     H166101   7.774   9.022   2.962
21953WAT     H266102   7.826   8.867   2.964
21954WAT      O66103   9.442   9.777   6.000
21954WAT     H166104   9.521   9.716   6.012
21954WAT     H266105   9.387   9.744   5.923
21955WAT      O66106   0.510   4.086   4.706
21955WAT     H166107   0.412   4.101   4.719
21955WAT     H266108   0.547   4.035   4.783
21956WAT      O66109   5.738   6.834   1.822
21956WAT     H166110   5.743   6.758   1.757
21956WAT     H266111   5.798   6.908   1.792
21957WAT      O66112   8.746   3.417   0.493
21957WAT     H166113   8.762   3.442   0.589
21957WAT     H266114   8.665   3.464   0.459
21958WAT      O66115   0.584   6.870   9.452
21958WAT     H166116   0.588   6.968   9.467
21958WAT     H266117   0.647   6.844   9.379
21959WAT      O66118   9.869   9.523   1.211
21959WAT     H166119   9.942   9.533   1.143
21959WAT     H266120   9.781   9.515   1.163
21960WAT      O66121   7.573   7.828   2.858
21960WAT     H166122   7.548   7.735   2.883
21960WAT     H266123   7.583   7.883   2.941
21961WAT      O66124   0.819   4.671   6.883
21961WAT     H166125   0.782   4.756   6.920
21961WAT     H266126   0.756   4.633   6.816
21962WAT      O66127   8.888   0.150   9.690
21962WAT     H166128   8.879   0.178   9.785
21962WAT     H266129   8.798   0.152   9.646
21963WAT      O66130   9.545   2.465   1.430
21963WAT     H166131   9.556   2.483   1.333
21963WAT     H266132   9.634   2.470   1.476
21964WAT      O66133   8.546   0.187   8.346
21964WAT     H166134   8.490   0.262   8.312
21964WAT     H266135   8.628   0.178   8.289
21965WAT      O66136   7.252   6.138   6.427
21965WAT     H166137   7.233   6.056   6.373
21965WAT     H266138   7.213   6.218   6.381
21966WAT      O66139   2.494   7.382   7.570
21966WAT     H166140   2.489   7.427   7.481
21966WAT     H266141   2.585   7.394   7.609
21967WAT      O66142   5.159   7.615   6.789
21967WAT     H166143   5.082   7.678   6.802
21967WAT     H266144   5.138   7.551   6.715
21968WAT      O66145   1.494   3.561   0.667
21968WAT     H166146   1.594   3.565   0.661
21968WAT     H266147   1.459   3.509   0.589
21969WAT      O66148   6.358   7.615   2.729
21969WAT     H166149   6.447   7.592   2.769
21969WAT     H266150   6.352   7.714   2.715
21970WAT      O66151   3.486   5.668   5.367
21970WAT     H166152   3.389   5.649   5.351
21970WAT     H266153   3.536   5.660   5.280
21971WAT      O66154   2.552   1.530   0.944
21971WAT     H166155   2.610   1.600   0.986
21971WAT     H266156   2.608   1.451   0.919
21972WAT      O66157   8.989   8.401   4.783
21972WAT     H166158   8.926   8.478   4.782
21972WAT     H266159   8.963   8.337   4.855
21973WAT      O66160   4.811   7.267   3.311
21973WAT     H166161   4.846   7.316   3.390
21973WAT     H266162   4.852   7.176   3.308
21974WAT      O66163   0.369   3.132   5.542
21974WAT     H166164   0.363   3.221   5.587
21974WAT     H266165   0.335   3.061   5.603
21975WAT      O66166   5.940   9.252   4.580
21975WAT     H166167   5.911   9.326   4.641
21975WAT     H266168   5.915   9.164   4.620
21976WAT      O66169   4.788   2.728   2.413
21976WAT     H166170   4.721   2.663   2.379
21976WAT     H266171   4.746   2.788   2.482
21977WAT      O66172   5.814   6.312   7.438
21977WAT     H166173   5.867   6.384   7.483
21977WAT     H266174   5.764   6.258   7.506
21978WAT      O66175   8.521   7.479   4.149
21978WAT     H166176   8.575   7.523   4.221
21978WAT     H266177   8.583   7.441   4.080
21979WAT      O66178   2.849   3.923   8.651
21979WAT     H166179   2.794   3.991   8.699
21979WAT     H266180   2.833   3.931   8.552
21980WAT      O66181   2.108   3.910   7.729
21980WAT     H166182   2.067   3.996   7.757
21980WAT     H266183   2.079   3.887   7.636
21981WAT      O66184   6.705   2.290   2.888
21981WAT     H166185   6.779   2.325   2.945
21981WAT     H266186   6.631   2.358   2.885
21982WAT      O66187   9.550   7.144   9.176
21982WAT     H166188   9.488   7.143   9.097
21982WAT     H266189   9.596   7.232   9.181
21983WAT      O66190   2.069   8.387   9.649
21983WAT     H166191   2.054   8.473   9.698
21983WAT     H266192   2.161   8.386   9.611
21984WAT      O66193   5.208   4.517   6.414
21984WAT     H166194   5.269   4.596   6.408
21984WAT     H266195   5.229   4.463   6.495
21985WAT      O66196   5.407   2.976   2.231
21985WAT     H166197   5.477   2.964   2.161
21985WAT     H266198   5.334   2.909   2.217
21986WAT      O66199   5.683   5.470   3.363
21986WAT     H166200   5.614   5.400   3.382
21986WAT     H266201   5.772   5.440   3.397
21987WAT      O66202   3.603   6.316   4.424
21987WAT     H166203   3.518   6.306   4.475
21987WAT     H266204   3.631   6.412   4.425
21988WAT      O66205   3.013   6.990   0.440
21988WAT     H166206   2.943   6.941   0.492
21988WAT     H266207   2.995   6.978   0.342
21989WAT      O66208   9.623   3.903   8.834
21989WAT     H166209   9.661   3.974   8.775
21989WAT     H266210   9.565   3.944   8.904
21990WAT      O66211   4.274   0.115   8.041
21990WAT     H166212   4.185   0.070   8.039
21990WAT     H266213   4.283   0.167   8.126
21991WAT      O66214   5.450   2.030   5.038
21991WAT     H166215   5.442   1.989   5.129
21991WAT     H266216   5.513   2.107   5.041
21992WAT      O66217   8.450   6.583   8.392
21992WAT     H166218   8.505   6.594   8.309
21992WAT     H266219   8.467   6.492   8.431
21993WAT      O66220   2.429   4.628   6.384
21993WAT     H166221   2.364   4.703   6.393
21993WAT     H266222   2.464   4.603   6.474
21994WAT      O66223   9.066   3.824   6.271
21994WAT     H166224   8.975   3.820   6.312
21994WAT     H266225   9.078   3.746   6.210
21995WAT      O66226   0.398   0.874   5.286
21995WAT     H166227   0.314   0.903   5.241
21995WAT     H266228   0.433   0.947   5.344
21996WAT      O66229   8.881   9.264   3.967
21996WAT     H166230   8.977   9.268   3.996
21996WAT     H266231   8.857   9.169   3.945
21997WAT      O66232   4.962   3.048   0.101
21997WAT     H166233   4.888   3.032   0.035
21997WAT     H266234   5.008   3.134   0.079
21998WAT      O66235   8.654   7.060   2.803
21998WAT     H166236   8.742   7.107   2.809
21998WAT     H266237   8.642   7.000   2.882
21999WAT      O66238   8.782   8.048   1.383
21999WAT     H166239   8.755   8.140   1.412
21999WAT     H266240   8.713   8.012   1.321
22000WAT      O66241   8.818   7.818   3.908
22000WAT     H166242   8.855   7.728   3.883
22000WAT     H266243   8.724   7.808   3.940
22001WAT      O66244   0.041   4.232   1.231
22001WAT     H166245   0.128   4.280   1.229
22001WAT     H266246   0.044   4.155   1.166
22002WAT      O66247   6.681   1.023   0.100
22002WAT     H166248   6.769   1.068   0.114
22002WAT     H266249   6.639   1.002   0.189
22003WAT      O66250   5.863   0.847   1.604
22003WAT     H166251   5.834   0.925   1.660
22003WAT     H266252   5.932   0.877   1.538
22004WAT      O66253   0.219   0.743   7.038
22004WAT     H166254   0.159   0.783   7.107
22004WAT     H266255   0.212   0.794   6.953
22005WAT      O66256   8.599   6.806   1.116
22005WAT     H166257   8.533   6.844   1.051
22005WAT     H266258   8.642   6.880   1.168
22006WAT      O66259   2.397   8.385   1.332
22006WAT     H166260   2.458   8.314   1.297
22006WAT     H266261   2.451   8.456   1.376
22007WAT      O66262   9.869   3.834   4.335
22007WAT     H166263   9.897   3.899   4.264
22007WAT     H266264   9.777   3.801   4.315
22008WAT      O66265   4.025   4.321   9.748
22008WAT     H166266   3.974   4.324   9.834
22008WAT     H266267   4.115   4.362   9.761
22009WAT      O66268   9.348   6.495   9.311
22009WAT     H166269   9.300   6.463   9.393
22009WAT     H266270   9.433   6.445   9.300
22010WAT      O66271   1.470   0.391   0.007
22010WAT     H166272   1.507   0.407  -0.084
22010WAT     H266273   1.403   0.462   0.029
22011WAT      O66274   0.080   4.230   0.264
22011WAT     H166275   0.015   4.171   0.314
22011WAT     H266276   0.117   4.299   0.326
22012WAT      O66277   9.655   5.430   1.001
22012WAT     H166278   9.642   5.523   1.035
22012WAT     H266279   9.588   5.412   0.928
22013WAT      O66280   7.350   0.412   4.090
22013WAT     H166281   7.268   0.360   4.065
22013WAT     H266282   7.333   0.461   4.176
22014WAT      O66283   9.569   6.819   8.534
22014WAT     H166284   9.563   6.838   8.632
22014WAT     H266285   9.491   6.763   8.505
22015WAT      O66286   7.683   0.858   2.081
22015WAT     H166287   7.733   0.886   1.999
22015WAT     H266288   7.713   0.913   2.159
22016WAT      O66289   2.379   0.940   0.777
22016WAT     H166290   2.437   1.017   0.804
22016WAT     H266291   2.405   0.908   0.686
22017WAT      O66292   9.754   7.398   2.895
22017WAT     H166293   9.839   7.449   2.903
22017WAT     H266294   9.705   7.428   2.813
22018WAT      O66295   2.137   3.968   9.664
22018WAT     H166296   2.044   3.987   9.698
22018WAT     H266297   2.197   4.045   9.686
22019WAT      O66298   7.177   3.077   7.303
22019WAT     H166299   7.155   3.174   7.298
22019WAT     H266300   7.147   3.032   7.219
22020WAT      O66301   8.552   6.589   9.725
22020WAT     H166302   8.553   6.646   9.643
22020WAT     H266303   8.474   6.527   9.722
22021WAT      O66304   7.179   0.828   4.707
22021WAT     H166305   7.214   0.921   4.721
22021WAT     H266306   7.220   0.767   4.775
22022WAT      O66307   4.951   1.805   6.801
22022WAT     H166308   5.007   1.806   6.884
22022WAT     H266309   4.933   1.711   6.773
22023WAT      O66310   0.820   2.677   0.097
22023WAT     H166311   0.783   2.769   0.103
22023WAT     H266312   0.920   2.680   0.102
22024WAT      O66313   1.876   8.711   1.182
22024WAT     H166314   1.931   8.683   1.261
22024WAT     H266315   1.871   8.810   1.179
22025WAT      O66316   6.690   6.360   5.744
22025WAT     H166317   6.781   6.342   5.780
22025WAT     H266318   6.630   6.282   5.765
22026WAT      O66319   3.372   5.316   8.128
22026WAT     H166320   3.356   5.408   8.093
22026WAT     H266321   3.380   5.251   8.052
22027WAT      O66322   7.270   3.290   1.421
22027WAT     H166323   7.265   3.216   1.489
22027WAT     H266324   7.241   3.376   1.462
22028WAT      O66325   9.690   6.791   7.259
22028WAT     H166326   9.595   6.763   7.243
22028WAT     H266327   9.719   6.762   7.350
22029WAT      O66328   8.098   5.544   5.721
22029WAT     H166329   8.141   5.461   5.756
22029WAT     H266330   7.999   5.535   5.724
22030WAT      O66331   1.771   7.263   9.671
22030WAT     H166332   1.868   7.240   9.671
22030WAT     H266333   1.730   7.233   9.585
22031WAT      O66334   9.557   2.835   0.156
22031WAT     H166335   9.533   2.810   0.250
22031WAT     H266336   9.473   2.851   0.104
22032WAT      O66337   8.487   1.420   0.500
22032WAT     H166338   8.515   1.484   0.571
22032WAT     H266339   8.434   1.346   0.540
22033WAT      O66340   8.240   3.791   9.154
22033WAT     H166341   8.277   3.702   9.125
22033WAT     H266342   8.184   3.829   9.081
22034WAT      O66343   1.038   8.078   3.190
22034WAT     H166344   1.102   8.154   3.202
22034WAT     H266345   0.996   8.084   3.099
22035WAT      O66346   1.327   7.357   2.929
22035WAT     H166347   1.272   7.327   3.007
22035WAT     H266348   1.411   7.302   2.925
22036WAT      O66349   6.426   3.843   1.933
22036WAT     H166350   6.367   3.881   2.004
22036WAT     H266351   6.426   3.903   1.853
22037WAT      O66352   8.168   6.977   5.296
22037WAT     H166353   8.219   7.020   5.222
22037WAT     H266354   8.194   7.018   5.384
22038WAT      O66355   1.278   6.049   8.221
22038WAT     H166356   1.313   5.957   8.238
22038WAT     H266357   1.186   6.043   8.181
22039WAT      O66358   0.019   4.038   0.077
22039WAT     H166359   0.098   4.030   0.016
22039WAT     H266360   0.039   4.104   0.149
22040WAT      O66361   7.287   7.062   5.749
22040WAT     H166362   7.385   7.082   5.744
22040WAT     H266363   7.258   7.017   5.665
22041WAT      O66364   0.301   8.794   9.343
22041WAT     H166365   0.245   8.866   9.383
22041WAT     H266366   0.283   8.707   9.390
22042WAT      O66367   0.682   3.545   3.674
22042WAT     H166368   0.687   3.524   3.577
22042WAT     H266369   0.764   3.511   3.720
22043WAT      O66370   3.029   3.266   0.833
22043WAT     H166371   2.979   3.315   0.762
22043WAT     H266372   3.101   3.324   0.870
22044WAT      O66373   3.187   7.638   0.739
22044WAT     H166374   3.278   7.678   0.730
22044WAT     H266375   3.118   7.708   0.724
22045WAT      O66376   0.602   3.420   6.721
22045WAT     H166377   0.585   3.325   6.746
22045WAT     H266378   0.549   3.480   6.781
22046WAT      O66379   6.219   1.358   6.754
22046WAT     H166380   6.221   1.281   6.817
22046WAT     H266381   6.200   1.325   6.661
22047WAT      O66382   3.338   9.735   4.329
22047WAT     H166383   3.301   9.710   4.418
22047WAT     H266384   3.438   9.733   4.333
22048WAT      O66385   1.566   9.051   5.592
22048WAT     H166386   1.593   9.111   5.516
22048WAT     H266387   1.484   8.999   5.566
22049WAT      O66388   0.967   9.665   4.921
22049WAT     H166389   0.919   9.577   4.931
22049WAT     H266390   0.939   9.708   4.836
22050WAT      O66391   0.429   1.903   1.716
22050WAT     H166392   0.345   1.950   1.688
22050WAT     H266393   0.508   1.946   1.672
22051WAT      O66394   5.059   4.756   9.085
22051WAT     H166395   4.975   4.741   9.032
22051WAT     H266396   5.037   4.752   9.183
22052WAT      O66397   9.383   7.186   6.748
22052WAT     H166398   9.305   7.231   6.705
22052WAT     H266399   9.462   7.248   6.748
22053WAT      O66400   8.970   7.590   6.326
22053WAT     H166401   9.005   7.545   6.244
22053WAT     H266402   8.877   7.557   6.346
22054WAT      O66403   7.579   7.415   2.852
22054WAT     H166404   7.597   7.481   2.924
22054WAT     H266405   7.593   7.459   2.763
22055WAT      O66406   5.869   5.004   6.569
22055WAT     H166407   5.865   5.103   6.558
22055WAT     H266408   5.912   4.963   6.489
22056WAT      O66409   4.273   9.628   2.508
22056WAT     H166410   4.319   9.600   2.592
22056WAT     H266411   4.298   9.566   2.434
22057WAT      O66412   0.968   6.137   6.204
22057WAT     H166413   1.063   6.167   6.194
22057WAT     H266414   0.909   6.197   6.150
22058WAT      O66415   4.378   1.145   1.816
22058WAT     H166416   4.338   1.136   1.907
22058WAT     H266417   4.477   1.158   1.823
22059WAT      O66418   8.716   9.690   2.039
22059WAT     H166419   8.682   9.778   2.007
22059WAT     H266420   8.814   9.696   2.055
22060WAT      O66421   1.091   8.665   6.296
22060WAT     H166422   1.182   8.705   6.308
22060WAT     H266423   1.036   8.726   6.238
22061WAT      O66424   5.579   9.342   4.477
22061WAT     H166425   5.533   9.418   4.431
22061WAT     H266426   5.676   9.343   4.454
22062WAT      O66427   4.075   8.072   3.110
22062WAT     H166428   4.028   7.984   3.095
22062WAT     H266429   4.169   8.065   3.078
22063WAT      O66430   0.804   6.347   6.537
22063WAT     H166431   0.773   6.365   6.630
22063WAT     H266432   0.841   6.254   6.531
22064WAT      O66433   3.481   1.104   6.505
22064WAT     H166434   3.540   1.024   6.493
22064WAT     H266435   3.535   1.181   6.539
22065WAT      O66436   2.677   3.517   6.884
22065WAT     H166437   2.704   3.565   6.800
22065WAT     H266438   2.714   3.424   6.883
22066WAT      O66439   1.949   5.288   4.516
22066WAT     H166440   1.926   5.200   4.474
22066WAT     H266441   2.037   5.281   4.564
22067WAT      O66442   6.376   4.383   5.421
22067WAT     H166443   6.425   4.416   5.341
22067WAT     H266444   6.400   4.439   5.500
22068WAT      O66445   6.144   9.171   9.166
22068WAT     H166446   6.098   9.163   9.078
22068WAT     H266447   6.182   9.263   9.177
22069WAT      O66448   2.270   8.939   8.394
22069WAT     H166449   2.336   8.890   8.337
22069WAT     H266450   2.232   8.877   8.462
22070WAT      O66451   9.224   0.195   2.001
22070WAT     H166452   9.269   0.224   2.085
22070WAT     H266453   9.289   0.146   1.943
22071WAT      O66454   7.049   6.978   7.105
22071WAT     H166455   7.119   7.027   7.052
22071WAT     H266456   7.028   6.891   7.059
22072WAT      O66457   3.176   3.479   0.921
22072WAT     H166458   3.275   3.489   0.913
22072WAT     H266459   3.130   3.541   0.858
22073WAT      O66460   3.537   8.179   8.619
22073WAT     H166461   3.485   8.168   8.703
22073WAT     H266462   3.475   8.181   8.541
22074WAT      O66463   2.105   8.833   2.491
22074WAT     H166464   2.149   8.923   2.489
22074WAT     H266465   2.131   8.785   2.575
22075WAT      O66466   4.941   7.797   4.207
22075WAT     H166467   4.979   7.889   4.213
22075WAT     H266468   4.976   7.751   4.126
22076WAT      O66469   9.445   2.281   9.342
22076WAT     H166470   9.428   2.343   9.418
22076WAT     H266471   9.477   2.333   9.263
22077WAT      O66472   0.797   8.483   8.369
22077WAT     H166473   0.871   8.418   8.377
22077WAT     H266474   0.768   8.512   8.460
22078WAT      O66475   7.251   2.483   6.915
22078WAT     H166476   7.212   2.393   6.936
22078WAT     H266477   7.333   2.472   6.860
22079WAT      O66478   4.178   9.647   6.949
22079WAT     H166479   4.200   9.678   6.856
22079WAT     H266480   4.238   9.570   6.974
22080WAT      O66481   2.582   0.503   0.058
22080WAT     H166482   2.640   0.579   0.090
22080WAT     H266483   2.536   0.531  -0.026
22081WAT      O66484   5.857   8.084   5.894
22081WAT     H166485   5.830   8.179   5.884
22081WAT     H266486   5.955   8.079   5.914
22082WAT      O66487   4.480   4.115   1.477
22082WAT     H166488   4.579   4.128   1.465
22082WAT     H266489   4.456   4.133   1.573
22083WAT      O66490   2.143   3.372   7.378
22083WAT     H166491   2.147   3.275   7.404
22083WAT     H266492   2.172   3.428   7.455
22084WAT      O66493   8.812   0.754   8.049
22084WAT     H166494   8.836   0.826   8.115
22084WAT     H266495   8.841   0.666   8.085
22085WAT      O66496   4.416   2.559   2.113
22085WAT     H166497   4.469   2.500   2.051
22085WAT     H266498   4.352   2.502   2.165
22086WAT      O66499   4.465   6.308   3.296
22086WAT     H166500   4.492   6.389   3.245
22086WAT     H266501   4.366   6.297   3.292
22087WAT      O66502   6.258   8.850   4.765
22087WAT     H166503   6.306   8.795   4.833
22087WAT     H266504   6.258   8.946   4.794
22088WAT      O66505   4.244   9.245   3.634
22088WAT     H166506   4.225   9.338   3.603
22088WAT     H266507   4.245   9.183   3.556
22089WAT      O66508   5.969   2.615   8.180
22089WAT     H166509   5.908   2.643   8.106
22089WAT     H266510   5.950   2.671   8.261
22090WAT      O66511   2.793   5.644   9.050
22090WAT     H166512   2.829   5.733   9.078
22090WAT     H266513   2.799   5.635   8.950
22091WAT      O66514   4.276   5.823   1.699
22091WAT     H166515   4.351   5.838   1.634
22091WAT     H266516   4.233   5.911   1.720
22092WAT      O66517   7.349   8.914   8.234
22092WAT     H166518   7.425   8.979   8.241
22092WAT     H266519   7.379   8.825   8.268
22093WAT      O66520   6.091   3.089   9.651
22093WAT     H166521   6.018   3.154   9.630
22093WAT     H266522   6.172   3.111   9.597
22094WAT      O66523   6.334   8.372   1.651
22094WAT     H166524   6.403   8.353   1.721
22094WAT     H266525   6.359   8.455   1.601
22095WAT      O66526   6.500   2.881   2.224
22095WAT     H166527   6.526   2.832   2.141
22095WAT     H266528   6.421   2.939   2.205
22096WAT      O66529   1.768   0.397   8.152
22096WAT     H166530   1.686   0.413   8.097
22096WAT     H266531   1.794   0.301   8.146
22097WAT      O66532   8.434   8.356   4.648
22097WAT     H166533   8.361   8.396   4.704
22097WAT     H266534   8.393   8.306   4.571
22098WAT      O66535   7.446   5.965   5.001
22098WAT     H166536   7.462   6.022   4.920
22098WAT     H266537   7.390   6.015   5.067
22099WAT      O66538   4.664   2.783   5.573
22099WAT     H166539   4.761   2.806   5.562
22099WAT     H266540   4.635   2.804   5.666
22100WAT      O66541   2.172   5.605   6.169
22100WAT     H166542   2.162   5.682   6.232
22100WAT     H266543   2.098   5.607   6.102
22101WAT      O66544   4.316   0.553   7.003
22101WAT     H166545   4.402   0.504   6.993
22101WAT     H266546   4.251   0.497   7.054
22102WAT      O66547   4.675   4.116   4.812
22102WAT     H166548   4.763   4.123   4.766
22102WAT     H266549   4.689   4.117   4.911
22103WAT      O66550   8.564   5.711   5.207
22103WAT     H166551   8.562   5.616   5.176
22103WAT     H266552   8.496   5.724   5.279
22104WAT      O66553   2.422   6.625   4.783
22104WAT     H166554   2.444   6.533   4.750
22104WAT     H266555   2.395   6.682   4.706
22105WAT      O66556   2.948   0.390   4.361
22105WAT     H166557   3.011   0.418   4.289
22105WAT     H266558   2.868   0.347   4.319
22106WAT      O66559   8.088   8.578   2.017
22106WAT     H166560   8.002   8.551   2.061
22106WAT     H266561   8.109   8.513   1.943
22107WAT      O66562   8.554   0.855   9.535
22107WAT     H166563   8.604   0.862   9.449
22107WAT     H266564   8.606   0.900   9.608
22108WAT      O66565   0.554   1.127   6.001
22108WAT     H166566   0.601   1.150   6.086
22108WAT     H266567   0.582   1.036   5.971
22109WAT      O66568   9.226   4.789   5.665
22109WAT     H166569   9.173   4.706   5.677
22109WAT     H266570   9.181   4.865   5.712
22110WAT      O66571   9.370   8.016   7.539
22110WAT     H166572   9.292   8.077   7.551
22110WAT     H266573   9.340   7.931   7.495
22111WAT      O66574   8.567   6.875   8.392
22111WAT     H166575   8.521   6.792   8.423
22111WAT     H266576   8.532   6.901   8.302
22112WAT      O66577   0.192   0.318   4.402
22112WAT     H166578   0.125   0.246   4.387
22112WAT     H266579   0.168   0.369   4.485
22113WAT      O66580   4.121   0.950   5.937
22113WAT     H166581   4.197   0.960   6.001
22113WAT     H266582   4.068   0.868   5.960
22114WAT      O66583   5.270   3.230   3.009
22114WAT     H166584   5.171   3.220   3.025
22114WAT     H266585   5.316   3.238   3.097
22115WAT      O66586   7.960   4.915   7.829
22115WAT     H166587   8.053   4.952   7.834
22115WAT     H266588   7.937   4.871   7.915
22116WAT      O66589   4.969   7.779   5.753
22116WAT     H166590   4.985   7.870   5.715
22116WAT     H266591   5.055   7.743   5.791
22117WAT      O66592   2.661   7.346   8.689
22117WAT     H166593   2.738   7.405   8.712
22117WAT     H266594   2.672   7.313   8.595
22118WAT      O66595   6.460   3.681   4.380
22118WAT     H166596   6.517   3.629   4.444
22118WAT     H266597   6.386   3.622   4.347
22119WAT      O66598   3.780   9.820   2.697
22119WAT     H166599   3.734   9.890   2.752
22119WAT     H266600   3.857   9.783   2.748
22120WAT      O66601   1.178   7.317   1.886
22120WAT     H166602   1.257   7.279   1.838
22120WAT     H266603   1.204   7.402   1.931
22121WAT      O66604   6.870   2.294   7.872
22121WAT     H166605   6.922   2.376   7.899
22121WAT     H266606   6.795   2.321   7.812
22122WAT      O66607   6.098   1.075   4.009
22122WAT     H166608   6.066   1.017   3.935
22122WAT     H266609   6.198   1.079   4.006
22123WAT      O66610   8.346   3.506   4.815
22123WAT     H166611   8.367   3.467   4.905
22123WAT     H266612   8.389   3.596   4.807
22124WAT      O66613   9.843   1.293   8.304
22124WAT     H166614   9.765   1.251   8.258
22124WAT     H266615   9.925   1.279   8.250
22125WAT      O66616   6.800   0.565   7.851
22125WAT     H166617   6.888   0.611   7.839
22125WAT     H266618   6.770   0.526   7.764
22126WAT      O66619   8.357   5.207   9.432
22126WAT     H166620   8.407   5.124   9.457
22126WAT     H266621   8.275   5.182   9.380
22127WAT      O66622   1.725   0.685   0.056
22127WAT     H166623   1.761   0.594   0.076
22127WAT     H266624   1.638   0.699   0.103
22128WAT      O66625   5.805   6.048   2.795
22128WAT     H166626   5.720   6.042   2.846
22128WAT     H266627   5.879   6.076   2.856
22129WAT      O66628   0.979   2.790   6.297
22129WAT     H166629   0.929   2.809   6.381
22129WAT     H266630   0.947   2.852   6.224
22130WAT      O66631   6.561   4.926   6.319
22130WAT     H166632   6.530   4.941   6.225
22130WAT     H266633   6.531   5.002   6.377
22131WAT      O66634   2.364   2.380   8.626
22131WAT     H166635   2.282   2.431   8.601
22131WAT     H266636   2.417   2.360   8.544
22132WAT      O66637   5.088   3.221   4.101
22132WAT     H166638   5.063   3.318   4.099
22132WAT     H266639   5.016   3.167   4.058
22133WAT      O66640   1.464   1.203   7.095
22133WAT     H166641   1.380   1.249   7.123
22133WAT     H266642   1.534   1.215   7.165
22134WAT      O66643   9.210   1.232   4.979
22134WAT     H166644   9.138   1.182   4.931
22134WAT     H266645   9.170   1.311   5.025
22135WAT      O66646   8.135   1.620   2.935
22135WAT     H166647   8.209   1.592   2.996
22135WAT     H266648   8.061   1.552   2.940
22136WAT      O66649   3.653   7.237   4.137
22136WAT     H166650   3.656   7.153   4.190
22136WAT     H266651   3.661   7.216   4.039
22137WAT      O66652   6.712   4.918   1.955
22137WAT     H166653   6.692   4.823   1.979
22137WAT     H266654   6.711   4.975   2.037
22138WAT      O66655   1.589   3.969   9.877
22138WAT     H166656   1.543   3.904   9.938
22138WAT     H266657   1.531   3.988   9.798
22139WAT      O66658   1.947   3.588   8.176
22139WAT     H166659   1.938   3.630   8.267
22139WAT     H266660   2.034   3.614   8.136
22140WAT      O66661   1.969   6.095   5.825
22140WAT     H166662   1.917   6.010   5.827
22140WAT     H266663   1.925   6.162   5.884
22141WAT      O66664   8.213   5.419   8.894
22141WAT     H166665   8.311   5.409   8.912
22141WAT     H266666   8.177   5.495   8.948
22142WAT      O66667   8.533   3.576   0.981
22142WAT     H166668   8.514   3.604   0.887
22142WAT     H266669   8.520   3.477   0.990
22143WAT      O66670   9.723   9.303   7.442
22143WAT     H166671   9.673   9.322   7.357
22143WAT     H266672   9.671   9.338   7.520
22144WAT      O66673   8.517   2.536   0.600
22144WAT     H166674   8.557   2.510   0.688
22144WAT     H266675   8.430   2.487   0.588
22145WAT      O66676   5.911   1.398   5.602
22145WAT     H166677   5.911   1.315   5.546
22145WAT     H266678   5.998   1.405   5.651
22146WAT      O66679   9.468   3.360   7.245
22146WAT     H166680   9.477   3.289   7.174
22146WAT     H266681   9.558   3.382   7.281
22147WAT      O66682   8.798   3.994   5.174
22147WAT     H166683   8.890   3.964   5.150
22147WAT     H266684   8.802   4.089   5.207
22148WAT      O66685   0.338   0.553   4.050
22148WAT     H166686   0.285   0.541   3.966
22148WAT     H266687   0.282   0.598   4.119
22149WAT      O66688   8.832   0.971   2.210
22149WAT     H166689   8.914   0.917   2.194
22149WAT     H266690   8.771   0.923   2.273
22150WAT      O66691   8.571   8.270   2.454
22150WAT     H166692   8.670   8.261   2.466
22150WAT     H266693   8.524   8.223   2.529
22151WAT      O66694   3.995   2.176   9.778
22151WAT     H166695   4.017   2.184   9.680
22151WAT     H266696   4.021   2.086   9.811
22152WAT      O66697   6.706   5.498   2.223
22152WAT     H166698   6.729   5.551   2.141
22152WAT     H266699   6.656   5.416   2.196
22153WAT      O66700   3.679   6.392   5.780
22153WAT     H166701   3.634   6.434   5.859
22153WAT     H266702   3.746   6.455   5.741
22154WAT      O66703   2.222   8.884   3.263
22154WAT     H166704   2.191   8.916   3.173
22154WAT     H266705   2.230   8.784   3.261
22155WAT      O66706   6.704   5.277   1.920
22155WAT     H166707   6.801   5.254   1.908
22155WAT     H266708   6.649   5.220   1.858
22156WAT      O66709   1.670   7.853   7.104
22156WAT     H166710   1.739   7.894   7.164
22156WAT     H266711   1.688   7.878   7.009
22157WAT      O66712   8.742   7.154   0.144
22157WAT     H166713   8.727   7.092   0.067
22157WAT     H266714   8.838   7.181   0.147
22158WAT      O66715   3.800   7.560   7.777
22158WAT     H166716   3.827   7.581   7.871
22158WAT     H266717   3.866   7.600   7.713
22159WAT      O66718   7.217   0.160   5.027
22159WAT     H166719   7.180   0.148   4.935
22159WAT     H266720   7.201   0.254   5.057
22160WAT      O66721   6.187   9.669   9.829
22160WAT     H166722   6.125   9.601   9.868
22160WAT     H266723   6.211   9.736   9.899
22161WAT      O66724   5.179   4.594   0.490
22161WAT     H166725   5.094   4.593   0.542
22161WAT     H266726   5.166   4.545   0.404
22162WAT      O66727   0.755   2.546   9.054
22162WAT     H166728   0.662   2.568   9.023
22162WAT     H266729   0.765   2.447   9.065
22163WAT      O66730   2.057   1.548   6.722
22163WAT     H166731   2.073   1.578   6.628
22163WAT     H266732   2.144   1.548   6.771
22164WAT      O66733   7.976   3.268   0.229
22164WAT     H166734   7.986   3.173   0.199
22164WAT     H266735   7.976   3.271   0.329
22165WAT      O66736   8.881   9.609   5.047
22165WAT     H166737   8.961   9.623   4.988
22165WAT     H266738   8.904   9.638   5.140
22166WAT      O66739   9.248   5.468   7.522
22166WAT     H166740   9.303   5.486   7.604
22166WAT     H266741   9.165   5.419   7.548
22167WAT      O66742   5.990   7.712   5.014
22167WAT     H166743   6.043   7.784   5.059
22167WAT     H266744   6.049   7.658   4.954
22168WAT      O66745   8.134   1.093   2.226
22168WAT     H166746   8.095   1.052   2.308
22168WAT     H266747   8.080   1.064   2.146
22169WAT      O66748   1.965   7.624   9.774
22169WAT     H166749   2.048   7.610   9.720
22169WAT     H266750   1.900   7.678   9.722
22170WAT      O66751   1.428   1.915   5.307
22170WAT     H166752   1.365   1.902   5.230
22170WAT     H266753   1.493   1.988   5.285
22171WAT      O66754   9.436   9.166   4.987
22171WAT     H166755   9.356   9.168   5.046
22171WAT     H266756   9.499   9.239   5.014
22172WAT      O66757   1.163   7.308   2.258
22172WAT     H166758   1.254   7.268   2.244
22172WAT     H266759   1.150   7.385   2.197
22173WAT      O66760   3.845   4.988   7.299
22173WAT     H166761   3.898   5.042   7.234
22173WAT     H266762   3.793   5.050   7.359
22174WAT      O66763   2.264   4.200   4.126
22174WAT     H166764   2.328   4.198   4.202
22174WAT     H266765   2.238   4.294   4.106
22175WAT      O66766   0.492   6.621   0.165
22175WAT     H166767   0.455   6.528   0.170
22175WAT     H266768   0.460   6.665   0.081
22176WAT      O66769   0.979   2.713   9.007
22176WAT     H166770   0.909   2.644   9.026
22176WAT     H266771   0.934   2.799   8.984
22177WAT      O66772   1.400   6.406   7.682
22177WAT     H166773   1.497   6.428   7.685
22177WAT     H266774   1.356   6.459   7.609
22178WAT      O66775   7.070   6.443   0.193
22178WAT     H166776   7.032   6.497   0.119
22178WAT     H266777   7.079   6.500   0.275
22179WAT      O66778   8.495   5.439   8.088
22179WAT     H166779   8.450   5.529   8.092
22179WAT     H266780   8.578   5.442   8.144
22180WAT      O66781   2.848   6.022   9.855
22180WAT     H166782   2.920   6.049   9.792
22180WAT     H266783   2.816   6.103   9.905
22181WAT      O66784   1.984   6.738   3.771
22181WAT     H166785   1.980   6.638   3.768
22181WAT     H266786   2.077   6.768   3.749
22182WAT      O66787   1.482   6.808   4.318
22182WAT     H166788   1.385   6.823   4.299
22182WAT     H266789   1.499   6.819   4.416
22183WAT      O66790   9.678   6.168   8.894
22183WAT     H166791   9.696   6.139   8.988
22183WAT     H266792   9.728   6.253   8.876
22184WAT      O66793   1.629   8.167   3.308
22184WAT     H166794   1.702   8.230   3.280
22184WAT     H266795   1.581   8.204   3.387
22185WAT      O66796   0.391   2.493   8.306
22185WAT     H166797   0.312   2.542   8.342
22185WAT     H266798   0.422   2.536   8.222
22186WAT      O66799   9.231   4.715   6.757
22186WAT     H166800   9.233   4.650   6.681
22186WAT     H266801   9.137   4.726   6.789
22187WAT      O66802   3.330   6.651   7.586
22187WAT     H166803   3.276   6.729   7.555
22187WAT     H266804   3.380   6.676   7.669
22188WAT      O66805   5.864   7.562   9.798
22188WAT     H166806   5.913   7.586   9.714
22188WAT     H266807   5.766   7.556   9.778
22189WAT      O66808   5.635   6.902   8.544
22189WAT     H166809   5.603   6.945   8.629
22189WAT     H266810   5.574   6.928   8.469
22190WAT      O66811   0.556   0.521   1.070
22190WAT     H166812   0.581   0.509   1.166
22190WAT     H266813   0.602   0.452   1.014
22191WAT      O66814   8.137   9.333   2.497
22191WAT     H166815   8.049   9.288   2.490
22191WAT     H266816   8.194   9.307   2.419
22192WAT      O66817   5.756   3.869   3.180
22192WAT     H166818   5.809   3.945   3.141
22192WAT     H266819   5.682   3.845   3.118
22193WAT      O66820   6.847   2.278   1.164
22193WAT     H166821   6.803   2.260   1.075
22193WAT     H266822   6.777   2.307   1.230
22194WAT      O66823   2.303   3.836   2.199
22194WAT     H166824   2.239   3.906   2.230
22194WAT     H266825   2.396   3.871   2.207
22195WAT      O66826   9.882   3.924   2.701
22195WAT     H166827   9.918   3.831   2.707
22195WAT     H266828   9.851   3.941   2.607
22196WAT      O66829   7.835   6.710   2.909
22196WAT     H166830   7.856   6.803   2.880
22196WAT     H266831   7.891   6.646   2.856
22197WAT      O66832   6.995   7.816   3.449
22197WAT     H166833   7.064   7.863   3.393
22197WAT     H266834   7.008   7.840   3.545
22198WAT      O66835   1.178   3.156   0.722
22198WAT     H166836   1.089   3.164   0.677
22198WAT     H266837   1.208   3.247   0.752
22199WAT      O66838   4.110   1.104   3.136
22199WAT     H166839   4.073   1.188   3.174
22199WAT     H266840   4.077   1.025   3.188
22200WAT      O66841   7.392   6.137   2.943
22200WAT     H166842   7.478   6.165   2.985
22200WAT     H266843   7.407   6.113   2.847
22201WAT      O66844   8.820   3.046   0.746
22201WAT     H166845   8.722   3.039   0.726
22201WAT     H266846   8.860   2.954   0.751
22202WAT      O66847   5.786   1.923   7.552
22202WAT     H166848   5.764   1.969   7.467
22202WAT     H266849   5.878   1.883   7.545
22203WAT      O66850   3.276   6.487   0.790
22203WAT     H166851   3.281   6.519   0.885
22203WAT     H266852   3.306   6.392   0.786
22204WAT      O66853   1.871   3.944   9.832
22204WAT     H166854   1.776   3.916   9.848
22204WAT     H266855   1.931   3.865   9.843
22205WAT      O66856   2.173   3.792   8.407
22205WAT     H166857   2.238   3.818   8.479
22205WAT     H266858   2.184   3.852   8.328
22206WAT      O66859   0.882   7.020   0.569
22206WAT     H166860   0.880   6.961   0.649
22206WAT     H266861   0.862   7.115   0.596
22207WAT      O66862   3.419   3.689   4.427
22207WAT     H166863   3.424   3.713   4.330
22207WAT     H266864   3.331   3.718   4.464
22208WAT      O66865   8.111   0.136   8.580
22208WAT     H166866   8.048   0.058   8.580
22208WAT     H266867   8.204   0.103   8.597
22209WAT      O66868   9.137   0.362   5.279
22209WAT     H166869   9.112   0.289   5.215
22209WAT     H266870   9.130   0.450   5.233
22210WAT      O66871   0.605   5.727   1.877
22210WAT     H166872   0.506   5.742   1.878
22210WAT     H266873   0.624   5.629   1.872
22211WAT      O66874   2.199   7.227   3.501
22211WAT     H166875   2.182   7.316   3.458
22211WAT     H266876   2.119   7.168   3.488
22212WAT      O66877   1.981   4.908   4.438
22212WAT     H166878   1.997   4.829   4.379
22212WAT     H266879   1.952   4.986   4.383
22213WAT      O66880   6.231   1.313   8.807
22213WAT     H166881   6.294   1.379   8.846
22213WAT     H266882   6.241   1.225   8.854
22214WAT      O66883   6.295   8.018   0.326
22214WAT     H166884   6.220   8.008   0.260
22214WAT     H266885   6.264   8.074   0.402
22215WAT      O66886   6.817   2.593   6.287
22215WAT     H166887   6.732   2.553   6.323
22215WAT     H266888   6.838   2.553   6.198
22216WAT      O66889   6.137   6.296   5.668
22216WAT     H166890   6.041   6.277   5.688
22216WAT     H266891   6.143   6.362   5.593
22217WAT      O66892   6.629   1.363   9.368
22217WAT     H166893   6.618   1.289   9.435
22217WAT     H266894   6.705   1.422   9.395
22218WAT      O66895   5.171   2.020   1.281
22218WAT     H166896   5.217   1.933   1.262
22218WAT     H266897   5.166   2.033   1.380
22219WAT      O66898   3.497   6.862   1.599
22219WAT     H166899   3.530   6.869   1.693
22219WAT     H266900   3.411   6.913   1.590
22220WAT      O66901   9.061   3.758   3.357
22220WAT     H166902   8.976   3.705   3.360
22220WAT     H266903   9.135   3.704   3.398
22221WAT      O66904   5.223   0.017   1.017
22221WAT     H166905   5.215   0.115   1.035
22221WAT     H266906   5.225   0.001   0.918
22222WAT      O66907   7.084   0.538   6.767
22222WAT     H166908   7.121   0.616   6.816
22222WAT     H266909   7.003   0.503   6.814
22223WAT      O66910   9.637   7.618   3.608
22223WAT     H166911   9.549   7.632   3.562
22223WAT     H266912   9.625   7.557   3.686
22224WAT      O66913   8.541   2.431   9.675
22224WAT     H166914   8.462   2.493   9.675
22224WAT     H266915   8.525   2.359   9.606
22225WAT      O66916   0.750   1.939   1.009
22225WAT     H166917   0.802   2.013   1.053
22225WAT     H266918   0.758   1.948   0.909
22226WAT      O66919   1.628   1.014   2.960
22226WAT     H166920   1.546   0.976   3.003
22226WAT     H266921   1.660   1.093   3.013
22227WAT      O66922   6.456   6.756   2.822
22227WAT     H166923   6.498   6.828   2.767
22227WAT     H266924   6.357   6.759   2.812
22228WAT      O66925   5.053   0.831   8.352
22228WAT     H166926   4.956   0.810   8.361
22228WAT     H266927   5.089   0.790   8.269
22229WAT      O66928   8.363   6.212   8.107
22229WAT     H166929   8.389   6.140   8.042
22229WAT     H266930   8.264   6.212   8.119
22230WAT      O66931   2.736   8.999   8.713
22230WAT     H166932   2.789   9.014   8.630
22230WAT     H266933   2.663   9.067   8.719
22231WAT      O66934   2.899   3.083   0.395
22231WAT     H166935   2.949   3.157   0.350
22231WAT     H266936   2.914   3.089   0.494
22232WAT      O66937   9.495   6.566   4.035
22232WAT     H166938   9.414   6.515   4.006
22232WAT     H266939   9.498   6.570   4.134
22233WAT      O66940   2.709   8.666   0.126
22233WAT     H166941   2.615   8.695   0.111
22233WAT     H266942   2.767   8.746   0.142
22234WAT      O66943   5.380   6.816   6.649
22234WAT     H166944   5.302   6.874   6.670
22234WAT     H266945   5.388   6.805   6.549
22235WAT      O66946   0.926   3.225   3.973
22235WAT     H166947   0.889   3.235   3.881
22235WAT     H266948   0.909   3.308   4.025
22236WAT      O66949   8.637   3.347   7.745
22236WAT     H166950   8.583   3.263   7.747
22236WAT     H266951   8.616   3.398   7.662
22237WAT      O66952   2.090   5.610   5.013
22237WAT     H166953   2.088   5.664   4.929
22237WAT     H266954   2.185   5.601   5.044
22238WAT      O66955   1.079   8.730   1.066
22238WAT     H166956   1.076   8.660   1.137
22238WAT     H266957   1.148   8.707   0.998
22239WAT      O66958   3.370   1.466   1.073
22239WAT     H166959   3.463   1.478   1.040
22239WAT     H266960   3.364   1.494   1.169
22240WAT      O66961   1.029   5.308   3.843
22240WAT     H166962   1.108   5.320   3.783
22240WAT     H266963   1.059   5.313   3.938
22241WAT      O66964   1.300   9.737   9.411
22241WAT     H166965   1.354   9.791   9.476
22241WAT     H266966   1.208   9.775   9.404
22242WAT      O66967   3.741   7.442   8.476
22242WAT     H166968   3.648   7.459   8.444
22242WAT     H266969   3.798   7.411   8.399
22243WAT      O66970   5.267   8.269   5.092
22243WAT     H166971   5.256   8.368   5.083
22243WAT     H266972   5.266   8.244   5.188
22244WAT      O66973   9.314   5.081   8.506
22244WAT     H166974   9.401   5.113   8.468
22244WAT     H266975   9.300   5.124   8.596
22245WAT      O66976   0.399   2.631   6.458
22245WAT     H166977   0.330   2.568   6.421
22245WAT     H266978   0.463   2.657   6.386
22246WAT      O66979   7.059   4.523   4.841
22246WAT     H166980   7.065   4.473   4.928
22246WAT     H266981   7.150   4.532   4.801
22247WAT      O66982   4.119   1.607   2.637
22247WAT     H166983   4.211   1.602   2.597
22247WAT     H266984   4.113   1.687   2.696
22248WAT      O66985   1.452   1.964   5.675
22248WAT     H166986   1.445   1.864   5.669
22248WAT     H266987   1.447   1.993   5.770
22249WAT      O66988   4.093   9.715   3.130
22249WAT     H166989   4.174   9.673   3.090
22249WAT     H266990   4.119   9.800   3.177
22250WAT      O66991   0.852   3.825   7.875
22250WAT     H166992   0.769   3.773   7.856
22250WAT     H266993   0.831   3.923   7.873
22251WAT      O66994   8.741   0.407   2.236
22251WAT     H166995   8.772   0.423   2.143
22251WAT     H266996   8.711   0.494   2.277
22252WAT      O66997   6.871   8.638   2.690
22252WAT     H166998   6.947   8.696   2.721
22252WAT     H266999   6.858   8.563   2.755
22253WAT      O67000   1.464   0.362   7.808
22253WAT     H167001   1.447   0.460   7.810
22253WAT     H267002   1.378   0.313   7.799
22254WAT      O67003   8.415   1.409   3.673
22254WAT     H167004   8.440   1.437   3.580
22254WAT     H267005   8.424   1.487   3.735
22255WAT      O67006   0.499   0.548   3.729
22255WAT     H167007   0.520   0.627   3.787
22255WAT     H267008   0.565   0.475   3.747
22256WAT      O67009   2.047   8.099   3.302
22256WAT     H167010   2.139   8.115   3.338
22256WAT     H267011   1.996   8.043   3.367
22257WAT      O67012   1.499   8.002   4.899
22257WAT     H167013   1.499   8.069   4.973
22257WAT     H267014   1.446   7.922   4.926
22258WAT      O67015   7.515   1.647   9.474
22258WAT     H167016   7.604   1.617   9.440
22258WAT     H267017   7.513   1.746   9.480
22259WAT      O67018   8.786   4.915   1.519
22259WAT     H167019   8.872   4.944   1.476
22259WAT     H267020   8.722   4.886   1.447
22260WAT      O67021   1.884   6.019   7.867
22260WAT     H167022   1.861   5.940   7.924
22260WAT     H267023   1.804   6.048   7.815
22261WAT      O67024   5.314   9.049   8.673
22261WAT     H167025   5.354   9.112   8.606
22261WAT     H267026   5.304   9.096   8.761
22262WAT      O67027   0.912   6.817   5.827
22262WAT     H167028   0.851   6.755   5.877
22262WAT     H267029   0.978   6.857   5.891
22263WAT      O67030   1.420   3.045   1.459
22263WAT     H167031   1.501   3.026   1.515
22263WAT     H267032   1.366   2.961   1.449
22264WAT      O67033   6.710   4.661   4.073
22264WAT     H167034   6.731   4.738   4.014
22264WAT     H267035   6.661   4.694   4.154
22265WAT      O67036   3.084   3.437   1.380
22265WAT     H167037   3.060   3.430   1.477
22265WAT     H267038   3.057   3.353   1.334
22266WAT      O67039   6.894   6.346   1.043
22266WAT     H167040   6.890   6.444   1.062
22266WAT     H267041   6.805   6.314   1.011
22267WAT      O67042   8.121   8.340   0.327
22267WAT     H167043   8.136   8.274   0.254
22267WAT     H267044   8.093   8.292   0.410
22268WAT      O67045   5.326   4.131   6.295
22268WAT     H167046   5.327   4.056   6.361
22268WAT     H267047   5.418   4.147   6.261
22269WAT      O67048   2.247   6.427   8.022
22269WAT     H167049   2.258   6.483   7.940
22269WAT     H267050   2.195   6.344   7.999
22270WAT      O67051   7.039   1.863   4.752
22270WAT     H167052   7.068   1.931   4.820
22270WAT     H267053   7.105   1.859   4.678
22271WAT      O67054   0.664   4.091   0.086
22271WAT     H167055   0.605   4.104   0.165
22271WAT     H267056   0.619   4.126   0.004
22272WAT      O67057   7.006   3.721   2.425
22272WAT     H167058   7.100   3.688   2.429
22272WAT     H267059   6.945   3.653   2.466
22273WAT      O67060   3.360   6.144   9.784
22273WAT     H167061   3.261   6.136   9.796
22273WAT     H267062   3.388   6.239   9.794
22274WAT      O67063   4.755   5.639   4.477
22274WAT     H167064   4.773   5.666   4.382
22274WAT     H267065   4.819   5.567   4.504
22275WAT      O67066   3.078   0.080   9.792
22275WAT     H167067   2.992   0.068   9.842
22275WAT     H267068   3.076   0.023   9.710
22276WAT      O67069   1.217   7.236   9.555
22276WAT     H167070   1.171   7.187   9.630
22276WAT     H267071   1.221   7.177   9.475
22277WAT      O67072   9.051   8.340   4.508
22277WAT     H167073   8.987   8.384   4.445
22277WAT     H267074   9.021   8.355   4.602
22278WAT      O67075   7.550   9.513   8.040
22278WAT     H167076   7.649   9.502   8.033
22278WAT     H267077   7.528   9.610   8.052
22279WAT      O67078   3.309   5.150   7.899
22279WAT     H167079   3.220   5.130   7.857
22279WAT     H267080   3.365   5.201   7.834
22280WAT      O67081   4.931   5.933   5.364
22280WAT     H167082   4.988   5.873   5.309
22280WAT     H267083   4.949   5.917   5.461
22281WAT      O67084   5.736   0.196   7.682
22281WAT     H167085   5.807   0.245   7.732
22281WAT     H267086   5.732   0.230   7.588
22282WAT      O67087   2.012   4.980   6.618
22282WAT     H167088   2.067   5.035   6.556
22282WAT     H267089   2.024   5.014   6.712
22283WAT      O67090   4.474   6.470   5.925
22283WAT     H167091   4.442   6.523   5.847
22283WAT     H267092   4.396   6.432   5.974
22284WAT      O67093   4.154   6.179   5.150
22284WAT     H167094   4.251   6.197   5.134
22284WAT     H267095   4.132   6.203   5.245
22285WAT      O67096   2.069   3.611   7.808
22285WAT     H167097   2.102   3.582   7.898
22285WAT     H267098   2.080   3.710   7.799
22286WAT      O67099   4.774   7.081   4.417
22286WAT     H167100   4.694   7.122   4.374
22286WAT     H267101   4.840   7.054   4.347
22287WAT      O67102   0.019   8.587   9.123
22287WAT     H167103  -0.052   8.651   9.154
22287WAT     H267104   0.020   8.506   9.181
22288WAT      O67105   7.489   5.291   9.055
22288WAT     H167106   7.427   5.349   9.002
22288WAT     H267107   7.510   5.208   9.004
22289WAT      O67108   6.424   8.579   9.527
22289WAT     H167109   6.413   8.503   9.463
22289WAT     H267110   6.403   8.665   9.481
22290WAT      O67111   4.208   8.143   1.270
22290WAT     H167112   4.167   8.224   1.227
22290WAT     H267113   4.143   8.104   1.336
22291WAT      O67114   6.937   4.341   7.607
22291WAT     H167115   6.995   4.306   7.533
22291WAT     H267116   6.862   4.394   7.567
22292WAT      O67117   5.894   3.226   6.833
22292WAT     H167118   5.860   3.166   6.906
22292WAT     H267119   5.989   3.203   6.812
22293WAT      O67120   9.076   2.383   4.573
22293WAT     H167121   9.148   2.426   4.627
22293WAT     H267122   9.011   2.338   4.634
22294WAT      O67123   3.076   1.114   8.076
22294WAT     H167124   3.068   1.025   8.032
22294WAT     H267125   3.155   1.114   8.138
22295WAT      O67126   5.151   5.995   6.775
22295WAT     H167127   5.101   5.922   6.822
22295WAT     H267128   5.127   6.083   6.816
22296WAT      O67129   1.817   3.214   7.876
22296WAT     H167130   1.822   3.312   7.857
22296WAT     H267131   1.903   3.170   7.849
22297WAT      O67132   7.438   2.889   1.806
22297WAT     H167133   7.386   2.946   1.742
22297WAT     H267134   7.382   2.867   1.886
22298WAT      O67135   3.098   3.848   7.812
22298WAT     H167136   3.107   3.753   7.842
22298WAT     H267137   3.026   3.893   7.866
22299WAT      O67138   5.585   7.904   4.887
22299WAT     H167139   5.634   7.947   4.811
22299WAT     H267140   5.579   7.805   4.871
22300WAT      O67141   4.346   3.422   9.841
22300WAT     H167142   4.295   3.501   9.876
22300WAT     H267143   4.331   3.414   9.742
22301WAT      O67144   9.187   8.874   2.417
22301WAT     H167145   9.091   8.904   2.415
22301WAT     H267146   9.236   8.914   2.340
22302WAT      O67147   6.453   4.324   3.659
22302WAT     H167148   6.404   4.276   3.732
22302WAT     H267149   6.452   4.422   3.678
22303WAT      O67150   5.787   4.248   8.498
22303WAT     H167151   5.874   4.207   8.524
22303WAT     H267152   5.798   4.346   8.485
22304WAT      O67153   6.058   2.121   3.345
22304WAT     H167154   6.078   2.029   3.311
22304WAT     H267155   6.017   2.114   3.436
22305WAT      O67156   1.064   0.131   2.653
22305WAT     H167157   0.982   0.122   2.709
22305WAT     H267158   1.122   0.050   2.666
22306WAT      O67159   5.515   5.568   9.659
22306WAT     H167160   5.489   5.508   9.583
22306WAT     H267161   5.613   5.588   9.653
22307WAT      O67162   4.885   6.551   5.542
22307WAT     H167163   4.827   6.633   5.546
22307WAT     H267164   4.851   6.484   5.608
22308WAT      O67165   8.056   2.654   8.176
22308WAT     H167166   7.982   2.676   8.238
22308WAT     H267167   8.020   2.606   8.096
22309WAT      O67168   4.569   1.198   4.047
22309WAT     H167169   4.513   1.252   4.110
22309WAT     H267170   4.647   1.251   4.017
22310WAT      O67171   8.532   9.393   3.648
22310WAT     H167172   8.553   9.490   3.663
22310WAT     H267173   8.548   9.371   3.552
22311WAT      O67174   4.743   9.326   3.149
22311WAT     H167175   4.722   9.320   3.246
22311WAT     H267176   4.812   9.257   3.125
22312WAT      O67177   2.615   5.697   1.617
22312WAT     H167178   2.699   5.717   1.668
22312WAT     H267179   2.596   5.599   1.624
22313WAT      O67180   2.455   0.575   9.719
22313WAT     H167181   2.461   0.671   9.746
22313WAT     H267182   2.399   0.567   9.637
22314WAT      O67183   5.051   1.175   1.058
22314WAT     H167184   5.051   1.105   1.130
22314WAT     H267185   5.124   1.241   1.076
22315WAT      O67186   1.749   6.223   6.542
22315WAT     H167187   1.749   6.286   6.620
22315WAT     H267188   1.838   6.179   6.535
22316WAT      O67189   0.794   2.457   8.420
22316WAT     H167190   0.857   2.387   8.387
22316WAT     H267191   0.833   2.502   8.501
22317WAT      O67192   9.187   6.291   9.892
22317WAT     H167193   9.159   6.197   9.910
22317WAT     H267194   9.114   6.339   9.843
22318WAT      O67195   9.152   3.778   2.696
22318WAT     H167196   9.053   3.787   2.707
22318WAT     H267197   9.190   3.865   2.664
22319WAT      O67198   4.290   3.469   1.126
22319WAT     H167199   4.383   3.503   1.140
22319WAT     H267200   4.282   3.428   1.035
22320WAT      O67201   6.931   1.249   5.198
22320WAT     H167202   6.883   1.174   5.153
22320WAT     H267203   7.021   1.217   5.229
22321WAT      O67204   8.804   8.689   1.057
22321WAT     H167205   8.757   8.633   1.125
22321WAT     H267206   8.854   8.762   1.103
22322WAT      O67207   5.795   7.828   3.203
22322WAT     H167208   5.729   7.898   3.233
22322WAT     H267209   5.750   7.739   3.202
22323WAT      O67210   8.939   7.119   7.787
22323WAT     H167211   8.878   7.078   7.719
22323WAT     H267212   8.906   7.210   7.812
22324WAT      O67213   0.151   2.270   3.657
22324WAT     H167214   0.227   2.322   3.618
22324WAT     H267215   0.066   2.321   3.645
22325WAT      O67216   1.190   9.235   1.723
22325WAT     H167217   1.167   9.290   1.642
22325WAT     H267218   1.109   9.183   1.751
22326WAT      O67219   9.779   6.014   8.379
22326WAT     H167220   9.862   6.030   8.433
22326WAT     H267221   9.699   6.025   8.437
22327WAT      O67222   2.260   0.815   3.674
22327WAT     H167223   2.354   0.793   3.648
22327WAT     H267224   2.205   0.830   3.592
22328WAT      O67225   2.060   9.093   1.825
22328WAT     H167226   2.010   9.180   1.826
22328WAT     H267227   2.030   9.038   1.748
22329WAT      O67228   7.959   3.639   7.573
22329WAT     H167229   7.908   3.591   7.501
22329WAT     H267230   8.033   3.692   7.533
22330WAT      O67231   3.620   3.771   7.673
22330WAT     H167232   3.650   3.759   7.578
22330WAT     H267233   3.669   3.706   7.731
22331WAT      O67234   5.006   3.520   5.283
22331WAT     H167235   5.018   3.427   5.317
22331WAT     H267236   4.945   3.519   5.204
22332WAT      O67237   3.752   8.293   5.147
22332WAT     H167238   3.733   8.388   5.170
22332WAT     H267239   3.816   8.254   5.213
22333WAT      O67240   7.622   0.656   8.126
22333WAT     H167241   7.556   0.708   8.072
22333WAT     H267242   7.600   0.665   8.223
22334WAT      O67243   0.700   9.321   1.274
22334WAT     H167244   0.709   9.290   1.369
22334WAT     H267245   0.743   9.255   1.213
22335WAT      O67246   0.869   8.811   9.343
22335WAT     H167247   0.885   8.873   9.419
22335WAT     H267248   0.784   8.761   9.358
22336WAT      O67249   8.943   2.166   2.790
22336WAT     H167250   8.949   2.257   2.832
22336WAT     H267251   8.847   2.143   2.773
22337WAT      O67252   4.202   1.426   0.568
22337WAT     H167253   4.185   1.372   0.486
22337WAT     H267254   4.141   1.505   0.570
22338WAT      O67255   4.129   9.633   7.521
22338WAT     H167256   4.052   9.579   7.555
22338WAT     H267257   4.137   9.717   7.576
22339WAT      O67258   1.060   9.392   9.263
22339WAT     H167259   0.963   9.407   9.249
22339WAT     H267260   1.110   9.405   9.177
22340WAT      O67261   9.526   1.870   5.824
22340WAT     H167262   9.455   1.849   5.891
22340WAT     H267263   9.615   1.873   5.870
22341WAT      O67264   9.446   4.340   9.772
22341WAT     H167265   9.501   4.370   9.695
22341WAT     H267266   9.503   4.336   9.854
22342WAT      O67267   2.280   4.186   4.604
22342WAT     H167268   2.257   4.120   4.676
22342WAT     H267269   2.253   4.278   4.633
22343WAT      O67270   5.314   6.864   4.760
22343WAT     H167271   5.305   6.879   4.661
22343WAT     H267272   5.352   6.946   4.802
22344WAT      O67273   0.449   8.371   9.884
22344WAT     H167274   0.464   8.297   9.819
22344WAT     H267275   0.452   8.334   9.977
22345WAT      O67276   7.892   5.103   5.445
22345WAT     H167277   7.807   5.092   5.393
22345WAT     H267278   7.871   5.117   5.542
22346WAT      O67279   6.418   5.385   6.290
22346WAT     H167280   6.344   5.441   6.328
22346WAT     H267281   6.427   5.404   6.193
22347WAT      O67282   2.467   4.846   0.444
22347WAT     H167283   2.478   4.760   0.394
22347WAT     H267284   2.497   4.922   0.387
22348WAT      O67285   5.356   4.460   7.425
22348WAT     H167286   5.374   4.422   7.334
22348WAT     H267287   5.414   4.415   7.492
22349WAT      O67288   0.849   5.368   6.589
22349WAT     H167289   0.788   5.290   6.575
22349WAT     H267290   0.804   5.435   6.648
22350WAT      O67291   5.418   7.754   9.837
22350WAT     H167292   5.389   7.845   9.806
22350WAT     H267293   5.372   7.732   9.923
22351WAT      O67294   3.209   3.332   3.462
22351WAT     H167295   3.179   3.373   3.376
22351WAT     H267296   3.289   3.381   3.497
22352WAT      O67297   7.739   5.314   2.688
22352WAT     H167298   7.658   5.328   2.746
22352WAT     H267299   7.713   5.322   2.592
22353WAT      O67300   0.281   4.005   5.495
22353WAT     H167301   0.369   4.047   5.517
22353WAT     H267302   0.218   4.075   5.460
22354WAT      O67303   1.549   7.557   3.673
22354WAT     H167304   1.647   7.574   3.660
22354WAT     H267305   1.498   7.638   3.645
22355WAT      O67306   0.071   1.315   2.584
22355WAT     H167307  -0.025   1.328   2.557
22355WAT     H267308   0.084   1.221   2.617
22356WAT      O67309   0.293   5.236   7.185
22356WAT     H167310   0.356   5.250   7.261
22356WAT     H267311   0.246   5.322   7.164
22357WAT      O67312   9.018   4.236   8.019
22357WAT     H167313   9.029   4.221   7.921
22357WAT     H267314   9.048   4.154   8.068
22358WAT      O67315   6.238   6.428   1.499
22358WAT     H167316   6.224   6.330   1.499
22358WAT     H267317   6.286   6.455   1.414
22359WAT      O67318   9.764   0.022   8.711
22359WAT     H167319   9.793   0.095   8.773
22359WAT     H267320   9.674   0.044   8.674
22360WAT      O67321   3.888   8.332   6.911
22360WAT     H167322   3.868   8.283   6.995
22360WAT     H267323   3.987   8.342   6.901
22361WAT      O67324   1.814   6.976   6.075
22361WAT     H167325   1.878   6.921   6.022
22361WAT     H267326   1.731   6.993   6.020
22362WAT      O67327   4.202   8.993   6.124
22362WAT     H167328   4.276   8.979   6.058
22362WAT     H267329   4.239   8.990   6.217
22363WAT      O67330   1.223   0.981   4.961
22363WAT     H167331   1.163   0.913   5.002
22363WAT     H267332   1.226   0.968   4.862
22364WAT      O67333   3.106   5.152   6.866
22364WAT     H167334   3.182   5.098   6.904
22364WAT     H267335   3.135   5.247   6.855
22365WAT      O67336   6.919   1.363   4.191
22365WAT     H167337   7.004   1.324   4.228
22365WAT     H267338   6.936   1.457   4.160
22366WAT      O67339   0.486   4.054   9.145
22366WAT     H167340   0.406   3.996   9.127
22366WAT     H267341   0.460   4.150   9.139
22367WAT      O67342   5.343   7.340   9.151
22367WAT     H167343   5.254   7.367   9.190
22367WAT     H267344   5.416   7.362   9.216
22368WAT      O67345   3.633   5.855   1.119
22368WAT     H167346   3.668   5.841   1.211
22368WAT     H267347   3.617   5.767   1.075
22369WAT      O67348   1.707   6.570   3.746
22369WAT     H167349   1.633   6.515   3.706
22369WAT     H267350   1.678   6.603   3.836
22370WAT      O67351   2.714   1.699   1.057
22370WAT     H167352   2.738   1.788   1.018
22370WAT     H267353   2.794   1.658   1.100
22371WAT      O67354   3.337   4.090   9.359
22371WAT     H167355   3.434   4.099   9.340
22371WAT     H267356   3.292   4.042   9.284
22372WAT      O67357   8.434   4.620   3.130
22372WAT     H167358   8.460   4.540   3.183
22372WAT     H267359   8.475   4.614   3.039
22373WAT      O67360   5.739   7.306   2.731
22373WAT     H167361   5.752   7.271   2.639
22373WAT     H267362   5.745   7.231   2.797
22374WAT      O67363   8.365   6.887   5.765
22374WAT     H167364   8.314   6.864   5.682
22374WAT     H267365   8.425   6.964   5.747
22375WAT      O67366   9.200   1.286   9.143
22375WAT     H167367   9.212   1.385   9.152
22375WAT     H267368   9.230   1.241   9.227
22376WAT      O67369   6.854   9.203   8.785
22376WAT     H167370   6.837   9.111   8.821
22376WAT     H267371   6.917   9.251   8.846
22377WAT      O67372   7.429   1.986   1.928
22377WAT     H167373   7.482   1.909   1.892
22377WAT     H267374   7.462   2.071   1.887
22378WAT      O67375   7.600   0.007   1.049
22378WAT     H167376   7.672   0.063   1.007
22378WAT     H267377   7.642  -0.071   1.095
22379WAT      O67378   1.812   6.972   3.802
22379WAT     H167379   1.714   6.954   3.806
22379WAT     H267380   1.860   6.890   3.769
22380WAT      O67381   9.330   9.376   7.411
22380WAT     H167382   9.246   9.325   7.427
22380WAT     H267383   9.384   9.379   7.495
22381WAT      O67384   5.655   3.826   4.954
22381WAT     H167385   5.704   3.843   5.039
22381WAT     H267386   5.590   3.751   4.967
22382WAT      O67387   2.470   6.009   6.817
22382WAT     H167388   2.519   5.973   6.896
22382WAT     H267389   2.454   6.107   6.828
22383WAT      O67390   8.194   5.403   1.201
22383WAT     H167391   8.210   5.362   1.111
22383WAT     H267392   8.279   5.404   1.253
22384WAT      O67393   7.202   6.229   1.095
22384WAT     H167394   7.184   6.327   1.099
22384WAT     H267395   7.187   6.189   1.186
22385WAT      O67396   2.072   5.012   0.091
22385WAT     H167397   2.129   5.043   0.167
22385WAT     H267398   2.020   5.090   0.054
22386WAT      O67399   3.942   2.780   2.044
22386WAT     H167400   4.030   2.826   2.033
22386WAT     H267401   3.875   2.845   2.079
22387WAT      O67402   1.846   6.361   4.069
22387WAT     H167403   1.801   6.275   4.045
22387WAT     H267404   1.858   6.364   4.168
22388WAT      O67405   1.817   2.941   3.225
22388WAT     H167406   1.756   2.930   3.303
22388WAT     H267407   1.909   2.912   3.250
22389WAT      O67408   4.884   2.339   3.820
22389WAT     H167409   4.965   2.311   3.770
22389WAT     H267410   4.903   2.338   3.918
22390WAT      O67411   8.533   8.957   3.269
22390WAT     H167412   8.503   9.002   3.353
22390WAT     H267413   8.473   8.984   3.194
22391WAT      O67414   5.255   1.615   9.524
22391WAT     H167415   5.183   1.658   9.470
22391WAT     H267416   5.232   1.519   9.540
22392WAT      O67417   7.993   7.600   7.784
22392WAT     H167418   8.022   7.611   7.689
22392WAT     H267419   7.953   7.510   7.797
22393WAT      O67420   1.823   1.379   8.644
22393WAT     H167421   1.813   1.371   8.545
22393WAT     H267422   1.821   1.476   8.670
22394WAT      O67423   0.467   1.811   2.512
22394WAT     H167424   0.553   1.834   2.557
22394WAT     H267425   0.391   1.858   2.558
22395WAT      O67426   5.270   5.634   2.666
22395WAT     H167427   5.240   5.597   2.578
22395WAT     H267428   5.369   5.651   2.662
22396WAT      O67429   5.021   8.152   3.648
22396WAT     H167430   5.033   8.116   3.740
22396WAT     H267431   4.928   8.134   3.617
22397WAT      O67432   6.657   6.217   6.997
22397WAT     H167433   6.694   6.270   7.073
22397WAT     H267434   6.684   6.121   7.007
22398WAT      O67435   9.823   6.370   7.015
22398WAT     H167436   9.877   6.346   6.934
22398WAT     H267437   9.790   6.464   7.006
22399WAT      O67438   4.858   2.762   5.918
22399WAT     H167439   4.874   2.781   6.015
22399WAT     H267440   4.876   2.845   5.864
22400WAT      O67441   9.871   1.899   9.516
22400WAT     H167442   9.807   1.886   9.440
22400WAT     H267443   9.908   1.992   9.513
22401WAT      O67444   2.291   5.391   5.444
22401WAT     H167445   2.233   5.468   5.421
22401WAT     H267446   2.236   5.307   5.447
22402WAT      O67447   6.391   5.029   7.071
22402WAT     H167448   6.431   5.104   7.017
22402WAT     H267449   6.292   5.024   7.052
22403WAT      O67450   3.842   5.425   7.734
22403WAT     H167451   3.770   5.481   7.693
22403WAT     H267452   3.814   5.397   7.826
22404WAT      O67453   1.433   4.048   1.904
22404WAT     H167454   1.431   3.977   1.974
22404WAT     H267455   1.451   4.137   1.946
22405WAT      O67456   8.193   4.595   9.344
22405WAT     H167457   8.157   4.689   9.339
22405WAT     H267458   8.148   4.547   9.420
22406WAT      O67459   4.207   8.244   5.370
22406WAT     H167460   4.232   8.148   5.384
22406WAT     H267461   4.245   8.276   5.283
22407WAT      O67462   3.722   4.116   2.844
22407WAT     H167463   3.692   4.074   2.758
22407WAT     H267464   3.759   4.207   2.825
22408WAT      O67465   5.205   8.053   4.522
22408WAT     H167466   5.240   8.144   4.548
22408WAT     H267467   5.169   8.007   4.603
22409WAT      O67468   6.455   7.368   4.211
22409WAT     H167469   6.519   7.313   4.158
22409WAT     H267470   6.427   7.448   4.157
22410WAT      O67471   7.159   1.967   4.509
22410WAT     H167472   7.208   2.004   4.430
22410WAT     H267473   7.072   2.015   4.520
22411WAT      O67474   5.008   0.304   5.249
22411WAT     H167475   4.995   0.210   5.279
22411WAT     H267476   4.956   0.320   5.165
22412WAT      O67477   4.072   5.867   9.730
22412WAT     H167478   4.109   5.797   9.791
22412WAT     H267479   4.102   5.957   9.760
22413WAT      O67480   9.775   2.116   2.345
22413WAT     H167481   9.744   2.158   2.430
22413WAT     H267482   9.737   2.167   2.267
22414WAT      O67483   5.677   2.757   3.790
22414WAT     H167484   5.739   2.687   3.825
22414WAT     H267485   5.682   2.758   3.690
22415WAT      O67486   1.606   9.798   9.223
22415WAT     H167487   1.642   9.713   9.261
22415WAT     H267488   1.682   9.853   9.188
22416WAT      O67489   9.147   4.863   9.780
22416WAT     H167490   9.058   4.896   9.812
22416WAT     H267491   9.152   4.871   9.681
22417WAT      O67492   3.850   4.877   1.059
22417WAT     H167493   3.837   4.778   1.069
22417WAT     H267494   3.832   4.922   1.146
22418WAT      O67495   7.966   8.735   5.286
22418WAT     H167496   7.951   8.658   5.226
22418WAT     H267497   8.034   8.797   5.246
22419WAT      O67498   0.388   5.016   4.382
22419WAT     H167499   0.307   5.073   4.393
22419WAT     H267500   0.442   5.049   4.304
22420WAT      O67501   3.117   9.617   8.450
22420WAT     H167502   3.202   9.669   8.462
22420WAT     H267503   3.129   9.552   8.375
22421WAT      O67504   2.644   1.370   3.282
22421WAT     H167505   2.679   1.354   3.189
22421WAT     H267506   2.603   1.461   3.287
22422WAT      O67507   7.230   6.219   5.983
22422WAT     H167508   7.279   6.305   5.970
22422WAT     H267509   7.142   6.237   6.028
22423WAT      O67510   5.421   5.680   6.052
22423WAT     H167511   5.517   5.651   6.051
22423WAT     H267512   5.416   5.778   6.074
22424WAT      O67513   0.795   9.438   0.616
22424WAT     H167514   0.791   9.418   0.714
22424WAT     H267515   0.824   9.533   0.603
22425WAT      O67516   7.697   7.569   7.758
22425WAT     H167517   7.632   7.591   7.685
22425WAT     H267518   7.780   7.624   7.746
22426WAT      O67519   9.564   5.075   7.564
22426WAT     H167520   9.500   5.114   7.498
22426WAT     H267521   9.514   5.048   7.647
22427WAT      O67522   2.369   4.153   8.633
22427WAT     H167523   2.334   4.217   8.564
22427WAT     H267524   2.396   4.067   8.589
22428WAT      O67525   3.633   7.621   0.545
22428WAT     H167526   3.615   7.650   0.451
22428WAT     H267527   3.717   7.567   0.547
22429WAT      O67528   7.685   3.704   8.473
22429WAT     H167529   7.603   3.695   8.417
22429WAT     H267530   7.660   3.726   8.567
22430WAT      O67531   5.931   4.714   4.977
22430WAT     H167532   5.957   4.763   4.893
22430WAT     H267533   6.013   4.677   5.020
22431WAT      O67534   7.888   8.487   2.177
22431WAT     H167535   7.910   8.509   2.272
22431WAT     H267536   7.789   8.495   2.163
22432WAT      O67537   9.370   0.725   9.323
22432WAT     H167538   9.273   0.730   9.348
22432WAT     H267539   9.409   0.641   9.359
22433WAT      O67540   7.224   2.455   5.613
22433WAT     H167541   7.194   2.462   5.708
22433WAT     H267542   7.177   2.379   5.568
22434WAT      O67543   9.069   1.353   3.915
22434WAT     H167544   9.063   1.312   4.006
22434WAT     H267545   9.018   1.439   3.913
22435WAT      O67546   4.608   3.907   3.125
22435WAT     H167547   4.536   3.968   3.158
22435WAT     H267548   4.607   3.906   3.025
22436WAT      O67549   9.824   0.059   1.182
22436WAT     H167550   9.899  -0.007   1.187
22436WAT     H267551   9.777   0.050   1.095
22437WAT      O67552   1.870   3.832   3.773
22437WAT     H167553   1.933   3.814   3.698
22437WAT     H267554   1.822   3.919   3.757
22438WAT      O67555   5.308   0.018   2.155
22438WAT     H167556   5.401   0.038   2.187
22438WAT     H267557   5.294  -0.081   2.153
22439WAT      O67558   2.161   4.143   3.404
22439WAT     H167559   2.172   4.211   3.332
22439WAT     H267560   2.235   4.153   3.471
22440WAT      O67561   8.403   5.907   9.497
22440WAT     H167562   8.315   5.917   9.452
22440WAT     H267563   8.394   5.843   9.574
22441WAT      O67564   4.218   9.533   0.052
22441WAT     H167565   4.251   9.518   0.145
22441WAT     H267566   4.168   9.453   0.021
22442WAT      O67567   4.904   8.443   6.537
22442WAT     H167568   4.984   8.476   6.587
22442WAT     H267569   4.920   8.347   6.510
22443WAT      O67570   9.330   2.674   2.592
22443WAT     H167571   9.356   2.699   2.499
22443WAT     H267572   9.234   2.645   2.594
22444WAT      O67573   3.789   7.245   2.552
22444WAT     H167574   3.783   7.225   2.649
22444WAT     H267575   3.849   7.324   2.538
22445WAT      O67576   1.736   0.305   7.782
22445WAT     H167577   1.638   0.326   7.788
22445WAT     H267578   1.765   0.307   7.687
22446WAT      O67579   9.691   6.326   6.064
22446WAT     H167580   9.592   6.342   6.067
22446WAT     H267581   9.715   6.290   5.974
22447WAT      O67582   4.528   1.973   1.948
22447WAT     H167583   4.458   1.922   1.999
22447WAT     H267584   4.544   2.061   1.992
22448WAT      O67585   6.156   2.293   5.388
22448WAT     H167586   6.108   2.380   5.380
22448WAT     H267587   6.185   2.261   5.298
22449WAT      O67588   0.793   0.858   3.936
22449WAT     H167589   0.820   0.763   3.923
22449WAT     H267590   0.872   0.912   3.965
22450WAT      O67591   6.379   6.761   0.147
22450WAT     H167592   6.385   6.731   0.242
22450WAT     H267593   6.468   6.748   0.103
22451WAT      O67594   1.032   6.518   1.603
22451WAT     H167595   0.950   6.462   1.600
22451WAT     H267596   1.027   6.579   1.682
22452WAT      O67597   6.452   4.927   6.053
22452WAT     H167598   6.365   4.881   6.032
22452WAT     H267599   6.515   4.914   5.976
22453WAT      O67600   2.197   6.083   3.244
22453WAT     H167601   2.165   6.163   3.193
22453WAT     H267602   2.296   6.092   3.260
22454WAT      O67603   2.872   7.619   7.900
22454WAT     H167604   2.841   7.541   7.846
22454WAT     H267605   2.847   7.704   7.853
22455WAT      O67606   0.835   7.068   9.602
22455WAT     H167607   0.771   7.108   9.668
22455WAT     H267608   0.823   6.969   9.601
22456WAT      O67609   7.191   0.698   2.277
22456WAT     H167610   7.160   0.606   2.254
22456WAT     H267611   7.176   0.759   2.199
22457WAT      O67612   4.500   5.601   5.176
22457WAT     H167613   4.438   5.678   5.192
22457WAT     H267614   4.469   5.551   5.095
22458WAT      O67615   0.170   9.605   8.249
22458WAT     H167616   0.174   9.656   8.163
22458WAT     H267617   0.182   9.508   8.230
22459WAT      O67618   3.933   6.795   4.118
22459WAT     H167619   3.984   6.823   4.200
22459WAT     H267620   3.972   6.709   4.083
22460WAT      O67621   1.600   9.549   7.525
22460WAT     H167622   1.594   9.544   7.426
22460WAT     H267623   1.508   9.559   7.564
22461WAT      O67624   3.084   1.350   5.808
22461WAT     H167625   3.114   1.400   5.727
22461WAT     H267626   2.985   1.335   5.804
22462WAT      O67627   2.567   2.329   9.752
22462WAT     H167628   2.517   2.387   9.817
22462WAT     H267629   2.630   2.386   9.700
22463WAT      O67630   3.773   7.818   5.117
22463WAT     H167631   3.758   7.743   5.052
22463WAT     H267632   3.717   7.897   5.091
22464WAT      O67633   8.072   7.964   7.456
22464WAT     H167634   8.155   8.010   7.487
22464WAT     H267635   8.069   7.871   7.494
22465WAT      O67636   0.451   8.740   7.670
22465WAT     H167637   0.392   8.762   7.747
22465WAT     H267638   0.521   8.810   7.660
22466WAT      O67639   7.973   2.071   4.505
22466WAT     H167640   7.977   2.142   4.575
22466WAT     H267641   8.036   1.997   4.529
22467WAT      O67642   4.905   5.599   9.735
22467WAT     H167643   4.957   5.663   9.678
22467WAT     H267644   4.814   5.637   9.752
22468WAT      O67645   5.823   4.896   4.741
22468WAT     H167646   5.918   4.920   4.760
22468WAT     H267647   5.819   4.806   4.697
22469WAT      O67648   8.401   7.706   0.922
22469WAT     H167649   8.495   7.695   0.955
22469WAT     H267650   8.382   7.637   0.852
22470WAT      O67651   8.277   0.858   2.686
22470WAT     H167652   8.181   0.840   2.704
22470WAT     H267653   8.319   0.900   2.767
22471WAT      O67654   6.607   1.194   2.681
22471WAT     H167655   6.701   1.160   2.675
22471WAT     H267656   6.552   1.130   2.735
22472WAT      O67657   8.707   5.589   9.449
22472WAT     H167658   8.776   5.528   9.409
22472WAT     H267659   8.621   5.580   9.398
22473WAT      O67660   4.513   7.356   1.799
22473WAT     H167661   4.474   7.437   1.756
22473WAT     H267662   4.545   7.292   1.729
22474WAT      O67663   0.629   7.579   4.631
22474WAT     H167664   0.714   7.621   4.599
22474WAT     H267665   0.638   7.479   4.629
22475WAT      O67666   2.039   3.381   3.160
22475WAT     H167667   1.946   3.349   3.139
22475WAT     H267668   2.105   3.334   3.102
22476WAT      O67669   2.794   7.249   3.397
22476WAT     H167670   2.739   7.332   3.387
22476WAT     H267671   2.782   7.212   3.489
22477WAT      O67672   5.613   2.520   5.922
22477WAT     H167673   5.638   2.528   6.019
22477WAT     H267674   5.629   2.427   5.891
22478WAT      O67675   8.256   6.228   0.621
22478WAT     H167676   8.236   6.235   0.523
22478WAT     H267677   8.171   6.215   0.672
22479WAT      O67678   5.415   2.235   3.867
22479WAT     H167679   5.401   2.325   3.827
22479WAT     H267680   5.499   2.194   3.830
22480WAT      O67681   5.149   6.630   5.433
22480WAT     H167682   5.054   6.605   5.452
22480WAT     H267683   5.151   6.713   5.377
22481WAT      O67684   4.800   5.886   6.579
22481WAT     H167685   4.750   5.820   6.523
22481WAT     H267686   4.748   5.905   6.662
22482WAT      O67687   5.845   8.128   9.027
22482WAT     H167688   5.769   8.191   9.039
22482WAT     H267689   5.905   8.131   9.108
22483WAT      O67690   6.927   2.965   6.845
22483WAT     H167691   6.987   2.890   6.817
22483WAT     H267692   6.877   2.999   6.765
22484WAT      O67693   8.836   6.406   6.481
22484WAT     H167694   8.855   6.436   6.387
22484WAT     H267695   8.765   6.336   6.479
22485WAT      O67696   4.760   4.231   2.806
22485WAT     H167697   4.678   4.282   2.832
22485WAT     H267698   4.735   4.155   2.746
22486WAT      O67699   3.040   0.858   3.643
22486WAT     H167700   3.121   0.881   3.589
22486WAT     H267701   3.020   0.760   3.633
22487WAT      O67702   0.986   5.056   8.522
22487WAT     H167703   0.940   5.084   8.438
22487WAT     H267704   0.918   5.025   8.588
22488WAT      O67705   5.571   2.147   7.112
22488WAT     H167706   5.488   2.167   7.164
22488WAT     H267707   5.608   2.233   7.075
22489WAT      O67708   0.476   7.605   9.892
22489WAT     H167709   0.520   7.673   9.832
22489WAT     H267710   0.545   7.567   9.954
22490WAT      O67711   3.914   9.369   9.195
22490WAT     H167712   3.917   9.327   9.105
22490WAT     H267713   3.971   9.452   9.196
22491WAT      O67714   4.483   6.746   5.511
22491WAT     H167715   4.579   6.750   5.539
22491WAT     H267716   4.477   6.719   5.415
22492WAT      O67717   7.513   9.633   6.194
22492WAT     H167718   7.513   9.599   6.101
22492WAT     H267719   7.431   9.688   6.210
22493WAT      O67720   2.614   0.769   1.719
22493WAT     H167721   2.599   0.686   1.664
22493WAT     H267722   2.585   0.849   1.666
22494WAT      O67723   5.777   5.915   3.534
22494WAT     H167724   5.834   5.855   3.477
22494WAT     H267725   5.740   5.989   3.478
22495WAT      O67726   8.354   6.696   3.126
22495WAT     H167727   8.413   6.696   3.045
22495WAT     H267728   8.406   6.732   3.204
22496WAT      O67729   6.483   9.440   6.219
22496WAT     H167730   6.489   9.444   6.119
22496WAT     H267731   6.544   9.369   6.253
22497WAT      O67732   2.076   2.573   8.864
22497WAT     H167733   2.005   2.640   8.885
22497WAT     H267734   2.095   2.518   8.946
22498WAT      O67735   7.525   8.922   1.486
22498WAT     H167736   7.435   8.884   1.463
22498WAT     H267737   7.525   8.953   1.581
22499WAT      O67738   3.725   2.875   3.603
22499WAT     H167739   3.751   2.951   3.543
22499WAT     H267740   3.700   2.911   3.693
22500WAT      O67741   6.122   5.948   3.174
22500WAT     H167742   6.077   5.918   3.258
22500WAT     H267743   6.178   5.873   3.138
22501WAT      O67744   9.438   8.014   0.666
22501WAT     H167745   9.464   8.103   0.704
22501WAT     H267746   9.435   7.947   0.740
22502WAT      O67747   2.220   6.128   4.971
22502WAT     H167748   2.204   6.226   4.982
22502WAT     H267749   2.266   6.110   4.884
22503WAT      O67750   1.637   2.623   3.398
22503WAT     H167751   1.680   2.577   3.476
22503WAT     H267752   1.544   2.587   3.386
22504WAT      O67753   8.278   0.015   9.155
22504WAT     H167754   8.374   0.034   9.176
22504WAT     H267755   8.262  -0.083   9.161
22505WAT      O67756   6.476   1.589   3.369
22505WAT     H167757   6.557   1.530   3.367
22505WAT     H267758   6.433   1.588   3.279
22506WAT      O67759   7.230   0.075   7.755
22506WAT     H167760   7.224   0.064   7.854
22506WAT     H267761   7.139   0.089   7.717
22507WAT      O67762   9.294   9.244   8.114
22507WAT     H167763   9.313   9.322   8.054
22507WAT     H267764   9.213   9.263   8.169
22508WAT      O67765   3.243   6.858   3.061
22508WAT     H167766   3.188   6.775   3.057
22508WAT     H267767   3.322   6.849   3.000
22509WAT      O67768   0.743   4.557   3.924
22509WAT     H167769   0.756   4.655   3.909
22509WAT     H267770   0.787   4.506   3.850
22510WAT      O67771   5.946   0.821   7.747
22510WAT     H167772   5.984   0.889   7.684
22510WAT     H267773   5.850   0.841   7.764
22511WAT      O67774   9.538   8.108   2.070
22511WAT     H167775   9.494   8.029   2.112
22511WAT     H267776   9.637   8.095   2.069
22512WAT      O67777   0.109   7.282   6.680
22512WAT     H167778   0.156   7.312   6.597
22512WAT     H267779   0.031   7.224   6.655
22513WAT      O67780   9.655   9.514   2.883
22513WAT     H167781   9.601   9.598   2.889
22513WAT     H267782   9.603   9.444   2.833
22514WAT      O67783   6.617   0.015   8.630
22514WAT     H167784   6.657   0.107   8.625
22514WAT     H267785   6.556   0.009   8.708
22515WAT      O67786   7.011   7.453   8.559
22515WAT     H167787   6.963   7.370   8.587
22515WAT     H267788   7.098   7.429   8.516
22516WAT      O67789   3.739   0.145   1.245
22516WAT     H167790   3.701   0.072   1.302
22516WAT     H267791   3.764   0.108   1.155
22517WAT      O67792   3.039   1.213   9.500
22517WAT     H167793   2.983   1.132   9.485
22517WAT     H267794   3.105   1.195   9.573
22518WAT      O67795   8.517   5.648   6.038
22518WAT     H167796   8.580   5.643   6.115
22518WAT     H267797   8.547   5.585   5.966
22519WAT      O67798   6.842   6.243   2.642
22519WAT     H167799   6.819   6.237   2.739
22519WAT     H267800   6.921   6.185   2.623
22520WAT      O67801   7.886   3.472   8.407
22520WAT     H167802   7.829   3.553   8.423
22520WAT     H267803   7.906   3.464   8.310
22521WAT      O67804   4.452   0.992   3.135
22521WAT     H167805   4.364   0.995   3.183
22521WAT     H267806   4.495   1.082   3.139
22522WAT      O67807   8.599   2.816   7.620
22522WAT     H167808   8.661   2.890   7.648
22522WAT     H267809   8.556   2.841   7.534
22523WAT      O67810   0.605   0.128   3.231
22523WAT     H167811   0.682   0.112   3.170
22523WAT     H267812   0.529   0.070   3.205
22524WAT      O67813   6.662   6.607   0.477
22524WAT     H167814   6.706   6.687   0.435
22524WAT     H267815   6.661   6.618   0.577
22525WAT      O67816   8.486   9.192   7.760
22525WAT     H167817   8.416   9.143   7.812
22525WAT     H267818   8.483   9.163   7.664
22526WAT      O67819   0.460   6.885   3.081
22526WAT     H167820   0.521   6.813   3.114
22526WAT     H267821   0.468   6.892   2.982
22527WAT      O67822   5.744   3.108   7.036
22527WAT     H167823   5.662   3.163   7.056
22527WAT     H267824   5.799   3.100   7.119
22528WAT      O67825   1.834   0.765   1.665
22528WAT     H167826   1.862   0.799   1.575
22528WAT     H267827   1.898   0.695   1.696
22529WAT      O67828   0.910   8.846   3.615
22529WAT     H167829   0.942   8.910   3.685
22529WAT     H267830   0.936   8.881   3.525
22530WAT      O67831   5.136   6.746   7.711
22530WAT     H167832   5.077   6.672   7.678
22530WAT     H267833   5.224   6.741   7.663
22531WAT      O67834   3.045   2.903   1.974
22531WAT     H167835   3.086   2.814   1.955
22531WAT     H267836   3.013   2.945   1.889
22532WAT      O67837   5.619   2.435   0.118
22532WAT     H167838   5.530   2.481   0.124
22532WAT     H267839   5.638   2.388   0.205
22533WAT      O67840   1.097   4.889   6.426
22533WAT     H167841   1.012   4.850   6.390
22533WAT     H267842   1.081   4.984   6.452
22534WAT      O67843   9.687   2.810   1.061
22534WAT     H167844   9.782   2.837   1.046
22534WAT     H267845   9.653   2.852   1.145
22535WAT      O67846   2.232   7.889   3.850
22535WAT     H167847   2.281   7.883   3.763
22535WAT     H267848   2.270   7.822   3.914
22536WAT      O67849   0.092   8.132   1.729
22536WAT     H167850   0.011   8.077   1.747
22536WAT     H267851   0.070   8.205   1.664
22537WAT      O67852   0.709   2.955   3.372
22537WAT     H167853   0.679   2.959   3.276
22537WAT     H267854   0.675   2.871   3.414
22538WAT      O67855   7.179   1.236   2.230
22538WAT     H167856   7.190   1.187   2.144
22538WAT     H267857   7.082   1.242   2.253
22539WAT      O67858   7.534   2.137   7.426
22539WAT     H167859   7.468   2.075   7.468
22539WAT     H267860   7.486   2.202   7.367
22540WAT      O67861   6.090   0.534   7.423
22540WAT     H167862   6.066   0.612   7.366
22540WAT     H267863   6.122   0.459   7.366
22541WAT      O67864   5.725   4.712   2.066
22541WAT     H167865   5.724   4.628   2.010
22541WAT     H267866   5.795   4.703   2.137
22542WAT      O67867   7.082   3.849   4.271
22542WAT     H167868   7.102   3.905   4.351
22542WAT     H267869   7.149   3.775   4.265
22543WAT      O67870   7.024   7.000   7.862
22543WAT     H167871   6.973   7.054   7.928
22543WAT     H267872   6.967   6.981   7.782
22544WAT      O67873   8.595   0.462   8.712
22544WAT     H167874   8.692   0.481   8.695
22544WAT     H267875   8.570   0.375   8.668
22545WAT      O67876   0.319   2.174   5.934
22545WAT     H167877   0.338   2.191   5.838
22545WAT     H267878   0.342   2.079   5.957
22546WAT      O67879   4.486   3.316   5.284
22546WAT     H167880   4.426   3.336   5.361
22546WAT     H267881   4.534   3.400   5.257
22547WAT      O67882   4.392   8.476   4.356
22547WAT     H167883   4.297   8.502   4.343
22547WAT     H267884   4.421   8.415   4.283
22548WAT      O67885   2.896   0.739   9.690
22548WAT     H167886   2.926   0.751   9.784
22548WAT     H267887   2.884   0.828   9.647
22549WAT      O67888   9.160   7.345   1.176
22549WAT     H167889   9.090   7.396   1.126
22549WAT     H267890   9.248   7.393   1.169
22550WAT      O67891   0.369   7.392   8.756
22550WAT     H167892   0.380   7.298   8.726
22550WAT     H267893   0.444   7.418   8.816
22551WAT      O67894   5.260   1.008   7.864
22551WAT     H167895   5.171   1.007   7.818
22551WAT     H267896   5.313   1.087   7.834
22552WAT      O67897   2.009   4.278   6.983
22552WAT     H167898   2.055   4.297   7.069
22552WAT     H267899   1.913   4.256   7.000
22553WAT      O67900   5.202   8.160   6.652
22553WAT     H167901   5.233   8.255   6.662
22553WAT     H267902   5.104   8.155   6.671
22554WAT      O67903   4.553   6.839   2.870
22554WAT     H167904   4.617   6.911   2.896
22554WAT     H267905   4.603   6.754   2.855
22555WAT      O67906   5.967   1.564   4.321
22555WAT     H167907   5.889   1.513   4.357
22555WAT     H267908   5.938   1.657   4.298
22556WAT      O67909   2.170   6.952   3.663
22556WAT     H167910   2.094   6.978   3.603
22556WAT     H267911   2.252   6.936   3.608
22557WAT      O67912   2.763   8.307   4.057
22557WAT     H167913   2.731   8.347   4.143
22557WAT     H267914   2.863   8.309   4.055
22558WAT      O67915   5.221   3.042   7.148
22558WAT     H167916   5.255   3.123   7.195
22558WAT     H267917   5.154   2.996   7.206
22559WAT      O67918   3.357   0.352   5.589
22559WAT     H167919   3.319   0.391   5.673
22559WAT     H267920   3.367   0.423   5.520
22560WAT      O67921   1.444   9.076   8.400
22560WAT     H167922   1.458   9.175   8.405
22560WAT     H267923   1.480   9.033   8.483
22561WAT      O67924   6.751   2.317   3.944
22561WAT     H167925   6.822   2.368   3.897
22561WAT     H267926   6.679   2.380   3.974
22562WAT      O67927   0.648   1.245   1.618
22562WAT     H167928   0.659   1.150   1.647
22562WAT     H267929   0.551   1.265   1.604
22563WAT      O67930   0.741   8.393   5.703
22563WAT     H167931   0.821   8.347   5.741
22563WAT     H267932   0.764   8.487   5.680
22564WAT      O67933   7.399   0.356   5.767
22564WAT     H167934   7.335   0.284   5.793
22564WAT     H267935   7.357   0.445   5.784
22565WAT      O67936   4.863   7.704   7.837
22565WAT     H167937   4.906   7.632   7.892
22565WAT     H267938   4.934   7.769   7.809
22566WAT      O67939   6.579   4.985   9.668
22566WAT     H167940   6.579   5.077   9.709
22566WAT     H267941   6.485   4.954   9.656
22567WAT      O67942   0.340   5.973   1.660
22567WAT     H167943   0.424   6.022   1.683
22567WAT     H267944   0.318   5.908   1.733
22568WAT      O67945   8.627   7.645   2.229
22568WAT     H167946   8.544   7.591   2.217
22568WAT     H267947   8.705   7.583   2.237
22569WAT      O67948   5.667   1.903   6.556
22569WAT     H167949   5.651   1.909   6.654
22569WAT     H267950   5.682   1.807   6.530
22570WAT      O67951   7.834   7.919   3.340
22570WAT     H167952   7.770   7.959   3.274
22570WAT     H267953   7.916   7.977   3.346
22571WAT      O67954   4.711   6.034   7.774
22571WAT     H167955   4.710   5.964   7.846
22571WAT     H267956   4.619   6.073   7.764
22572WAT      O67957   4.069   2.955   2.963
22572WAT     H167958   4.115   2.893   3.027
22572WAT     H267959   4.017   3.023   3.015
22573WAT      O67960   0.091   6.414   4.834
22573WAT     H167961   0.148   6.399   4.915
22573WAT     H267962   0.003   6.369   4.847
22574WAT      O67963   1.694   6.859   2.451
22574WAT     H167964   1.634   6.917   2.395
22574WAT     H267965   1.642   6.780   2.484
22575WAT      O67966   5.799   7.413   2.294
22575WAT     H167967   5.830   7.495   2.344
22575WAT     H267968   5.785   7.436   2.198
22576WAT      O67969   4.277   2.356   0.509
22576WAT     H167970   4.223   2.286   0.463
22576WAT     H267971   4.263   2.444   0.465
22577WAT      O67972   5.521   6.094   1.867
22577WAT     H167973   5.541   6.124   1.961
22577WAT     H267974   5.603   6.053   1.828
22578WAT      O67975   9.846   4.976   6.293
22578WAT     H167976   9.845   4.883   6.329
22578WAT     H267977   9.763   4.993   6.240
22579WAT      O67978   1.011   2.250   7.320
22579WAT     H167979   0.995   2.152   7.312
22579WAT     H267980   1.103   2.266   7.357
22580WAT      O67981   8.274   0.098   1.128
22580WAT     H167982   8.202   0.093   1.059
22580WAT     H267983   8.301   0.194   1.141
22581WAT      O67984   7.254   4.894   6.464
22581WAT     H167985   7.242   4.960   6.538
22581WAT     H267986   7.165   4.872   6.424
22582WAT      O67987   6.893   2.288   0.724
22582WAT     H167988   6.940   2.351   0.786
22582WAT     H267989   6.819   2.336   0.677
22583WAT      O67990   3.590   6.392   3.771
22583WAT     H167991   3.542   6.329   3.832
22583WAT     H267992   3.689   6.378   3.779
22584WAT      O67993   4.208   1.752   7.321
22584WAT     H167994   4.115   1.735   7.288
22584WAT     H267995   4.273   1.699   7.267
22585WAT      O67996   1.655   7.708   2.756
22585WAT     H167997   1.631   7.768   2.679
22585WAT     H267998   1.682   7.764   2.834
22586WAT      O67999   0.555   6.740   4.695
22586WAT     H168000   0.456   6.755   4.686
22586WAT     H268001   0.575   6.706   4.787
22587WAT      O68002   8.090   5.218   9.367
22587WAT     H168003   8.095   5.312   9.334
22587WAT     H268004   7.996   5.184   9.358
22588WAT      O68005   4.793   6.608   6.428
22588WAT     H168006   4.860   6.672   6.391
22588WAT     H268007   4.788   6.618   6.527
22589WAT      O68008   9.020   0.759   7.551
22589WAT     H168009   8.974   0.846   7.570
22589WAT     H268010   9.116   0.776   7.529
22590WAT      O68011   8.228   1.973   6.658
22590WAT     H168012   8.226   1.911   6.737
22590WAT     H268013   8.218   1.920   6.574
22591WAT      O68014   5.188   5.074   7.895
22591WAT     H168015   5.118   5.143   7.912
22591WAT     H268016   5.249   5.068   7.973
22592WAT      O68017   2.905   9.044   8.508
22592WAT     H168018   2.946   8.963   8.467
22592WAT     H268019   2.922   9.124   8.449
22593WAT      O68020   5.990   3.146   5.367
22593WAT     H168021   6.073   3.138   5.422
22593WAT     H268022   6.011   3.190   5.280
22594WAT      O68023   1.771   1.066   3.617
22594WAT     H168024   1.808   1.057   3.525
22594WAT     H268025   1.817   1.141   3.664
22595WAT      O68026   0.937   2.035   1.853
22595WAT     H168027   0.888   1.988   1.927
22595WAT     H268028   1.029   1.997   1.845
22596WAT      O68029   7.073   4.223   7.405
22596WAT     H168030   7.047   4.262   7.316
22596WAT     H268031   7.167   4.191   7.401
22597WAT      O68032   5.583   2.352   5.565
22597WAT     H168033   5.605   2.299   5.483
22597WAT     H268034   5.616   2.304   5.646
22598WAT      O68035   5.252   9.170   8.254
22598WAT     H168036   5.257   9.144   8.157
22598WAT     H268037   5.338   9.147   8.299
22599WAT      O68038   0.806   3.998   8.856
22599WAT     H168039   0.874   4.065   8.887
22599WAT     H268040   0.722   4.045   8.831
22600WAT      O68041   4.609   8.197   3.135
22600WAT     H168042   4.543   8.136   3.179
22600WAT     H268043   4.569   8.233   3.050
22601WAT      O68044   4.936   9.247   6.643
22601WAT     H168045   4.925   9.184   6.566
22601WAT     H268046   5.029   9.284   6.643
22602WAT      O68047   6.522   7.212   5.548
22602WAT     H168048   6.508   7.145   5.475
22602WAT     H268049   6.447   7.278   5.548
22603WAT      O68050   6.916   4.139   0.657
22603WAT     H168051   6.857   4.075   0.608
22603WAT     H268052   6.934   4.103   0.749
22604WAT      O68053   6.375   5.734   1.236
22604WAT     H168054   6.416   5.667   1.298
22604WAT     H268055   6.435   5.814   1.229
22605WAT      O68056   4.456   6.743   4.718
22605WAT     H168057   4.459   6.820   4.654
22605WAT     H268058   4.386   6.677   4.687
22606WAT      O68059   7.877   9.163   7.397
22606WAT     H168060   7.847   9.255   7.424
22606WAT     H268061   7.918   9.167   7.306
22607WAT      O68062   3.121   8.922   2.757
22607WAT     H168063   3.169   8.938   2.843
22607WAT     H268064   3.082   9.008   2.724
22608WAT      O68065   3.174   2.681   5.562
22608WAT     H168066   3.123   2.603   5.598
22608WAT     H268067   3.141   2.703   5.470
22609WAT      O68068   2.056   1.213   1.964
22609WAT     H168069   2.023   1.306   1.948
22609WAT     H268070   2.038   1.157   1.884
22610WAT      O68071   1.868   7.993   5.238
22610WAT     H168072   1.959   8.006   5.277
22610WAT     H268073   1.849   7.896   5.229
22611WAT      O68074   7.837   4.108   3.554
22611WAT     H168075   7.793   4.042   3.615
22611WAT     H268076   7.892   4.059   3.486
22612WAT      O68077   7.553   9.263   2.213
22612WAT     H168078   7.517   9.185   2.264
22612WAT     H268079   7.487   9.289   2.142
22613WAT      O68080   2.710   9.234   1.815
22613WAT     H168081   2.661   9.150   1.838
22613WAT     H268082   2.651   9.313   1.832
22614WAT      O68083   8.333   3.972   5.092
22614WAT     H168084   8.256   3.948   5.152
22614WAT     H268085   8.376   4.056   5.125
22615WAT      O68086   2.693   0.041   0.816
22615WAT     H168087   2.754   0.008   0.744
22615WAT     H268088   2.704  -0.015   0.898
22616WAT      O68089   4.976   7.074   8.237
22616WAT     H168090   5.048   7.131   8.199
22616WAT     H268091   4.889   7.123   8.234
22617WAT      O68092   8.469   1.811   5.430
22617WAT     H168093   8.492   1.762   5.514
22617WAT     H268094   8.505   1.762   5.351
22618WAT      O68095   2.902   4.538   4.093
22618WAT     H168096   2.915   4.583   4.005
22618WAT     H268097   2.830   4.470   4.085
22619WAT      O68098   1.404   2.804   0.199
22619WAT     H168099   1.326   2.775   0.254
22619WAT     H268100   1.477   2.836   0.258
22620WAT      O68101   3.298   5.131   4.826
22620WAT     H168102   3.340   5.076   4.897
22620WAT     H268103   3.279   5.223   4.861
22621WAT      O68104   0.331   7.388   9.189
22621WAT     H168105   0.409   7.446   9.165
22621WAT     H268106   0.355   7.292   9.173
22622WAT      O68107   0.301   2.144   0.235
22622WAT     H168108   0.206   2.114   0.229
22622WAT     H268109   0.305   2.244   0.235
22623WAT      O68110   3.439   5.495   6.496
22623WAT     H168111   3.508   5.553   6.453
22623WAT     H268112   3.367   5.473   6.430
22624WAT      O68113   6.414   9.303   7.203
22624WAT     H168114   6.392   9.265   7.113
22624WAT     H268115   6.379   9.242   7.274
22625WAT      O68116   0.498   2.664   6.842
22625WAT     H168117   0.561   2.729   6.799
22625WAT     H268118   0.502   2.577   6.795
22626WAT      O68119   2.641   9.176   6.401
22626WAT     H168120   2.605   9.244   6.464
22626WAT     H268121   2.704   9.115   6.449
22627WAT      O68122   6.588   4.111   7.745
22627WAT     H168123   6.546   4.202   7.738
22627WAT     H268124   6.521   4.046   7.780
22628WAT      O68125   9.535   5.691   7.779
22628WAT     H168126   9.468   5.617   7.779
22628WAT     H268127   9.515   5.755   7.704
22629WAT      O68128   5.889   4.857   1.134
22629WAT     H168129   5.825   4.799   1.185
22629WAT     H268130   5.964   4.801   1.099
22630WAT      O68131   1.856   6.822   2.199
22630WAT     H168132   1.860   6.835   2.298
22630WAT     H268133   1.861   6.911   2.153
22631WAT      O68134   8.206   2.199   7.273
22631WAT     H168135   8.135   2.234   7.335
22631WAT     H268136   8.163   2.153   7.196
22632WAT      O68137   2.853   7.870   8.054
22632WAT     H168138   2.818   7.792   8.004
22632WAT     H268139   2.824   7.864   8.150
22633WAT      O68140   8.278   7.269   5.815
22633WAT     H168141   8.226   7.277   5.900
22633WAT     H268142   8.373   7.245   5.836
22634WAT      O68143   2.284   6.430   9.105
22634WAT     H168144   2.186   6.442   9.093
22634WAT     H268145   2.315   6.483   9.183
22635WAT      O68146   2.723   5.401   6.617
22635WAT     H168147   2.799   5.422   6.678
22635WAT     H268148   2.733   5.308   6.581
22636WAT      O68149   3.843   2.903   1.454
22636WAT     H168150   3.886   2.937   1.370
22636WAT     H268151   3.896   2.932   1.533
22637WAT      O68152   4.445   4.061   6.910
22637WAT     H168153   4.346   4.071   6.902
22637WAT     H268154   4.489   4.091   6.826
22638WAT      O68155   2.957   2.359   8.811
22638WAT     H168156   2.868   2.391   8.779
22638WAT     H268157   3.010   2.436   8.847
22639WAT      O68158   1.863   2.032   8.102
22639WAT     H168159   1.882   1.934   8.114
22639WAT     H268160   1.938   2.074   8.050
22640WAT      O68161   4.480   7.663   6.280
22640WAT     H168162   4.384   7.679   6.257
22640WAT     H268163   4.486   7.624   6.372
22641WAT      O68164   5.899   5.140   7.758
22641WAT     H168165   5.908   5.059   7.700
22641WAT     H268166   5.850   5.211   7.708
22642WAT      O68167   9.214   5.809   6.395
22642WAT     H168168   9.186   5.901   6.421
22642WAT     H268169   9.175   5.786   6.306
22643WAT      O68170   2.452   9.710   6.207
22643WAT     H168171   2.546   9.733   6.184
22643WAT     H268172   2.397   9.794   6.209
22644WAT      O68173   8.451   6.018   7.632
22644WAT     H168174   8.459   5.920   7.614
22644WAT     H268175   8.436   6.067   7.546
22645WAT      O68176   2.717   2.471   9.589
22645WAT     H168177   2.689   2.562   9.560
22645WAT     H268178   2.736   2.415   9.508
22646WAT      O68179   9.761   7.671   3.941
22646WAT     H168180   9.773   7.608   4.018
22646WAT     H268181   9.667   7.705   3.940
22647WAT      O68182   7.584   2.466   0.087
22647WAT     H168183   7.642   2.522   0.146
22647WAT     H268184   7.618   2.373   0.086
22648WAT      O68185   6.062   7.216   2.609
22648WAT     H168186   6.082   7.138   2.668
22648WAT     H268187   5.964   7.218   2.588
22649WAT      O68188   7.167   6.861   5.937
22649WAT     H168189   7.190   6.946   5.890
22649WAT     H268190   7.069   6.844   5.928
22650WAT      O68191   7.056   9.003   5.332
22650WAT     H168192   6.976   8.947   5.357
22650WAT     H268193   7.046   9.035   5.237
22651WAT      O68194   9.129   8.313   9.671
22651WAT     H168195   9.162   8.361   9.589
22651WAT     H268196   9.087   8.227   9.643
22652WAT      O68197   5.432   0.155   8.455
22652WAT     H168198   5.451   0.084   8.524
22652WAT     H268199   5.474   0.129   8.368
22653WAT      O68200   9.246   4.176   0.871
22653WAT     H168201   9.261   4.181   0.970
22653WAT     H268202   9.237   4.081   0.843
22654WAT      O68203   2.979   7.056   7.495
22654WAT     H168204   2.955   6.966   7.458
22654WAT     H268205   2.902   7.119   7.480
22655WAT      O68206   0.576   1.407   5.225
22655WAT     H168207   0.540   1.474   5.159
22655WAT     H268208   0.500   1.371   5.279
22656WAT      O68209   7.495   7.176   4.238
22656WAT     H168210   7.453   7.152   4.325
22656WAT     H268211   7.428   7.220   4.179
22657WAT      O68212   2.969   4.165   0.153
22657WAT     H168213   2.953   4.263   0.150
22657WAT     H268214   3.009   4.141   0.242
22658WAT      O68215   3.679   6.701   8.480
22658WAT     H168216   3.642   6.646   8.555
22658WAT     H268217   3.739   6.644   8.424
22659WAT      O68218   5.018   0.928   2.026
22659WAT     H168219   4.965   0.930   1.941
22659WAT     H268220   5.115   0.925   2.004
22660WAT      O68221   5.465   4.822   1.481
22660WAT     H168222   5.396   4.749   1.480
22660WAT     H268223   5.487   4.846   1.576
22661WAT      O68224   7.315   3.853   6.329
22661WAT     H168225   7.254   3.844   6.251
22661WAT     H268226   7.273   3.910   6.399
22662WAT      O68227   5.090   8.355   4.411
22662WAT     H168228   4.990   8.355   4.416
22662WAT     H268229   5.128   8.324   4.498
22663WAT      O68230   6.483   6.157   7.317
22663WAT     H168231   6.400   6.178   7.266
22663WAT     H268232   6.511   6.063   7.298
22664WAT      O68233   8.740   3.496   4.724
22664WAT     H168234   8.677   3.508   4.647
22664WAT     H268235   8.795   3.579   4.734
22665WAT      O68236   3.105   6.758   8.971
22665WAT     H168237   3.134   6.714   8.885
22665WAT     H268238   3.118   6.857   8.963
22666WAT      O68239   3.489   6.298   7.385
22666WAT     H168240   3.418   6.286   7.454
22666WAT     H268241   3.495   6.395   7.360
22667WAT      O68242   6.123   3.456   3.676
22667WAT     H168243   6.221   3.440   3.662
22667WAT     H268244   6.073   3.424   3.596
22668WAT      O68245   9.025   3.320   6.106
22668WAT     H168246   9.050   3.348   6.199
22668WAT     H268247   8.937   3.360   6.082
22669WAT      O68248   3.553   5.369   5.066
22669WAT     H168249   3.481   5.349   5.132
22669WAT     H268250   3.633   5.313   5.085
22670WAT      O68251   5.668   6.727   2.059
22670WAT     H168252   5.672   6.782   1.976
22670WAT     H268253   5.572   6.715   2.087
22671WAT      O68254   7.762   3.086   6.850
22671WAT     H168255   7.702   3.027   6.902
22671WAT     H268256   7.719   3.109   6.762
22672WAT      O68257   2.975   2.229   9.206
22672WAT     H168258   3.057   2.275   9.241
22672WAT     H268259   2.993   2.196   9.114
22673WAT      O68260   6.364   6.134   6.679
22673WAT     H168261   6.374   6.090   6.768
22673WAT     H268262   6.298   6.209   6.685
22674WAT      O68263   8.271   2.990   8.759
22674WAT     H168264   8.331   3.011   8.682
22674WAT     H268265   8.209   2.915   8.733
22675WAT      O68266   9.708   1.359   1.923
22675WAT     H168267   9.789   1.349   1.866
22675WAT     H268268   9.638   1.410   1.874
22676WAT      O68269   5.556   2.399   4.374
22676WAT     H168270   5.654   2.390   4.353
22676WAT     H268271   5.546   2.430   4.469
22677WAT      O68272   1.851   3.054   4.145
22677WAT     H168273   1.776   3.050   4.080
22677WAT     H268274   1.930   3.099   4.103
22678WAT      O68275   9.291   3.733   5.225
22678WAT     H168276   9.238   3.669   5.281
22678WAT     H268277   9.369   3.767   5.277
22679WAT      O68278   8.156   2.921   6.964
22679WAT     H168279   8.220   2.997   6.950
22679WAT     H268280   8.200   2.835   6.937
22680WAT      O68281   1.690   5.477   7.021
22680WAT     H168282   1.655   5.531   6.945
22680WAT     H268283   1.616   5.423   7.061
22681WAT      O68284   6.648   8.177   2.900
22681WAT     H168285   6.550   8.190   2.917
22681WAT     H268286   6.670   8.080   2.906
22682WAT      O68287   0.764   1.399   3.324
22682WAT     H168288   0.770   1.404   3.224
22682WAT     H268289   0.820   1.322   3.356
22683WAT      O68290   5.104   7.886   9.538
22683WAT     H168291   5.090   7.865   9.635
22683WAT     H268292   5.201   7.900   9.520
22684WAT      O68293   3.149   1.402   4.332
22684WAT     H168294   3.154   1.446   4.242
22684WAT     H268295   3.230   1.427   4.386
22685WAT      O68296   9.364   4.309   9.360
22685WAT     H168297   9.335   4.328   9.454
22685WAT     H268298   9.317   4.227   9.327
22686WAT      O68299   4.306   1.483   7.706
22686WAT     H168300   4.256   1.462   7.791
22686WAT     H268301   4.404   1.479   7.724
22687WAT      O68302   5.248   5.301   3.792
22687WAT     H168303   5.169   5.241   3.806
22687WAT     H268304   5.263   5.356   3.874
22688WAT      O68305   0.770   9.229   1.831
22688WAT     H168306   0.697   9.263   1.772
22688WAT     H268307   0.783   9.291   1.909
22689WAT      O68308   3.438   8.775   6.532
22689WAT     H168309   3.505   8.787   6.605
22689WAT     H268310   3.345   8.775   6.570
22690WAT      O68311   0.434   6.396   1.795
22690WAT     H168312   0.443   6.302   1.763
22690WAT     H268313   0.381   6.449   1.729
22691WAT      O68314   9.470   1.074   0.803
22691WAT     H168315   9.569   1.083   0.788
22691WAT     H268316   9.450   0.987   0.848
22692WAT      O68317   6.548   8.433   2.817
22692WAT     H168318   6.629   8.378   2.793
22692WAT     H268319   6.537   8.435   2.916
22693WAT      O68320   5.136   7.139   3.380
22693WAT     H168321   5.051   7.091   3.356
22693WAT     H268322   5.114   7.221   3.433
22694WAT      O68323   4.081   1.753   4.166
22694WAT     H168324   4.052   1.669   4.121
22694WAT     H268325   4.067   1.745   4.265
22695WAT      O68326   8.065   5.606   6.315
22695WAT     H168327   8.135   5.648   6.258
22695WAT     H268328   8.018   5.677   6.368
22696WAT      O68329   9.082   5.251   8.799
22696WAT     H168330   9.098   5.322   8.867
22696WAT     H268331   9.052   5.294   8.713
22697WAT      O68332   1.852   4.663   4.775
22697WAT     H168333   1.782   4.610   4.824
22697WAT     H268334   1.923   4.601   4.741
22698WAT      O68335   4.507   9.083   4.232
22698WAT     H168336   4.541   9.016   4.298
22698WAT     H268337   4.411   9.065   4.212
22699WAT      O68338   4.658   0.475   9.613
22699WAT     H168339   4.594   0.406   9.579
22699WAT     H268340   4.625   0.511   9.700
22700WAT      O68341   6.087   4.982   3.795
22700WAT     H168342   6.140   5.066   3.794
22700WAT     H268343   5.991   5.003   3.813
22701WAT      O68344   8.510   0.277   9.030
22701WAT     H168345   8.593   0.284   8.974
22701WAT     H268346   8.533   0.241   9.120
22702WAT      O68347   4.631   3.936   8.269
22702WAT     H168348   4.639   4.031   8.301
22702WAT     H268349   4.720   3.891   8.275
22703WAT      O68350   2.500   8.770   7.945
22703WAT     H168351   2.483   8.842   7.878
22703WAT     H268352   2.473   8.682   7.906
22704WAT      O68353   5.422   4.052   1.041
22704WAT     H168354   5.504   4.006   1.075
22704WAT     H268355   5.372   3.991   0.980
22705WAT      O68356   1.749   6.065   3.239
22705WAT     H168357   1.808   5.985   3.245
22705WAT     H268358   1.655   6.038   3.260
22706WAT      O68359   1.986   8.805   3.449
22706WAT     H168360   1.897   8.846   3.427
22706WAT     H268361   2.047   8.815   3.370
22707WAT      O68362   0.766   9.010   0.162
22707WAT     H168363   0.866   9.012   0.151
22707WAT     H268364   0.726   9.092   0.121
22708WAT      O68365   4.372   6.714   5.768
22708WAT     H168366   4.327   6.793   5.810
22708WAT     H268367   4.436   6.746   5.697
22709WAT      O68368   3.705   1.851   1.481
22709WAT     H168369   3.691   1.796   1.399
22709WAT     H268370   3.641   1.824   1.552
22710WAT      O68371   5.819   4.422   5.830
22710WAT     H168372   5.800   4.430   5.928
22710WAT     H268373   5.817   4.513   5.788
22711WAT      O68374   9.094   3.816   5.606
22711WAT     H168375   9.120   3.719   5.610
22711WAT     H268376   9.070   3.848   5.698
22712WAT      O68377   2.955   4.519   9.665
22712WAT     H168378   2.957   4.420   9.657
22712WAT     H268379   2.956   4.560   9.574
22713WAT      O68380   4.187   1.482   7.470
22713WAT     H168381   4.273   1.494   7.421
22713WAT     H268382   4.204   1.479   7.568
22714WAT      O68383   9.840   6.187   8.177
22714WAT     H168384   9.819   6.117   8.246
22714WAT     H268385   9.786   6.269   8.196
22715WAT      O68386   6.317   0.844   7.453
22715WAT     H168387   6.346   0.772   7.391
22715WAT     H268388   6.326   0.933   7.407
22716WAT      O68389   8.744   6.272   4.343
22716WAT     H168390   8.668   6.334   4.360
22716WAT     H268391   8.807   6.313   4.278
22717WAT      O68392   5.728   7.079   7.031
22717WAT     H168393   5.784   7.073   7.114
22717WAT     H268394   5.778   7.038   6.954
22718WAT      O68395   0.622   6.740   0.865
22718WAT     H168396   0.646   6.812   0.930
22718WAT     H268397   0.618   6.652   0.913
22719WAT      O68398   5.540   6.879   3.745
22719WAT     H168399   5.517   6.970   3.777
22719WAT     H268400   5.471   6.814   3.777
22720WAT      O68401   6.873   5.244   4.151
22720WAT     H168402   6.945   5.269   4.087
22720WAT     H268403   6.799   5.312   4.148
22721WAT      O68404   7.200   8.083   7.827
22721WAT     H168405   7.103   8.074   7.802
22721WAT     H268406   7.245   7.994   7.818
22722WAT      O68407   8.486   1.494   6.358
22722WAT     H168408   8.540   1.455   6.283
22722WAT     H268409   8.488   1.594   6.351
22723WAT      O68410   7.242   1.414   8.757
22723WAT     H168411   7.264   1.444   8.664
22723WAT     H268412   7.222   1.493   8.814
22724WAT      O68413   8.844   8.835   2.746
22724WAT     H168414   8.926   8.781   2.763
22724WAT     H268415   8.835   8.904   2.818
22725WAT      O68416   1.919   3.441   9.769
22725WAT     H168417   1.946   3.411   9.860
22725WAT     H268418   1.819   3.447   9.764
22726WAT      O68419   3.519   8.711   4.793
22726WAT     H168420   3.463   8.629   4.802
22726WAT     H268421   3.491   8.762   4.712
22727WAT      O68422   5.776   1.474   5.841
22727WAT     H168423   5.797   1.442   5.748
22727WAT     H268424   5.678   1.488   5.849
22728WAT      O68425   5.892   9.279   1.692
22728WAT     H168426   5.951   9.360   1.694
22728WAT     H268427   5.839   9.278   1.607
22729WAT      O68428   1.813   4.374   0.655
22729WAT     H168429   1.827   4.279   0.683
22729WAT     H268430   1.718   4.401   0.671
22730WAT      O68431   1.598   9.464   5.750
22730WAT     H168432   1.575   9.423   5.838
22730WAT     H268433   1.522   9.453   5.687
22731WAT      O68434   9.093   0.701   9.417
22731WAT     H168435   9.052   0.612   9.436
22731WAT     H268436   9.117   0.746   9.503
22732WAT      O68437   3.269   3.534   4.024
22732WAT     H168438   3.336   3.596   4.065
22732WAT     H268439   3.229   3.477   4.096
22733WAT      O68440   9.600   3.999   6.792
22733WAT     H168441   9.593   3.903   6.822
22733WAT     H268442   9.694   4.018   6.764
22734WAT      O68443   4.597   8.458   9.044
22734WAT     H168444   4.607   8.554   9.067
22734WAT     H268445   4.624   8.443   8.949
22735WAT      O68446   7.874   4.002   7.945
22735WAT     H168447   7.877   4.024   7.848
22735WAT     H268448   7.964   3.969   7.974
22736WAT      O68449   4.360   2.072   5.343
22736WAT     H168450   4.263   2.077   5.317
22736WAT     H268451   4.367   2.064   5.443
22737WAT      O68452   0.101   3.694   8.898
22737WAT     H168453   0.077   3.662   8.807
22737WAT     H268454   0.026   3.677   8.961
22738WAT      O68455   4.388   1.767   2.074
22738WAT     H168456   4.312   1.735   2.131
22738WAT     H268457   4.417   1.692   2.014
22739WAT      O68458   8.239   0.074   9.440
22739WAT     H168459   8.193   0.067   9.351
22739WAT     H268460   8.338   0.082   9.426
22740WAT      O68461   3.097   3.292   9.116
22740WAT     H168462   3.038   3.326   9.043
22740WAT     H268463   3.045   3.286   9.202
22741WAT      O68464   7.465   2.175   5.776
22741WAT     H168465   7.520   2.223   5.707
22741WAT     H268466   7.396   2.237   5.812
22742WAT      O68467   3.425   7.243   4.378
22742WAT     H168468   3.340   7.282   4.414
22742WAT     H268469   3.413   7.221   4.281
22743WAT      O68470   1.770   1.337   4.099
22743WAT     H168471   1.680   1.356   4.062
22743WAT     H268472   1.765   1.333   4.199
22744WAT      O68473   2.149   2.626   7.309
22744WAT     H168474   2.154   2.720   7.276
22744WAT     H268475   2.189   2.620   7.400
22745WAT      O68476   2.013   7.118   9.664
22745WAT     H168477   2.018   7.032   9.714
22745WAT     H268478   2.051   7.106   9.572
22746WAT      O68479   0.895   0.732   8.367
22746WAT     H168480   0.862   0.826   8.360
22746WAT     H268481   0.935   0.717   8.458
22747WAT      O68482   7.979   3.558   4.017
22747WAT     H168483   8.028   3.646   4.018
22747WAT     H268484   8.006   3.507   3.935
22748WAT      O68485   6.376   8.982   5.586
22748WAT     H168486   6.312   8.982   5.509
22748WAT     H268487   6.326   9.006   5.670
22749WAT      O68488   1.944   7.314   3.100
22749WAT     H168489   1.925   7.369   3.018
22749WAT     H268490   2.031   7.343   3.140
22750WAT      O68491   7.626   4.616   6.421
22750WAT     H168492   7.680   4.538   6.451
22750WAT     H268493   7.529   4.596   6.432
22751WAT      O68494   8.914   7.081   6.490
22751WAT     H168495   8.968   7.104   6.570
22751WAT     H268496   8.970   7.090   6.408
22752WAT      O68497   7.023   1.112   7.361
22752WAT     H168498   6.977   1.061   7.434
22752WAT     H268499   6.971   1.194   7.340
22753WAT      O68500   7.465   3.528   8.533
22753WAT     H168501   7.540   3.463   8.520
22753WAT     H268502   7.404   3.525   8.454
22754WAT      O68503   1.381   6.334   3.161
22754WAT     H168504   1.430   6.334   3.249
22754WAT     H268505   1.285   6.359   3.177
22755WAT      O68506   8.798   4.350   2.819
22755WAT     H168507   8.801   4.446   2.847
22755WAT     H268508   8.703   4.321   2.809
22756WAT      O68509   5.409   0.758   6.056
22756WAT     H168510   5.349   0.704   6.116
22756WAT     H268511   5.359   0.782   5.973
22757WAT      O68512   9.719   3.573   6.526
22757WAT     H168513   9.649   3.563   6.597
22757WAT     H268514   9.702   3.508   6.452
22758WAT      O68515   0.498   3.343   0.246
22758WAT     H168516   0.497   3.287   0.329
22758WAT     H268517   0.460   3.433   0.267
22759WAT      O68518   9.494   4.108   4.594
22759WAT     H168519   9.503   4.109   4.495
22759WAT     H268520   9.552   4.179   4.634
22760WAT      O68521   2.546   5.570   2.150
22760WAT     H168522   2.458   5.609   2.177
22760WAT     H268523   2.538   5.470   2.145
22761WAT      O68524   2.594   7.907   4.766
22761WAT     H168525   2.648   7.990   4.783
22761WAT     H268526   2.498   7.932   4.758
22762WAT      O68527   3.725   1.452   9.632
22762WAT     H168528   3.683   1.377   9.681
22762WAT     H268529   3.805   1.419   9.582
22763WAT      O68530   6.307   4.940   8.416
22763WAT     H168531   6.209   4.955   8.407
22763WAT     H268532   6.331   4.851   8.376
22764WAT      O68533   7.008   2.984   5.871
22764WAT     H168534   6.914   3.001   5.900
22764WAT     H268535   7.069   2.984   5.950
22765WAT      O68536   4.889   8.562   3.042
22765WAT     H168537   4.932   8.648   3.069
22765WAT     H268538   4.917   8.539   2.949
22766WAT      O68539   3.303   1.912   9.776
22766WAT     H168540   3.375   1.970   9.739
22766WAT     H268541   3.219   1.966   9.787
22767WAT      O68542   8.271   6.792   9.495
22767WAT     H168543   8.279   6.710   9.438
22767WAT     H268544   8.309   6.870   9.445
22768WAT      O68545   7.324   7.925   9.665
22768WAT     H168546   7.281   7.835   9.670
22768WAT     H268547   7.274   7.989   9.723
22769WAT      O68548   4.980   0.833   4.868
22769WAT     H168549   5.050   0.893   4.828
22769WAT     H268550   5.012   0.799   4.956
22770WAT      O68551   4.588   3.897   9.017
22770WAT     H168552   4.547   3.824   8.962
22770WAT     H268553   4.686   3.879   9.028
22771WAT      O68554   2.419   7.656   0.574
22771WAT     H168555   2.448   7.741   0.617
22771WAT     H268556   2.357   7.607   0.636
22772WAT      O68557   6.032   6.794   6.941
22772WAT     H168558   6.030   6.765   7.037
22772WAT     H268559   5.960   6.862   6.926
22773WAT      O68560   1.966   1.046   8.135
22773WAT     H168561   2.045   0.997   8.170
22773WAT     H268562   1.882   1.000   8.166
22774WAT      O68563   3.947   8.915   6.024
22774WAT     H168564   3.887   8.991   6.000
22774WAT     H268565   4.042   8.942   6.009
22775WAT      O68566   1.777   1.300   9.311
22775WAT     H168567   1.706   1.352   9.264
22775WAT     H268568   1.815   1.356   9.384
22776WAT      O68569   5.228   2.024   3.856
22776WAT     H168570   5.273   1.947   3.901
22776WAT     H268571   5.281   2.107   3.870
22777WAT      O68572   6.743   5.288   6.298
22777WAT     H168573   6.713   5.363   6.357
22777WAT     H268574   6.702   5.298   6.208
22778WAT      O68575   3.402   0.368   5.155
22778WAT     H168576   3.399   0.395   5.252
22778WAT     H268577   3.317   0.397   5.111
22779WAT      O68578   0.415   5.933   1.933
22779WAT     H168579   0.378   5.841   1.919
22779WAT     H268580   0.364   5.978   2.007
22780WAT      O68581   9.514   3.778   5.439
22780WAT     H168582   9.543   3.865   5.478
22780WAT     H268583   9.531   3.705   5.505
22781WAT      O68584   7.445   9.427   4.522
22781WAT     H168585   7.470   9.435   4.618
22781WAT     H268586   7.508   9.364   4.476
22782WAT      O68587   2.443   5.415   7.650
22782WAT     H168588   2.480   5.484   7.587
22782WAT     H268589   2.382   5.459   7.715
22783WAT      O68590   7.927   0.798   4.012
22783WAT     H168591   7.833   0.826   4.031
22783WAT     H268592   7.963   0.748   4.091
22784WAT      O68593   7.540   9.683   1.374
22784WAT     H168594   7.481   9.761   1.396
22784WAT     H268595   7.544   9.622   1.453
22785WAT      O68596   5.487   3.959   6.082
22785WAT     H168597   5.394   3.965   6.046
22785WAT     H268598   5.552   3.981   6.009
22786WAT      O68599   4.013   0.239   1.709
22786WAT     H168600   4.012   0.226   1.610
22786WAT     H268601   4.107   0.243   1.742
22787WAT      O68602   8.337   6.826   1.393
22787WAT     H168603   8.326   6.727   1.407
22787WAT     H268604   8.272   6.857   1.323
22788WAT      O68605   7.395   4.040   3.985
22788WAT     H168606   7.318   4.103   3.995
22788WAT     H268607   7.404   4.013   3.889
22789WAT      O68608   7.264   3.633   2.506
22789WAT     H168609   7.260   3.537   2.534
22789WAT     H268610   7.359   3.664   2.505
22790WAT      O68611   3.778   7.291   9.695
22790WAT     H168612   3.698   7.337   9.656
22790WAT     H268613   3.845   7.360   9.723
22791WAT      O68614   2.270   4.257   1.892
22791WAT     H168615   2.263   4.325   1.964
22791WAT     H268616   2.366   4.244   1.868
22792WAT      O68617   9.734   0.572   1.730
22792WAT     H168618   9.685   0.568   1.817
22792WAT     H268619   9.709   0.492   1.674
22793WAT      O68620   7.770   0.250   2.044
22793WAT     H168621   7.861   0.276   2.076
22793WAT     H268622   7.726   0.329   2.002
22794WAT      O68623   6.137   5.942   8.542
22794WAT     H168624   6.198   5.934   8.621
22794WAT     H268625   6.187   5.983   8.466
22795WAT      O68626   2.213   7.265   2.392
22795WAT     H168627   2.219   7.222   2.301
22795WAT     H268628   2.261   7.208   2.459
22796WAT      O68629   5.914   5.267   2.781
22796WAT     H168630   5.956   5.183   2.815
22796WAT     H268631   5.829   5.285   2.829
22797WAT      O68632   9.507   3.697   3.637
22797WAT     H168633   9.410   3.718   3.623
22797WAT     H268634   9.524   3.686   3.735
22798WAT      O68635   4.123   1.207   7.440
22798WAT     H168636   4.179   1.126   7.459
22798WAT     H268637   4.176   1.289   7.461
22799WAT      O68638   4.916   4.136   0.807
22799WAT     H168639   4.831   4.139   0.859
22799WAT     H268640   4.952   4.043   0.805
22800WAT      O68641   5.320   8.393   5.794
22800WAT     H168642   5.323   8.316   5.857
22800WAT     H268643   5.278   8.472   5.839
22801WAT      O68644   8.742   4.292   4.228
22801WAT     H168645   8.816   4.225   4.240
22801WAT     H268646   8.728   4.342   4.314
22802WAT      O68647   1.318   1.805   2.398
22802WAT     H168648   1.242   1.869   2.408
22802WAT     H268649   1.310   1.756   2.312
22803WAT      O68650   3.233   4.617   2.136
22803WAT     H168651   3.178   4.541   2.103
22803WAT     H268652   3.212   4.634   2.233
22804WAT      O68653   1.912   2.709   2.492
22804WAT     H168654   1.857   2.765   2.554
22804WAT     H268655   1.853   2.668   2.423
22805WAT      O68656   4.870   6.208   5.987
22805WAT     H168657   4.919   6.291   5.964
22805WAT     H268658   4.773   6.229   6.002
22806WAT      O68659   2.633   4.258   8.469
22806WAT     H168660   2.600   4.220   8.383
22806WAT     H268661   2.644   4.185   8.536
22807WAT      O68662   9.223   5.503   6.898
22807WAT     H168663   9.313   5.547   6.902
22807WAT     H268664   9.219   5.442   6.820
22808WAT      O68665   6.033   7.002   1.495
22808WAT     H168666   6.095   7.061   1.443
22808WAT     H268667   6.086   6.938   1.550
22809WAT      O68668   1.585   5.862   8.334
22809WAT     H168669   1.490   5.833   8.328
22809WAT     H268670   1.625   5.828   8.419
22810WAT      O68671   7.293   3.581   3.521
22810WAT     H168672   7.374   3.599   3.466
22810WAT     H268673   7.260   3.488   3.504
22811WAT      O68674   2.134   2.020   1.033
22811WAT     H168675   2.178   1.946   0.981
22811WAT     H268676   2.170   2.019   1.126
22812WAT      O68677   3.169   8.480   8.510
22812WAT     H168678   3.247   8.540   8.490
22812WAT     H268679   3.138   8.436   8.426
22813WAT      O68680   7.260   0.093   8.502
22813WAT     H168681   7.179   0.150   8.487
22813WAT     H268682   7.264   0.065   8.598
22814WAT      O68683   8.149   3.468   9.389
22814WAT     H168684   8.229   3.410   9.375
22814WAT     H268685   8.071   3.410   9.416
22815WAT      O68686   8.585   3.951   9.512
22815WAT     H168687   8.486   3.962   9.509
22815WAT     H268688   8.628   4.031   9.470
22816WAT      O68689   0.767   4.795   6.594
22816WAT     H168690   0.668   4.781   6.590
22816WAT     H268691   0.787   4.891   6.609
22817WAT      O68692   1.653   2.975   1.570
22817WAT     H168693   1.712   2.906   1.614
22817WAT     H268694   1.698   3.009   1.488
22818WAT      O68695   9.365   1.964   5.645
22818WAT     H168696   9.319   1.881   5.614
22818WAT     H268697   9.435   1.941   5.712
22819WAT      O68698   2.515   0.898   0.197
22819WAT     H168699   2.538   0.994   0.213
22819WAT     H268700   2.430   0.875   0.245
22820WAT      O68701   4.672   1.128   8.540
22820WAT     H168702   4.573   1.132   8.555
22820WAT     H268703   4.704   1.034   8.548
22821WAT      O68704   7.986   0.413   7.415
22821WAT     H168705   7.981   0.335   7.477
22821WAT     H268706   8.079   0.451   7.416
22822WAT      O68707   2.311   7.990   8.026
22822WAT     H168708   2.398   8.037   8.011
22822WAT     H268709   2.253   8.045   8.087
22823WAT      O68710   7.305   0.719   9.077
22823WAT     H168711   7.294   0.813   9.109
22823WAT     H268712   7.356   0.719   8.991
22824WAT      O68713   0.848   2.802   0.905
22824WAT     H168714   0.805   2.883   0.865
22824WAT     H268715   0.816   2.791   0.999
22825WAT      O68716   4.267   6.958   5.914
22825WAT     H168717   4.325   7.039   5.927
22825WAT     H268718   4.184   6.984   5.866
22826WAT      O68719   3.316   9.154   7.006
22826WAT     H168720   3.341   9.062   6.973
22826WAT     H268721   3.315   9.218   6.929
22827WAT      O68722   8.519   1.928   1.049
22827WAT     H168723   8.598   1.946   0.991
22827WAT     H268724   8.449   1.881   0.996
22828WAT      O68725   8.869   6.105   3.934
22828WAT     H168726   8.855   6.201   3.911
22828WAT     H268727   8.795   6.074   3.993
22829WAT      O68728   7.900   5.469   4.159
22829WAT     H168729   7.960   5.414   4.217
22829WAT     H268730   7.892   5.561   4.197
22830WAT      O68731   7.395   6.430   5.994
22830WAT     H168732   7.439   6.452   6.081
22830WAT     H268733   7.460   6.442   5.919
22831WAT      O68734   7.188   0.038   3.745
22831WAT     H168735   7.244  -0.008   3.676
22831WAT     H268736   7.096   0.001   3.745
22832WAT      O68737   6.405   9.451   1.600
22832WAT     H168738   6.389   9.352   1.604
22832WAT     H268739   6.498   9.471   1.630
22833WAT      O68740   8.270   0.407   0.823
22833WAT     H168741   8.298   0.414   0.919
22833WAT     H268742   8.337   0.454   0.766
22834WAT      O68743   2.333   4.344   2.976
22834WAT     H168744   2.265   4.285   2.934
22834WAT     H268745   2.423   4.328   2.934
22835WAT      O68746   1.678   1.810   9.027
22835WAT     H168747   1.728   1.851   8.951
22835WAT     H268748   1.737   1.808   9.108
22836WAT      O68749   7.845   3.089   1.775
22836WAT     H168750   7.767   3.075   1.836
22836WAT     H268751   7.920   3.028   1.802
22837WAT      O68752   7.767   1.073   5.084
22837WAT     H168753   7.840   1.131   5.121
22837WAT     H268754   7.808   0.998   5.032
22838WAT      O68755   4.428   3.305   2.168
22838WAT     H168756   4.489   3.371   2.213
22838WAT     H268757   4.472   3.215   2.166
22839WAT      O68758   9.765   1.611   9.502
22839WAT     H168759   9.720   1.682   9.447
22839WAT     H268760   9.864   1.617   9.490
22840WAT      O68761   1.138   2.736   0.595
22840WAT     H168762   1.188   2.801   0.652
22840WAT     H268763   1.131   2.649   0.643
22841WAT      O68764   5.897   3.609   8.991
22841WAT     H168765   5.932   3.656   8.910
22841WAT     H268766   5.891   3.511   8.972
22842WAT      O68767   2.010   8.125   8.434
22842WAT     H168768   2.081   8.096   8.370
22842WAT     H268769   1.987   8.048   8.494
22843WAT      O68770   7.427   3.697   6.857
22843WAT     H168771   7.519   3.664   6.838
22843WAT     H268772   7.414   3.787   6.817
22844WAT      O68773   7.508   8.322   2.022
22844WAT     H168774   7.564   8.361   2.095
22844WAT     H268775   7.474   8.396   1.964
22845WAT      O68776   3.438   0.927   0.876
22845WAT     H168777   3.417   0.928   0.973
22845WAT     H268778   3.509   0.858   0.858
22846WAT      O68779   8.651   0.290   6.642
22846WAT     H168780   8.590   0.316   6.717
22846WAT     H268781   8.711   0.215   6.673
22847WAT      O68782   5.328   3.752   7.403
22847WAT     H168783   5.312   3.692   7.481
22847WAT     H268784   5.343   3.845   7.435
22848WAT      O68785   1.915   4.687   3.532
22848WAT     H168786   1.826   4.713   3.570
22848WAT     H268787   1.923   4.588   3.532
22849WAT      O68788   9.891   8.337   1.572
22849WAT     H168789   9.910   8.435   1.569
22849WAT     H268790   9.794   8.321   1.552
22850WAT      O68791   2.750   1.878   2.738
22850WAT     H168792   2.729   1.792   2.693
22850WAT     H268793   2.831   1.867   2.795
22851WAT      O68794   5.257   9.232   3.677
22851WAT     H168795   5.176   9.187   3.639
22851WAT     H268796   5.240   9.255   3.773
22852WAT      O68797   9.851   2.669   3.407
22852WAT     H168798   9.885   2.751   3.361
22852WAT     H268799   9.776   2.694   3.468
22853WAT      O68800   8.912   1.861   1.895
22853WAT     H168801   8.965   1.906   1.966
22853WAT     H268802   8.970   1.844   1.815
22854WAT      O68803   2.482   3.455   1.628
22854WAT     H168804   2.399   3.401   1.616
22854WAT     H268805   2.457   3.551   1.639
22855WAT      O68806   4.932   2.724   9.740
22855WAT     H168807   4.887   2.811   9.718
22855WAT     H268808   4.863   2.654   9.759
22856WAT      O68809   3.117   2.074   4.697
22856WAT     H168810   3.098   2.144   4.766
22856WAT     H268811   3.157   2.118   4.616
22857WAT      O68812   3.951   1.994   2.102
22857WAT     H168813   3.897   1.934   2.162
22857WAT     H268814   4.048   1.980   2.120
22858WAT      O68815   8.632   1.839   5.074
22858WAT     H168816   8.568   1.913   5.094
22858WAT     H268817   8.639   1.826   4.975
22859WAT      O68818   4.977   0.597   9.099
22859WAT     H168819   5.061   0.573   9.149
22859WAT     H268820   4.924   0.514   9.081
22860WAT      O68821   8.038   5.625   1.809
22860WAT     H168822   8.094   5.687   1.863
22860WAT     H268823   7.992   5.560   1.869
22861WAT      O68824   1.603   7.458   2.697
22861WAT     H168825   1.507   7.461   2.670
22861WAT     H268826   1.629   7.546   2.737
22862WAT      O68827   1.247   1.701   9.838
22862WAT     H168828   1.345   1.698   9.857
22862WAT     H268829   1.222   1.792   9.804
22863WAT      O68830   3.143   7.391   8.280
22863WAT     H168831   3.145   7.446   8.197
22863WAT     H268832   3.061   7.413   8.332
22864WAT      O68833   3.432   4.248   6.961
22864WAT     H168834   3.380   4.179   6.910
22864WAT     H268835   3.462   4.320   6.898
22865WAT      O68836   0.130   5.251   9.709
22865WAT     H168837   0.098   5.157   9.697
22865WAT     H268838   0.096   5.287   9.796
22866WAT      O68839   9.784   0.557   7.153
22866WAT     H168840   9.845   0.498   7.100
22866WAT     H268841   9.690   0.523   7.147
22867WAT      O68842   5.060   1.364   2.286
22867WAT     H168843   5.097   1.342   2.376
22867WAT     H268844   4.999   1.291   2.256
22868WAT      O68845   9.294   5.174   4.227
22868WAT     H168846   9.333   5.264   4.244
22868WAT     H268847   9.227   5.152   4.298
22869WAT      O68848   7.966   4.654   5.263
22869WAT     H168849   7.879   4.704   5.264
22869WAT     H268850   7.979   4.609   5.175
22870WAT      O68851   7.328   5.726   1.152
22870WAT     H168852   7.330   5.626   1.139
22870WAT     H268853   7.233   5.756   1.167
22871WAT      O68854   3.091   2.442   5.676
22871WAT     H168855   3.063   2.362   5.730
22871WAT     H268856   3.183   2.427   5.640
22872WAT      O68857   0.713   5.774   7.942
22872WAT     H168858   0.639   5.728   7.991
22872WAT     H268859   0.675   5.829   7.868
22873WAT      O68860   1.730   5.714   3.958
22873WAT     H168861   1.728   5.775   3.879
22873WAT     H268862   1.637   5.700   3.992
22874WAT      O68863   7.243   8.686   3.234
22874WAT     H168864   7.233   8.641   3.323
22874WAT     H268865   7.166   8.747   3.218
22875WAT      O68866   2.118   0.964   8.633
22875WAT     H168867   2.126   0.868   8.608
22875WAT     H268868   2.124   0.973   8.733
22876WAT      O68869   0.675   4.587   4.361
22876WAT     H168870   0.661   4.545   4.451
22876WAT     H268871   0.722   4.675   4.373
22877WAT      O68872   8.373   0.291   5.317
22877WAT     H168873   8.408   0.201   5.346
22877WAT     H268874   8.275   0.283   5.297
22878WAT      O68875   3.120   5.983   9.228
22878WAT     H168876   3.153   5.961   9.320
22878WAT     H268877   3.185   5.949   9.160
22879WAT      O68878   6.871   9.799   1.088
22879WAT     H168879   6.811   9.741   1.033
22879WAT     H268880   6.838   9.800   1.182
22880WAT      O68881   9.051   0.908   7.227
22880WAT     H168882   9.097   0.967   7.160
22880WAT     H268883   8.982   0.853   7.180
22881WAT      O68884   3.355   1.468   6.608
22881WAT     H168885   3.430   1.477   6.674
22881WAT     H268886   3.392   1.477   6.515
22882WAT      O68887   1.059   8.576   5.341
22882WAT     H168888   0.989   8.537   5.281
22882WAT     H268889   1.140   8.517   5.341
22883WAT      O68890   1.014   7.947   1.792
22883WAT     H168891   0.968   7.886   1.856
22883WAT     H268892   1.106   7.913   1.774
22884WAT      O68893   1.869   0.042   8.510
22884WAT     H168894   1.782   0.090   8.501
22884WAT     H268895   1.852  -0.052   8.541
22885WAT      O68896   5.569   6.208   7.853
22885WAT     H168897   5.493   6.156   7.893
22885WAT     H268898   5.642   6.218   7.920
22886WAT      O68899   4.086   1.989   7.445
22886WAT     H168900   4.145   1.920   7.402
22886WAT     H268901   4.010   1.943   7.491
22887WAT      O68902   7.276   7.864   2.128
22887WAT     H168903   7.373   7.840   2.119
22887WAT     H268904   7.245   7.842   2.221
22888WAT      O68905   6.169   8.405   3.057
22888WAT     H168906   6.090   8.367   3.010
22888WAT     H268907   6.138   8.473   3.124
22889WAT      O68908   4.884   8.601   8.614
22889WAT     H168909   4.848   8.635   8.527
22889WAT     H268910   4.862   8.666   8.687
22890WAT      O68911   8.763   0.803   0.595
22890WAT     H168912   8.859   0.821   0.617
22890WAT     H268913   8.754   0.711   0.557
22891WAT      O68914   9.729   1.696   0.981
22891WAT     H168915   9.702   1.651   1.066
22891WAT     H268916   9.678   1.656   0.905
22892WAT      O68917   7.842   8.026   6.718
22892WAT     H168918   7.932   8.067   6.737
22892WAT     H268919   7.855   7.942   6.663
22893WAT      O68920   9.820   4.902   4.903
22893WAT     H168921   9.740   4.860   4.947
22893WAT     H268922   9.868   4.834   4.849
22894WAT      O68923   7.606   2.682   5.498
22894WAT     H168924   7.507   2.671   5.485
22894WAT     H268925   7.639   2.755   5.439
22895WAT      O68926   8.687   8.296   0.583
22895WAT     H168927   8.675   8.246   0.669
22895WAT     H268928   8.646   8.387   0.591
22896WAT      O68929   1.506   8.097   0.314
22896WAT     H168930   1.464   8.119   0.402
22896WAT     H268931   1.580   8.162   0.295
22897WAT      O68932   5.079   8.965   7.936
22897WAT     H168933   5.056   8.883   7.988
22897WAT     H268934   5.061   8.949   7.839
22898WAT      O68935   5.355   2.317   8.667
22898WAT     H168936   5.327   2.333   8.762
22898WAT     H268937   5.307   2.380   8.607
22899WAT      O68938   6.436   2.149   1.937
22899WAT     H168939   6.416   2.243   1.909
22899WAT     H268940   6.515   2.116   1.886
22900WAT      O68941   7.126   5.063   8.285
22900WAT     H168942   7.078   4.982   8.318
22900WAT     H268943   7.097   5.082   8.191
22901WAT      O68944   6.613   1.037   0.531
22901WAT     H168945   6.676   1.109   0.560
22901WAT     H268946   6.539   1.027   0.597
22902WAT      O68947   5.217   5.181   4.299
22902WAT     H168948   5.315   5.173   4.318
22902WAT     H268949   5.176   5.246   4.363
22903WAT      O68950   3.680   0.137   0.499
22903WAT     H168951   3.640   0.072   0.435
22903WAT     H268952   3.710   0.219   0.450
22904WAT      O68953   1.308   9.605   0.818
22904WAT     H168954   1.367   9.673   0.775
22904WAT     H268955   1.265   9.644   0.899
22905WAT      O68956   9.251   0.778   7.353
22905WAT     H168957   9.262   0.684   7.320
22905WAT     H268958   9.176   0.822   7.303
22906WAT      O68959   8.507   3.810   3.624
22906WAT     H168960   8.439   3.819   3.551
22906WAT     H268961   8.515   3.898   3.672
22907WAT      O68962   9.577   4.648   1.857
22907WAT     H168963   9.620   4.633   1.767
22907WAT     H268964   9.481   4.621   1.852
22908WAT      O68965   3.325   0.232   3.309
22908WAT     H168966   3.239   0.182   3.318
22908WAT     H268967   3.394   0.173   3.266
22909WAT      O68968   9.043   0.585   1.454
22909WAT     H168969   8.946   0.559   1.448
22909WAT     H268970   9.086   0.575   1.364
22910WAT      O68971   4.812   1.432   2.597
22910WAT     H168972   4.836   1.450   2.502
22910WAT     H268973   4.798   1.334   2.610
22911WAT      O68974   0.868   1.684   8.668
22911WAT     H168975   0.824   1.632   8.595
22911WAT     H268976   0.871   1.781   8.643
22912WAT      O68977   8.671   6.470   0.771
22912WAT     H168978   8.634   6.507   0.686
22912WAT     H268979   8.710   6.545   0.825
22913WAT      O68980   3.138   1.708   2.433
22913WAT     H168981   3.099   1.616   2.422
22913WAT     H268982   3.076   1.764   2.488
22914WAT      O68983   7.571   3.645   2.944
22914WAT     H168984   7.667   3.618   2.944
22914WAT     H268985   7.562   3.740   2.915
22915WAT      O68986   4.135   4.568   1.745
22915WAT     H168987   4.206   4.582   1.677
22915WAT     H268988   4.051   4.536   1.700
22916WAT      O68989   6.116   2.058   9.213
22916WAT     H168990   6.069   2.048   9.126
22916WAT     H268991   6.063   2.119   9.273
22917WAT      O68992   7.765   4.202   1.904
22917WAT     H168993   7.712   4.154   1.834
22917WAT     H268994   7.827   4.267   1.860
22918WAT      O68995   4.996   0.665   0.595
22918WAT     H168996   5.096   0.666   0.586
22918WAT     H268997   4.968   0.587   0.651
22919WAT      O68998   8.213   9.206   2.251
22919WAT     H168999   8.305   9.194   2.213
22919WAT     H269000   8.145   9.193   2.180
22920WAT      O69001   9.200   0.478   0.011
22920WAT     H169002   9.294   0.511   0.016
22920WAT     H269003   9.197   0.381   0.034
22921WAT      O69004   5.175   1.061   5.626
22921WAT     H169005   5.253   1.106   5.583
22921WAT     H269006   5.206   1.004   5.701
22922WAT      O69007   3.537   3.106   4.897
22922WAT     H169008   3.533   3.196   4.941
22922WAT     H269009   3.602   3.048   4.946
22923WAT      O69010   2.630   9.420   8.607
22923WAT     H169011   2.728   9.440   8.600
22923WAT     H269012   2.615   9.352   8.678
22924WAT      O69013   0.944   2.123   3.541
22924WAT     H169014   0.985   2.052   3.484
22924WAT     H269015   0.968   2.106   3.637
22925WAT      O69016   8.218   3.669   1.877
22925WAT     H169017   8.246   3.751   1.826
22925WAT     H269018   8.137   3.691   1.932
22926WAT      O69019   4.704   8.061   1.732
22926WAT     H169020   4.619   8.009   1.744
22926WAT     H269021   4.684   8.145   1.681
22927WAT      O69022   6.246   1.599   5.418
22927WAT     H169023   6.280   1.561   5.504
22927WAT     H269024   6.176   1.668   5.437
22928WAT      O69025   0.821   0.677   5.186
22928WAT     H169026   0.846   0.678   5.089
22928WAT     H269027   0.721   0.673   5.195
22929WAT      O69028   5.035   5.632   7.236
22929WAT     H169029   4.938   5.645   7.216
22929WAT     H269030   5.089   5.657   7.155
22930WAT      O69031   5.708   0.229   8.167
22930WAT     H169032   5.676   0.314   8.210
22930WAT     H269033   5.804   0.239   8.141
22931WAT      O69034   1.775   0.382   5.569
22931WAT     H169035   1.870   0.409   5.554
22931WAT     H269036   1.745   0.324   5.493
22932WAT      O69037   2.801   8.930   6.042
22932WAT     H169038   2.868   8.876   6.092
22932WAT     H269039   2.841   9.017   6.014
22933WAT      O69040   0.808   0.036   0.200
22933WAT     H169041   0.811   0.103   0.126
22933WAT     H269042   0.899  -0.004   0.212
22934WAT      O69043   5.702   2.981   3.945
22934WAT     H169044   5.679   2.907   3.882
22934WAT     H269045   5.797   3.010   3.929
22935WAT      O69046   8.244   4.085   0.313
22935WAT     H169047   8.251   4.028   0.394
22935WAT     H269048   8.280   4.177   0.333
22936WAT      O69049   4.686   6.944   7.960
22936WAT     H169050   4.772   6.899   7.940
22936WAT     H269051   4.658   7.000   7.882
22937WAT      O69052   8.338   2.103   1.902
22937WAT     H169053   8.403   2.146   1.840
22937WAT     H269054   8.387   2.066   1.981
22938WAT      O69055   9.499   4.031   9.048
22938WAT     H169056   9.569   4.102   9.048
22938WAT     H269057   9.497   3.986   9.138
22939WAT      O69058   3.711   9.124   4.545
22939WAT     H169059   3.799   9.078   4.549
22939WAT     H269060   3.708   9.184   4.464
22940WAT      O69061   4.935   4.678   2.761
22940WAT     H169062   4.912   4.594   2.811
22940WAT     H269063   4.920   4.663   2.663
22941WAT      O69064   4.727   7.610   3.531
22941WAT     H169065   4.666   7.622   3.453
22941WAT     H269066   4.676   7.627   3.616
22942WAT      O69067   3.764   1.710   4.988
22942WAT     H169068   3.861   1.729   5.004
22942WAT     H269069   3.751   1.611   4.976
22943WAT      O69070   3.521   2.109   5.575
22943WAT     H169071   3.508   2.024   5.524
22943WAT     H269072   3.617   2.118   5.601
22944WAT      O69073   9.173   9.662   7.593
22944WAT     H169074   9.079   9.640   7.567
22944WAT     H269075   9.171   9.735   7.662
22945WAT      O69076   2.390   8.027   4.142
22945WAT     H169077   2.400   7.936   4.101
22945WAT     H269078   2.472   8.050   4.193
22946WAT      O69079   4.121   6.738   3.800
22946WAT     H169080   4.033   6.745   3.753
22946WAT     H269081   4.195   6.759   3.737
22947WAT      O69082   1.345   8.367   3.728
22947WAT     H169083   1.330   8.314   3.811
22947WAT     H269084   1.412   8.320   3.670
22948WAT      O69085   9.508   8.171   1.407
22948WAT     H169086   9.462   8.095   1.360
22948WAT     H269087   9.519   8.248   1.344
22949WAT      O69088   9.159   6.588   1.522
22949WAT     H169089   9.089   6.630   1.580
22949WAT     H269090   9.168   6.640   1.437
22950WAT      O69091   6.782   0.631   5.118
22950WAT     H169092   6.729   0.578   5.052
22950WAT     H269093   6.723   0.662   5.192
22951WAT      O69094   5.009   9.714   1.104
22951WAT     H169095   5.094   9.758   1.075
22951WAT     H269096   4.934   9.779   1.099
22952WAT      O69097   4.778   1.418   5.188
22952WAT     H169098   4.785   1.334   5.242
22952WAT     H269099   4.682   1.445   5.181
22953WAT      O69100   4.298   8.769   3.038
22953WAT     H169101   4.267   8.702   3.105
22953WAT     H269102   4.270   8.861   3.068
22954WAT      O69103   9.710   7.324   8.039
22954WAT     H169104   9.807   7.318   8.014
22954WAT     H269105   9.654   7.298   7.960
22955WAT      O69106   9.688   4.261   8.981
22955WAT     H169107   9.735   4.268   9.069
22955WAT     H269108   9.629   4.341   8.968
22956WAT      O69109   2.169   7.782   6.806
22956WAT     H169110   2.099   7.828   6.861
22956WAT     H269111   2.240   7.848   6.782
22957WAT      O69112   9.262   4.052   0.143
22957WAT     H169113   9.181   4.006   0.180
22957WAT     H269114   9.314   3.988   0.087
22958WAT      O69115   3.380   7.861   4.113
22958WAT     H169116   3.305   7.922   4.091
22958WAT     H269117   3.442   7.905   4.178
22959WAT      O69118   9.322   4.285   6.948
22959WAT     H169119   9.282   4.209   6.897
22959WAT     H269120   9.351   4.356   6.883
22960WAT      O69121   8.022   8.009   4.367
22960WAT     H169122   8.019   7.952   4.448
22960WAT     H269123   8.063   7.958   4.291
22961WAT      O69124   2.040   3.208   4.018
22961WAT     H169125   2.059   3.281   3.951
22961WAT     H269126   2.126   3.166   4.047
22962WAT      O69127   9.751   9.352   7.849
22962WAT     H169128   9.722   9.333   7.943
22962WAT     H269129   9.794   9.443   7.845
22963WAT      O69130   1.251   0.951   9.200
22963WAT     H169131   1.297   1.013   9.263
22963WAT     H269132   1.174   0.998   9.157
22964WAT      O69133   6.540   8.825   8.390
22964WAT     H169134   6.570   8.894   8.455
22964WAT     H269135   6.620   8.783   8.346
22965WAT      O69136   6.988   4.280   5.796
22965WAT     H169137   6.943   4.304   5.710
22965WAT     H269138   6.940   4.324   5.872
22966WAT      O69139   8.938   8.328   7.954
22966WAT     H169140   8.861   8.268   7.931
22966WAT     H269141   8.902   8.418   7.979
22967WAT      O69142   2.829   4.562   8.314
22967WAT     H169143   2.924   4.535   8.335
22967WAT     H269144   2.780   4.579   8.400
22968WAT      O69145   7.756   2.040   2.773
22968WAT     H169146   7.749   1.949   2.732
22968WAT     H269147   7.809   2.035   2.857
22969WAT      O69148   3.210   2.490   5.131
22969WAT     H169149   3.256   2.427   5.068
22969WAT     H269150   3.146   2.439   5.188
22970WAT      O69151   7.985   3.584   9.652
22970WAT     H169152   7.973   3.659   9.719
22970WAT     H269153   7.916   3.514   9.668
22971WAT      O69154   9.094   6.202   4.118
22971WAT     H169155   9.010   6.207   4.065
22971WAT     H269156   9.138   6.114   4.104
22972WAT      O69157   1.705   7.742   7.764
22972WAT     H169158   1.700   7.819   7.828
22972WAT     H269159   1.773   7.762   7.693
22973WAT      O69160   3.350   8.188   5.331
22973WAT     H169161   3.364   8.118   5.401
22973WAT     H269162   3.377   8.152   5.242
22974WAT      O69163   3.761   4.612   8.775
22974WAT     H169164   3.742   4.525   8.821
22974WAT     H269165   3.757   4.598   8.676
22975WAT      O69166   0.412   5.938   9.483
22975WAT     H169167   0.318   5.966   9.465
22975WAT     H269168   0.447   5.885   9.406
22976WAT      O69169   1.422   4.728   5.828
22976WAT     H169170   1.352   4.800   5.826
22976WAT     H269171   1.505   4.760   5.783
22977WAT      O69172   7.658   1.574   1.200
22977WAT     H169173   7.665   1.620   1.111
22977WAT     H269174   7.667   1.475   1.187
22978WAT      O69175   7.400   4.747   4.554
22978WAT     H169176   7.332   4.811   4.518
22978WAT     H269177   7.492   4.786   4.542
22979WAT      O69178   5.820   1.068   9.394
22979WAT     H169179   5.823   1.051   9.295
22979WAT     H269180   5.829   1.166   9.411
22980WAT      O69181   7.454   7.645   5.724
22980WAT     H169182   7.420   7.733   5.690
22980WAT     H269183   7.489   7.657   5.817
22981WAT      O69184   9.369   9.780   4.741
22981WAT     H169185   9.324   9.734   4.664
22981WAT     H269186   9.458   9.815   4.711
22982WAT      O69187   8.902   4.416   2.284
22982WAT     H169188   8.853   4.382   2.204
22982WAT     H269189   8.934   4.509   2.267
22983WAT      O69190   0.528   8.326   1.588
22983WAT     H169191   0.567   8.342   1.678
22983WAT     H269192   0.599   8.291   1.527
22984WAT      O69193   2.745   5.515   0.795
22984WAT     H169194   2.665   5.531   0.737
22984WAT     H269195   2.802   5.444   0.755
22985WAT      O69196   1.051   5.317   5.876
22985WAT     H169197   1.092   5.267   5.952
22985WAT     H269198   1.120   5.373   5.830
22986WAT      O69199   5.013   8.510   2.160
22986WAT     H169200   5.070   8.496   2.241
22986WAT     H269201   5.066   8.556   2.089
22987WAT      O69202   5.813   3.488   6.853
22987WAT     H169203   5.757   3.498   6.936
22987WAT     H269204   5.852   3.396   6.851
22988WAT      O69205   0.314   5.950   7.012
22988WAT     H169206   0.238   5.912   7.066
22988WAT     H269207   0.279   5.986   6.926
22989WAT      O69208   9.300   2.162   3.012
22989WAT     H169209   9.248   2.079   3.032
22989WAT     H269210   9.397   2.139   3.004
22990WAT      O69211   9.270   3.228   9.082
22990WAT     H169212   9.357   3.203   9.040
22990WAT     H269213   9.219   3.288   9.020
22991WAT      O69214   3.026   5.809   3.385
22991WAT     H169215   3.126   5.809   3.378
22991WAT     H269216   2.998   5.866   3.463
22992WAT      O69217   7.041   8.814   3.896
22992WAT     H169218   7.064   8.857   3.983
22992WAT     H269219   7.107   8.741   3.877
22993WAT      O69220   6.320   6.705   9.394
22993WAT     H169221   6.310   6.713   9.493
22993WAT     H269222   6.251   6.643   9.358
22994WAT      O69223   7.525   7.641   5.989
22994WAT     H169224   7.592   7.705   6.026
22994WAT     H269225   7.533   7.553   6.037
22995WAT      O69226   3.982   8.900   2.710
22995WAT     H169227   3.912   8.861   2.650
22995WAT     H269228   3.954   8.991   2.740
22996WAT      O69229   4.613   2.925   1.207
22996WAT     H169230   4.692   2.896   1.154
22996WAT     H269231   4.574   2.846   1.255
22997WAT      O69232   1.739   5.249   4.935
22997WAT     H169233   1.749   5.150   4.945
22997WAT     H269234   1.829   5.292   4.944
22998WAT      O69235   1.211   1.414   8.087
22998WAT     H169236   1.271   1.464   8.024
22998WAT     H269237   1.209   1.462   8.175
22999WAT      O69238   5.639   0.254   2.512
22999WAT     H169239   5.585   0.253   2.596
22999WAT     H269240   5.719   0.196   2.523
23000WAT      O69241   5.743   8.845   0.855
23000WAT     H169242   5.837   8.832   0.824
23000WAT     H269243   5.702   8.756   0.876
23001WAT      O69244   0.518   2.928   7.793
23001WAT     H169245   0.542   2.999   7.860
23001WAT     H269246   0.557   2.841   7.821
23002WAT      O69247   5.917   1.718   3.236
23002WAT     H169248   5.863   1.650   3.285
23002WAT     H269249   5.888   1.721   3.140
23003WAT      O69250   5.752   7.007   0.136
23003WAT     H169251   5.688   6.986   0.211
23003WAT     H269252   5.748   7.105   0.116
23004WAT      O69253   8.541   4.391   1.808
23004WAT     H169254   8.636   4.415   1.831
23004WAT     H269255   8.479   4.430   1.876
23005WAT      O69256   4.167   0.695   5.459
23005WAT     H169257   4.182   0.656   5.368
23005WAT     H269258   4.253   0.734   5.492
23006WAT      O69259   0.854   1.966   8.632
23006WAT     H169260   0.879   1.990   8.726
23006WAT     H269261   0.871   2.045   8.572
23007WAT      O69262   1.035   3.033   3.030
23007WAT     H169263   1.059   2.944   2.992
23007WAT     H269264   1.111   3.097   3.016
23008WAT      O69265   7.136   3.163   6.212
23008WAT     H169266   7.097   3.230   6.149
23008WAT     H269267   7.142   3.203   6.304
23009WAT      O69268   3.384   6.236   4.584
23009WAT     H169269   3.358   6.327   4.615
23009WAT     H269270   3.301   6.182   4.567
23010WAT      O69271   5.043   8.621   3.674
23010WAT     H169272   5.130   8.655   3.712
23010WAT     H269273   5.063   8.557   3.599
23011WAT      O69274   1.167   0.361   2.099
23011WAT     H169275   1.235   0.400   2.037
23011WAT     H269276   1.110   0.435   2.136
23012WAT      O69277   2.858   4.803   4.279
23012WAT     H169278   2.913   4.749   4.214
23012WAT     H269279   2.771   4.757   4.294
23013WAT      O69280   9.653   9.130   2.959
23013WAT     H169281   9.744   9.116   2.921
23013WAT     H269282   9.597   9.049   2.940
23014WAT      O69283   2.417   7.286   0.600
23014WAT     H169284   2.405   7.257   0.505
23014WAT     H269285   2.353   7.360   0.620
23015WAT      O69286   3.093   2.901   2.710
23015WAT     H169287   3.067   2.905   2.807
23015WAT     H269288   3.047   2.824   2.667
23016WAT      O69289   5.201   1.259   8.099
23016WAT     H169290   5.272   1.194   8.127
23016WAT     H269291   5.119   1.246   8.155
23017WAT      O69292   1.660   1.031   4.413
23017WAT     H169293   1.729   0.966   4.444
23017WAT     H269294   1.586   1.036   4.481
23018WAT      O69295   0.771   4.175   0.972
23018WAT     H169296   0.840   4.209   1.036
23018WAT     H269297   0.728   4.252   0.925
23019WAT      O69298   7.727   2.688   7.018
23019WAT     H169299   7.648   2.679   7.078
23019WAT     H269300   7.799   2.740   7.065
23020WAT      O69301   3.938   5.544   4.682
23020WAT     H169302   3.960   5.541   4.584
23020WAT     H269303   3.846   5.583   4.693
23021WAT      O69304   8.486   1.427   6.617
23021WAT     H169305   8.475   1.444   6.518
23021WAT     H269306   8.581   1.406   6.637
23022WAT      O69307   2.123   9.161   4.102
23022WAT     H169308   2.024   9.173   4.117
23022WAT     H269309   2.173   9.208   4.174
23023WAT      O69310   7.650   5.406   3.961
23023WAT     H169311   7.672   5.375   3.869
23023WAT     H269312   7.732   5.404   4.018
23024WAT      O69313   5.772   0.678   2.962
23024WAT     H169314   5.764   0.746   2.889
23024WAT     H269315   5.787   0.725   3.049
23025WAT      O69316   3.963   7.489   9.769
23025WAT     H169317   4.025   7.547   9.717
23025WAT     H269318   4.012   7.451   9.848
23026WAT      O69319   2.282   7.355   1.828
23026WAT     H169320   2.237   7.383   1.743
23026WAT     H269321   2.224   7.381   1.905
23027WAT      O69322   0.927   3.660   4.240
23027WAT     H169323   0.847   3.712   4.273
23027WAT     H269324   0.968   3.709   4.164
23028WAT      O69325   2.843   2.911   9.801
23028WAT     H169326   2.869   2.814   9.804
23028WAT     H269327   2.882   2.953   9.719
23029WAT      O69328   4.271   3.754   8.001
23029WAT     H169329   4.311   3.798   8.081
23029WAT     H269330   4.329   3.770   7.921
23030WAT      O69331   0.680   8.741   7.295
23030WAT     H169332   0.773   8.776   7.283
23030WAT     H269333   0.622   8.812   7.335
23031WAT      O69334   4.473   1.252   3.353
23031WAT     H169335   4.398   1.317   3.345
23031WAT     H269336   4.525   1.251   3.267
23032WAT      O69337   7.641   4.013   9.804
23032WAT     H169338   7.631   4.037   9.708
23032WAT     H269339   7.644   4.096   9.859
23033WAT      O69340   1.780   2.544   4.251
23033WAT     H169341   1.687   2.552   4.286
23033WAT     H269342   1.826   2.468   4.299
23034WAT      O69343   0.866   2.601   5.827
23034WAT     H169344   0.855   2.617   5.925
23034WAT     H269345   0.813   2.520   5.800
23035WAT      O69346   9.338   4.944   8.249
23035WAT     H169347   9.337   4.846   8.269
23035WAT     H269348   9.372   4.994   8.329
23036WAT      O69349   5.973   4.917   2.469
23036WAT     H169350   5.945   5.004   2.429
23036WAT     H269351   5.939   4.911   2.563
23037WAT      O69352   5.604   7.920   0.615
23037WAT     H169353   5.637   7.904   0.522
23037WAT     H269354   5.534   7.991   0.613
23038WAT      O69355   4.734   0.157   0.105
23038WAT     H169356   4.651   0.212   0.091
23038WAT     H269357   4.806   0.191   0.045
23039WAT      O69358   6.658   2.631   4.353
23039WAT     H169359   6.669   2.533   4.366
23039WAT     H269360   6.710   2.660   4.272
23040WAT      O69361   6.158   9.503   0.478
23040WAT     H169362   6.246   9.461   0.456
23040WAT     H269363   6.174   9.585   0.534
23041WAT      O69364   7.054   1.166   6.872
23041WAT     H169365   7.053   1.256   6.916
23041WAT     H269366   7.075   1.096   6.940
23042WAT      O69367   2.163   1.021   6.534
23042WAT     H169368   2.245   1.053   6.487
23042WAT     H269369   2.142   1.083   6.610
23043WAT      O69370   8.496   9.524   3.168
23043WAT     H169371   8.570   9.514   3.101
23043WAT     H269372   8.447   9.609   3.151
23044WAT      O69373   5.722   6.101   4.774
23044WAT     H169374   5.682   6.013   4.750
23044WAT     H269375   5.744   6.152   4.691
23045WAT      O69376   1.789   1.977   6.122
23045WAT     H169377   1.886   1.980   6.098
23045WAT     H269378   1.737   2.027   6.052
23046WAT      O69379   8.885   6.095   3.125
23046WAT     H169380   8.964   6.120   3.181
23046WAT     H269381   8.897   6.131   3.033
23047WAT      O69382   5.417   5.010   3.919
23047WAT     H169383   5.319   5.012   3.940
23047WAT     H269384   5.434   4.946   3.845
23048WAT      O69385   6.776   4.170   1.617
23048WAT     H169386   6.817   4.216   1.538
23048WAT     H269387   6.767   4.072   1.597
23049WAT      O69388   2.706   3.543   8.161
23049WAT     H169389   2.732   3.456   8.117
23049WAT     H269390   2.741   3.619   8.107
23050WAT      O69391   6.154   5.341   4.015
23050WAT     H169392   6.056   5.341   4.034
23050WAT     H269393   6.177   5.261   3.960
23051WAT      O69394   1.419   4.075   6.500
23051WAT     H169395   1.461   4.147   6.555
23051WAT     H269396   1.321   4.093   6.490
23052WAT      O69397   5.760   4.459   7.538
23052WAT     H169398   5.833   4.528   7.537
23052WAT     H269399   5.787   4.382   7.596
23053WAT      O69400   4.197   4.099   5.706
23053WAT     H169401   4.196   4.099   5.806
23053WAT     H269402   4.273   4.042   5.675
23054WAT      O69403   5.154   0.930   2.348
23054WAT     H169404   5.100   1.010   2.374
23054WAT     H269405   5.223   0.912   2.418
23055WAT      O69406   0.369   5.755   1.270
23055WAT     H169407   0.304   5.723   1.339
23055WAT     H269408   0.424   5.678   1.237
23056WAT      O69409   1.755   3.869   8.341
23056WAT     H169410   1.732   3.806   8.268
23056WAT     H269411   1.806   3.947   8.303
23057WAT      O69412   1.997   7.041   3.469
23057WAT     H169413   1.904   7.077   3.457
23057WAT     H269414   2.009   6.958   3.414
23058WAT      O69415   1.495   0.887   1.558
23058WAT     H169416   1.444   0.922   1.636
23058WAT     H269417   1.539   0.800   1.583
23059WAT      O69418   0.030   3.387   0.060
23059WAT     H169419  -0.010   3.440   0.136
23059WAT     H269420   0.107   3.333   0.095
23060WAT      O69421   0.094   9.005   5.123
23060WAT     H169422   0.008   9.035   5.164
23060WAT     H269423   0.075   8.960   5.035
23061WAT      O69424   0.766   9.576   5.416
23061WAT     H169425   0.762   9.665   5.460
23061WAT     H269426   0.862   9.549   5.404
23062WAT      O69427   1.646   5.782   1.029
23062WAT     H169428   1.588   5.763   1.108
23062WAT     H269429   1.671   5.879   1.028
23063WAT      O69430   6.306   3.088   0.052
23063WAT     H169431   6.341   3.177   0.020
23063WAT     H269432   6.206   3.093   0.059
23064WAT      O69433   2.291   2.073   7.016
23064WAT     H169434   2.258   2.084   6.922
23064WAT     H269435   2.391   2.073   7.017
23065WAT      O69436   3.487   4.588   2.765
23065WAT     H169437   3.474   4.549   2.857
23065WAT     H269438   3.427   4.540   2.700
23066WAT      O69439   2.614   4.767   8.337
23066WAT     H169440   2.530   4.818   8.316
23066WAT     H269441   2.690   4.832   8.344
23067WAT      O69442   9.432   8.271   9.813
23067WAT     H169443   9.501   8.309   9.751
23067WAT     H269444   9.370   8.344   9.842
23068WAT      O69445   2.259   4.118   5.465
23068WAT     H169446   2.196   4.126   5.388
23068WAT     H269447   2.298   4.026   5.467
23069WAT      O69448   1.889   8.820   7.804
23069WAT     H169449   1.834   8.865   7.734
23069WAT     H269450   1.928   8.890   7.865
23070WAT      O69451   4.046   3.205   7.663
23070WAT     H169452   4.052   3.167   7.756
23070WAT     H269453   4.132   3.249   7.640
23071WAT      O69454   2.349   7.665   8.948
23071WAT     H169455   2.256   7.635   8.968
23071WAT     H269456   2.409   7.585   8.942
23072WAT      O69457   5.206   9.629   9.740
23072WAT     H169458   5.164   9.708   9.783
23072WAT     H269459   5.193   9.634   9.641
23073WAT      O69460   5.850   6.213   0.144
23073WAT     H169461   5.788   6.135   0.146
23073WAT     H269462   5.799   6.295   0.118
23074WAT      O69463   1.664   4.544   4.934
23074WAT     H169464   1.642   4.547   5.032
23074WAT     H269465   1.648   4.452   4.899
23075WAT      O69466   4.280   8.098   5.095
23075WAT     H169467   4.332   8.178   5.123
23075WAT     H269468   4.182   8.121   5.091
23076WAT      O69469   2.486   7.685   1.523
23076WAT     H169470   2.546   7.617   1.482
23076WAT     H269471   2.473   7.665   1.620
23077WAT      O69472   4.953   3.733   0.147
23077WAT     H169473   4.925   3.808   0.087
23077WAT     H269474   4.949   3.763   0.242
23078WAT      O69475   8.204   5.235   6.356
23078WAT     H169476   8.166   5.269   6.270
23078WAT     H269477   8.138   5.249   6.430
23079WAT      O69478   3.190   0.669   8.015
23079WAT     H169479   3.136   0.595   7.975
23079WAT     H269480   3.283   0.636   8.033
23080WAT      O69481   7.179   2.549   4.794
23080WAT     H169482   7.154   2.505   4.880
23080WAT     H269483   7.254   2.613   4.810
23081WAT      O69484   5.502   4.198   4.810
23081WAT     H169485   5.462   4.141   4.882
23081WAT     H269486   5.602   4.199   4.820
23082WAT      O69487   1.443   7.402   3.446
23082WAT     H169488   1.433   7.459   3.365
23082WAT     H269489   1.495   7.451   3.515
23083WAT      O69490   3.017   1.865   3.979
23083WAT     H169491   3.069   1.849   3.895
23083WAT     H269492   2.980   1.779   4.013
23084WAT      O69493   0.511   4.482   3.320
23084WAT     H169494   0.571   4.551   3.280
23084WAT     H269495   0.422   4.485   3.274
23085WAT      O69496   2.254   7.025   9.405
23085WAT     H169497   2.168   6.976   9.418
23085WAT     H269498   2.323   6.989   9.467
23086WAT      O69499   4.734   7.837   5.056
23086WAT     H169500   4.706   7.930   5.082
23086WAT     H269501   4.656   7.775   5.064
23087WAT      O69502   7.666   2.002   1.293
23087WAT     H169503   7.602   1.938   1.336
23087WAT     H269504   7.728   2.039   1.362
23088WAT      O69505   6.316   1.051   5.306
23088WAT     H169506   6.280   1.120   5.369
23088WAT     H269507   6.395   1.089   5.258
23089WAT      O69508   6.751   4.524   3.052
23089WAT     H169509   6.683   4.538   3.124
23089WAT     H269510   6.801   4.609   3.037
23090WAT      O69511   2.456   0.876   5.138
23090WAT     H169512   2.394   0.808   5.100
23090WAT     H269513   2.455   0.959   5.082
23091WAT      O69514   8.020   2.096   3.855
23091WAT     H169515   7.958   2.141   3.919
23091WAT     H269516   7.985   2.004   3.834
23092WAT      O69517   5.735   0.543   3.372
23092WAT     H169518   5.812   0.481   3.382
23092WAT     H269519   5.676   0.511   3.298
23093WAT      O69520   7.061   0.224   6.966
23093WAT     H169521   7.113   0.307   6.989
23093WAT     H269522   7.070   0.205   6.868
23094WAT      O69523   0.604   8.814   8.526
23094WAT     H169524   0.614   8.793   8.429
23094WAT     H269525   0.655   8.748   8.581
23095WAT      O69526   0.585   9.071   8.452
23095WAT     H169527   0.608   9.117   8.538
23095WAT     H269528   0.586   8.972   8.466
23096WAT      O69529   6.637   4.663   6.322
23096WAT     H169530   6.677   4.627   6.406
23096WAT     H269531   6.623   4.761   6.331
23097WAT      O69532   7.821   9.200   2.299
23097WAT     H169533   7.880   9.138   2.349
23097WAT     H269534   7.756   9.147   2.244
23098WAT      O69535   3.188   2.189   6.582
23098WAT     H169536   3.206   2.280   6.546
23098WAT     H269537   3.095   2.161   6.559
23099WAT      O69538   1.460   0.629   6.550
23099WAT     H169539   1.379   0.578   6.524
23099WAT     H269540   1.541   0.584   6.512
23100WAT      O69541   9.836   2.678   7.097
23100WAT     H169542   9.738   2.684   7.115
23100WAT     H269543   9.860   2.736   7.019
23101WAT      O69544   5.204   6.488   7.925
23101WAT     H169545   5.221   6.433   8.007
23101WAT     H269546   5.274   6.468   7.856
23102WAT      O69547   9.431   9.698   9.081
23102WAT     H169548   9.436   9.641   9.164
23102WAT     H269549   9.346   9.750   9.082
23103WAT      O69550   3.986   8.597   2.569
23103WAT     H169551   3.905   8.654   2.580
23103WAT     H269552   3.998   8.540   2.650
23104WAT      O69553   3.908   2.639   7.534
23104WAT     H169554   3.974   2.585   7.587
23104WAT     H269555   3.833   2.668   7.594
23105WAT      O69556   4.241   4.072   7.526
23105WAT     H169557   4.339   4.055   7.521
23105WAT     H269558   4.222   4.134   7.603
23106WAT      O69559   4.815   1.302   9.841
23106WAT     H169560   4.723   1.293   9.801
23106WAT     H269561   4.825   1.393   9.880
23107WAT      O69562   0.649   2.184   1.980
23107WAT     H169563   0.707   2.261   2.009
23107WAT     H269564   0.697   2.098   1.996
23108WAT      O69565   3.847   0.916   9.289
23108WAT     H169566   3.847   0.817   9.274
23108WAT     H269567   3.882   0.935   9.380
23109WAT      O69568   6.429   7.768   8.922
23109WAT     H169569   6.384   7.790   9.009
23109WAT     H269570   6.421   7.846   8.860
23110WAT      O69571   8.609   3.219   7.061
23110WAT     H169572   8.575   3.228   7.155
23110WAT     H269573   8.620   3.310   7.021
23111WAT      O69574   8.385   7.457   8.809
23111WAT     H169575   8.483   7.448   8.794
23111WAT     H269576   8.336   7.446   8.722
23112WAT      O69577   5.959   7.320   0.571
23112WAT     H169578   5.904   7.294   0.492
23112WAT     H269579   5.965   7.242   0.634
23113WAT      O69580   2.944   0.873   3.963
23113WAT     H169581   2.866   0.829   3.918
23113WAT     H269582   2.964   0.826   4.048
23114WAT      O69583   7.242   5.225   5.994
23114WAT     H169584   7.337   5.232   6.026
23114WAT     H269585   7.194   5.155   6.048
23115WAT      O69586   2.212   5.823   1.091
23115WAT     H169587   2.259   5.798   1.007
23115WAT     H269588   2.198   5.922   1.094
23116WAT      O69589   0.173   7.343   6.363
23116WAT     H169590   0.193   7.412   6.293
23116WAT     H269591   0.247   7.276   6.367
23117WAT      O69592   0.872   3.821   2.353
23117WAT     H169593   0.799   3.874   2.310
23117WAT     H269594   0.903   3.869   2.435
23118WAT      O69595   0.121   3.068   9.250
23118WAT     H169596   0.175   3.064   9.166
23118WAT     H269597   0.153   2.999   9.314
23119WAT      O69598   5.744   2.637   7.147
23119WAT     H169599   5.773   2.664   7.239
23119WAT     H269600   5.662   2.687   7.122
23120WAT      O69601   8.777   1.994   0.909
23120WAT     H169602   8.784   2.081   0.862
23120WAT     H269603   8.861   1.976   0.960
23121WAT      O69604   8.834   5.194   9.737
23121WAT     H169605   8.736   5.195   9.756
23121WAT     H269606   8.875   5.279   9.772
23122WAT      O69607   2.579   4.235   9.719
23122WAT     H169608   2.603   4.287   9.801
23122WAT     H269609   2.655   4.240   9.654
23123WAT      O69610   6.308   4.194   7.533
23123WAT     H169611   6.360   4.246   7.600
23123WAT     H269612   6.346   4.211   7.442
23124WAT      O69613   1.214   1.307   8.922
23124WAT     H169614   1.186   1.375   8.990
23124WAT     H269615   1.288   1.345   8.866
23125WAT      O69616   7.783   1.485   1.816
23125WAT     H169617   7.732   1.490   1.902
23125WAT     H269618   7.720   1.497   1.739
23126WAT      O69619   3.406   5.773   7.642
23126WAT     H169620   3.329   5.798   7.700
23126WAT     H269621   3.492   5.798   7.688
23127WAT      O69622   3.292   4.160   1.719
23127WAT     H169623   3.206   4.161   1.770
23127WAT     H269624   3.351   4.234   1.752
23128WAT      O69625   1.392   3.702   2.290
23128WAT     H169626   1.300   3.679   2.323
23128WAT     H269627   1.429   3.777   2.346
23129WAT      O69628   2.577   3.046   8.577
23129WAT     H169629   2.525   3.092   8.649
23129WAT     H269630   2.661   3.009   8.616
23130WAT      O69631   9.588   3.757   6.936
23130WAT     H169632   9.565   3.667   6.899
23130WAT     H269633   9.542   3.770   7.023
23131WAT      O69634   5.725   1.214   5.326
23131WAT     H169635   5.742   1.246   5.233
23131WAT     H269636   5.638   1.250   5.359
23132WAT      O69637   3.236   4.086   1.454
23132WAT     H169638   3.286   4.087   1.540
23132WAT     H269639   3.294   4.050   1.381
23133WAT      O69640   6.440   2.413   4.189
23133WAT     H169641   6.534   2.409   4.224
23133WAT     H269642   6.440   2.453   4.097
23134WAT      O69643   7.086   5.995   0.786
23134WAT     H169644   7.165   5.965   0.840
23134WAT     H269645   7.075   6.094   0.794
23135WAT      O69646   6.010   5.798   4.786
23135WAT     H169647   6.037   5.894   4.776
23135WAT     H269648   6.017   5.752   4.698
23136WAT      O69649   2.345   2.472   0.733
23136WAT     H169650   2.316   2.395   0.790
23136WAT     H269651   2.401   2.534   0.787
23137WAT      O69652   6.161   3.955   6.229
23137WAT     H169653   6.156   3.856   6.224
23137WAT     H269654   6.214   3.982   6.309
23138WAT      O69655   9.757   5.861   6.162
23138WAT     H169656   9.844   5.873   6.114
23138WAT     H269657   9.722   5.951   6.190
23139WAT      O69658   9.253   3.114   7.539
23139WAT     H169659   9.350   3.092   7.539
23139WAT     H269660   9.228   3.155   7.451
23140WAT      O69661   1.218   2.733   3.090
23140WAT     H169662   1.254   2.720   2.998
23140WAT     H269663   1.178   2.647   3.123
23141WAT      O69664   5.669   4.657   1.630
23141WAT     H169665   5.600   4.641   1.701
23141WAT     H269666   5.624   4.669   1.542
23142WAT      O69667   0.608   3.912   5.378
23142WAT     H169668   0.569   3.821   5.364
23142WAT     H269669   0.543   3.981   5.346
23143WAT      O69670   9.110   8.925   8.049
23143WAT     H169671   9.064   8.990   7.988
23143WAT     H269672   9.209   8.941   8.047
23144WAT      O69673   3.290   8.781   9.398
23144WAT     H169674   3.382   8.773   9.437
23144WAT     H269675   3.289   8.739   9.308
23145WAT      O69676   6.500   3.446   4.652
23145WAT     H169677   6.590   3.406   4.635
23145WAT     H269678   6.492   3.469   4.749
23146WAT      O69679   2.739   9.839   9.536
23146WAT     H169680   2.703   9.755   9.577
23146WAT     H269681   2.761   9.823   9.440
23147WAT      O69682   0.936   3.853   9.248
23147WAT     H169683   0.939   3.953   9.242
23147WAT     H269684   0.854   3.826   9.298
23148WAT      O69685   5.944   4.652   0.590
23148WAT     H169686   5.898   4.667   0.678
23148WAT     H269687   6.003   4.572   0.598
23149WAT      O69688   5.532   1.195   2.757
23149WAT     H169689   5.473   1.136   2.812
23149WAT     H269690   5.626   1.191   2.792
23150WAT      O69691   6.052   5.467   7.597
23150WAT     H169692   6.127   5.520   7.557
23150WAT     H269693   6.008   5.413   7.525
23151WAT      O69694   4.397   7.063   1.867
23151WAT     H169695   4.420   7.154   1.833
23151WAT     H269696   4.478   7.022   1.911
23152WAT      O69697   4.349   4.754   2.916
23152WAT     H169698   4.399   4.742   3.002
23152WAT     H269699   4.412   4.745   2.839
23153WAT      O69700   1.903   3.897   6.364
23153WAT     H169701   1.990   3.913   6.411
23153WAT     H269702   1.848   3.980   6.366
23154WAT      O69703   3.648   9.386   7.508
23154WAT     H169704   3.653   9.330   7.590
23154WAT     H269705   3.553   9.395   7.479
23155WAT      O69706   4.160   7.671   4.682
23155WAT     H169707   4.241   7.643   4.631
23155WAT     H269708   4.096   7.594   4.688
23156WAT      O69709   5.121   3.377   7.573
23156WAT     H169710   5.167   3.307   7.627
23156WAT     H269711   5.022   3.363   7.577
23157WAT      O69712   5.375   3.973   8.387
23157WAT     H169713   5.426   4.042   8.437
23157WAT     H269714   5.285   4.009   8.362
23158WAT      O69715   5.396   1.024   6.987
23158WAT     H169716   5.438   0.958   6.924
23158WAT     H269717   5.307   1.053   6.950
23159WAT      O69718   2.580   4.789   9.654
23159WAT     H169719   2.637   4.870   9.647
23159WAT     H269720   2.620   4.726   9.720
23160WAT      O69721   7.446   8.371   3.455
23160WAT     H169722   7.494   8.302   3.401
23160WAT     H269723   7.501   8.454   3.460
23161WAT      O69724   2.661   3.147   0.250
23161WAT     H169725   2.752   3.120   0.282
23161WAT     H269726   2.663   3.158   0.151
23162WAT      O69727   5.033   1.834   5.193
23162WAT     H169728   5.020   1.818   5.291
23162WAT     H269729   4.984   1.763   5.141
23163WAT      O69730   3.094   0.646   4.846
23163WAT     H169731   3.141   0.640   4.758
23163WAT     H269732   3.002   0.607   4.838
23164WAT      O69733   8.235   4.595   8.198
23164WAT     H169734   8.262   4.502   8.170
23164WAT     H269735   8.223   4.652   8.117
23165WAT      O69736   8.388   2.510   8.700
23165WAT     H169737   8.306   2.481   8.749
23165WAT     H269738   8.395   2.461   8.614
23166WAT      O69739   0.396   4.314   9.130
23166WAT     H169740   0.414   4.386   9.196
23166WAT     H269741   0.419   4.346   9.038
23167WAT      O69742   2.541   5.372   5.345
23167WAT     H169743   2.607   5.419   5.405
23167WAT     H269744   2.450   5.378   5.385
23168WAT      O69745   4.567   8.795   9.042
23168WAT     H169746   4.524   8.822   9.128
23168WAT     H269747   4.501   8.808   8.967
23169WAT      O69748   2.227   7.336   0.182
23169WAT     H169749   2.160   7.411   0.176
23169WAT     H269750   2.180   7.249   0.171
23170WAT      O69751   0.547   8.098   1.172
23170WAT     H169752   0.490   8.175   1.199
23170WAT     H269753   0.490   8.017   1.157
23171WAT      O69754   6.494   2.661   0.357
23171WAT     H169755   6.457   2.751   0.335
23171WAT     H269756   6.593   2.668   0.372
23172WAT      O69757   0.802   7.596   5.380
23172WAT     H169758   0.818   7.581   5.477
23172WAT     H269759   0.854   7.676   5.350
23173WAT      O69760   8.010   3.828   5.604
23173WAT     H169761   8.023   3.747   5.661
23173WAT     H269762   7.918   3.865   5.617
23174WAT      O69763   2.819   3.095   7.256
23174WAT     H169764   2.878   3.102   7.176
23174WAT     H269765   2.819   3.000   7.289
23175WAT      O69766   7.980   0.932   2.375
23175WAT     H169767   8.002   0.835   2.387
23175WAT     H269768   7.965   0.974   2.465
23176WAT      O69769   6.939   9.518   8.940
23176WAT     H169770   6.860   9.493   8.883
23176WAT     H269771   6.953   9.449   9.010
23177WAT      O69772   2.094   9.042   5.950
23177WAT     H169773   2.060   9.006   5.863
23177WAT     H269774   2.055   8.990   6.025
23178WAT      O69775   5.255   2.958   3.768
23178WAT     H169776   5.311   3.006   3.836
23178WAT     H269777   5.166   2.935   3.809
23179WAT      O69778   5.901   3.343   4.689
23179WAT     H169779   5.929   3.438   4.682
23179WAT     H269780   5.982   3.286   4.708
23180WAT      O69781   8.881   5.589   7.216
23180WAT     H169782   8.881   5.489   7.205
23180WAT     H269783   8.927   5.613   7.301
23181WAT      O69784   5.069   9.001   9.075
23181WAT     H169785   5.105   8.918   9.034
23181WAT     H269786   5.143   9.067   9.087
23182WAT      O69787   5.053   6.734   3.941
23182WAT     H169788   4.992   6.744   4.020
23182WAT     H269789   5.141   6.697   3.971
23183WAT      O69790   4.029   4.151   1.842
23183WAT     H169791   4.089   4.188   1.912
23183WAT     H269792   4.005   4.056   1.866
23184WAT      O69793   9.725   7.705   8.927
23184WAT     H169794   9.696   7.765   8.854
23184WAT     H269795   9.645   7.670   8.976
23185WAT      O69796   7.880   1.116   4.705
23185WAT     H169797   7.968   1.162   4.714
23185WAT     H269798   7.861   1.063   4.788
23186WAT      O69799   4.666   3.716   5.082
23186WAT     H169800   4.624   3.714   4.991
23186WAT     H269801   4.705   3.806   5.099
23187WAT      O69802   1.695   3.906   3.133
23187WAT     H169803   1.600   3.935   3.136
23187WAT     H269804   1.753   3.975   3.176
23188WAT      O69805   0.363   9.055   8.096
23188WAT     H169806   0.450   9.085   8.057
23188WAT     H269807   0.339   9.113   8.174
23189WAT      O69808   1.934   0.546   4.798
23189WAT     H169809   1.940   0.523   4.701
23189WAT     H269810   1.869   0.484   4.843
23190WAT      O69811   6.466   1.923   0.078
23190WAT     H169812   6.502   1.995   0.017
23190WAT     H269813   6.540   1.862   0.104
23191WAT      O69814   0.689   8.231   9.001
23191WAT     H169815   0.641   8.283   8.930
23191WAT     H269816   0.651   8.255   9.090
23192WAT      O69817   8.554   6.237   7.052
23192WAT     H169818   8.633   6.297   7.060
23192WAT     H269819   8.585   6.142   7.044
23193WAT      O69820   6.744   5.918   3.504
23193WAT     H169821   6.791   5.963   3.428
23193WAT     H269822   6.796   5.838   3.533
23194WAT      O69823   4.181   9.035   0.614
23194WAT     H169824   4.236   9.039   0.531
23194WAT     H269825   4.225   9.090   0.686
23195WAT      O69826   3.093   9.285   0.209
23195WAT     H169827   3.192   9.272   0.212
23195WAT     H269828   3.048   9.211   0.259
23196WAT      O69829   8.375   5.680   8.102
23196WAT     H169830   8.334   5.655   8.190
23196WAT     H269831   8.402   5.776   8.103
23197WAT      O69832   8.942   4.980   2.357
23197WAT     H169833   9.002   4.911   2.317
23197WAT     H269834   8.848   4.945   2.359
23198WAT      O69835   8.245   8.675   7.082
23198WAT     H169836   8.259   8.748   7.016
23198WAT     H269837   8.333   8.640   7.113
23199WAT      O69838   6.273   5.579   5.801
23199WAT     H169839   6.282   5.527   5.716
23199WAT     H269840   6.266   5.677   5.779
23200WAT      O69841   3.554   1.269   8.215
23200WAT     H169842   3.581   1.320   8.133
23200WAT     H269843   3.629   1.210   8.244
23201WAT      O69844   6.503   9.418   8.452
23201WAT     H169845   6.517   9.332   8.404
23201WAT     H269846   6.587   9.444   8.500
23202WAT      O69847   7.412   8.965   3.197
23202WAT     H169848   7.348   8.889   3.204
23202WAT     H269849   7.505   8.931   3.215
23203WAT      O69850   9.409   9.130   4.236
23203WAT     H169851   9.507   9.117   4.219
23203WAT     H269852   9.361   9.137   4.149
23204WAT      O69853   8.827   0.137   0.342
23204WAT     H169854   8.742   0.119   0.391
23204WAT     H269855   8.880   0.206   0.391
23205WAT      O69856   3.487   6.111   8.814
23205WAT     H169857   3.456   6.182   8.750
23205WAT     H269858   3.581   6.086   8.793
23206WAT      O69859   0.924   7.307   4.045
23206WAT     H169860   0.824   7.310   4.057
23206WAT     H269861   0.960   7.400   4.049
23207WAT      O69862   1.524   4.932   1.333
23207WAT     H169863   1.489   4.882   1.411
23207WAT     H269864   1.454   4.936   1.262
23208WAT      O69865   6.811   1.734   3.783
23208WAT     H169866   6.853   1.814   3.740
23208WAT     H269867   6.722   1.716   3.740
23209WAT      O69868   1.725   3.696   0.195
23209WAT     H169869   1.630   3.722   0.184
23209WAT     H269870   1.730   3.606   0.238
23210WAT      O69871   7.708   4.382   6.500
23210WAT     H169872   7.684   4.371   6.597
23210WAT     H269873   7.688   4.297   6.451
23211WAT      O69874   2.480   6.749   5.426
23211WAT     H169875   2.482   6.712   5.333
23211WAT     H269876   2.425   6.689   5.484
23212WAT      O69877   7.140   6.354   0.572
23212WAT     H169878   7.211   6.293   0.536
23212WAT     H269879   7.126   6.337   0.669
23213WAT      O69880   6.384   9.430   0.741
23213WAT     H169881   6.287   9.423   0.766
23213WAT     H269882   6.393   9.415   0.642
23214WAT      O69883   6.064   8.184   2.872
23214WAT     H169884   6.124   8.110   2.903
23214WAT     H269885   6.106   8.233   2.797
23215WAT      O69886   7.620   3.545   6.173
23215WAT     H169887   7.609   3.622   6.236
23215WAT     H269888   7.685   3.480   6.211
23216WAT      O69889   8.853   5.831   2.121
23216WAT     H169890   8.952   5.822   2.114
23216WAT     H269891   8.812   5.823   2.030
23217WAT      O69892   2.156   2.558   6.700
23217WAT     H169893   2.150   2.592   6.606
23217WAT     H269894   2.065   2.550   6.739
23218WAT      O69895   7.165   5.465   3.427
23218WAT     H169896   7.066   5.474   3.430
23218WAT     H269897   7.190   5.388   3.368
23219WAT      O69898   8.466   7.876   4.892
23219WAT     H169899   8.547   7.825   4.920
23219WAT     H269900   8.481   7.917   4.802
23220WAT      O69901   8.244   7.263   0.756
23220WAT     H169902   8.334   7.291   0.789
23220WAT     H269903   8.254   7.186   0.692
23221WAT      O69904   2.211   1.199   7.806
23221WAT     H169905   2.186   1.245   7.722
23221WAT     H269906   2.200   1.261   7.883
23222WAT      O69907   1.782   5.562   7.255
23222WAT     H169908   1.761   5.511   7.172
23222WAT     H269909   1.711   5.546   7.323
23223WAT      O69910   9.399   3.312   3.166
23223WAT     H169911   9.448   3.241   3.116
23223WAT     H269912   9.452   3.340   3.246
23224WAT      O69913   9.213   4.514   4.222
23224WAT     H169914   9.118   4.544   4.219
23224WAT     H269915   9.220   4.435   4.284
23225WAT      O69916   1.447   0.407   5.329
23225WAT     H169917   1.513   0.476   5.360
23225WAT     H269918   1.463   0.386   5.233
23226WAT      O69919   3.521   0.021   3.974
23226WAT     H169920   3.473   0.084   4.034
23226WAT     H269921   3.600   0.067   3.933
23227WAT      O69922   1.070   0.220   3.834
23227WAT     H169923   1.078   0.127   3.869
23227WAT     H269924   0.994   0.266   3.880
23228WAT      O69925   0.866   3.767   8.737
23228WAT     H169926   0.845   3.850   8.789
23228WAT     H269927   0.931   3.788   8.664
23229WAT      O69928   5.809   6.886   5.586
23229WAT     H169929   5.784   6.831   5.666
23229WAT     H269930   5.907   6.880   5.570
23230WAT      O69931   7.722   4.805   5.265
23230WAT     H169932   7.689   4.894   5.234
23230WAT     H269933   7.659   4.733   5.236
23231WAT      O69934   5.684   0.214   0.004
23231WAT     H169935   5.682   0.314   0.010
23231WAT     H269936   5.663   0.175   0.093
23232WAT      O69937   7.486   3.862   4.166
23232WAT     H169938   7.414   3.795   4.151
23232WAT     H269939   7.465   3.945   4.115
23233WAT      O69940   9.207   5.577   2.209
23233WAT     H169941   9.243   5.497   2.162
23233WAT     H269942   9.224   5.568   2.308
23234WAT      O69943   6.641   0.622   6.564
23234WAT     H169944   6.573   0.575   6.508
23234WAT     H269945   6.673   0.560   6.636
23235WAT      O69946   6.855   5.842   5.307
23235WAT     H169947   6.928   5.881   5.251
23235WAT     H269948   6.783   5.806   5.247
23236WAT      O69949   8.532   5.582   3.466
23236WAT     H169950   8.439   5.558   3.438
23236WAT     H269951   8.532   5.673   3.508
23237WAT      O69952   5.949   7.947   0.315
23237WAT     H169953   5.978   8.019   0.251
23237WAT     H269954   6.022   7.880   0.324
23238WAT      O69955   3.380   3.864   8.656
23238WAT     H169956   3.424   3.841   8.742
23238WAT     H269957   3.445   3.855   8.581
23239WAT      O69958   9.776   1.795   5.940
23239WAT     H169959   9.765   1.699   5.966
23239WAT     H269960   9.841   1.840   6.000
23240WAT      O69961   5.752   0.112   8.627
23240WAT     H169962   5.674   0.050   8.617
23240WAT     H269963   5.727   0.185   8.691
23241WAT      O69964   2.341   4.460   2.075
23241WAT     H169965   2.276   4.479   2.149
23241WAT     H269966   2.432   4.445   2.114
23242WAT      O69967   5.077   6.054   7.946
23242WAT     H169968   5.023   6.101   7.877
23242WAT     H269969   5.016   6.005   8.008
23243WAT      O69970   5.943   1.954   6.555
23243WAT     H169971   5.971   1.944   6.460
23243WAT     H269972   5.852   1.914   6.567
23244WAT      O69973   4.650   3.949   0.523
23244WAT     H169974   4.660   4.037   0.477
23244WAT     H269975   4.553   3.932   0.541
23245WAT      O69976   7.425   0.444   0.227
23245WAT     H169977   7.353   0.393   0.180
23245WAT     H269978   7.514   0.404   0.204
23246WAT      O69979   0.834   8.770   1.942
23246WAT     H169980   0.919   8.730   1.905
23246WAT     H269981   0.855   8.855   1.990
23247WAT      O69982   7.860   7.289   5.964
23247WAT     H169983   7.911   7.364   6.007
23247WAT     H269984   7.874   7.291   5.865
23248WAT      O69985   2.124   2.275   7.110
23248WAT     H169986   2.190   2.211   7.070
23248WAT     H269987   2.037   2.266   7.064
23249WAT      O69988   1.600   7.118   4.949
23249WAT     H169989   1.563   7.198   4.902
23249WAT     H269990   1.646   7.147   5.033
23250WAT      O69991   3.847   3.838   2.555
23250WAT     H169992   3.792   3.921   2.565
23250WAT     H269993   3.895   3.820   2.641
23251WAT      O69994   9.372   2.648   3.917
23251WAT     H169995   9.382   2.549   3.918
23251WAT     H269996   9.279   2.672   3.887
23252WAT      O69997   7.898   4.072   7.675
23252WAT     H169998   7.813   4.089   7.624
23252WAT     H269999   7.973   4.055   7.610
23253WAT      O70000   4.723   8.639   4.320
23253WAT     H170001   4.747   8.615   4.414
23253WAT     H270002   4.776   8.583   4.257
23254WAT      O70003   9.086   4.341   3.221
23254WAT     H170004   9.025   4.397   3.165
23254WAT     H270005   9.076   4.366   3.318
23255WAT      O70006   5.922   0.172   3.173
23255WAT     H170007   5.939   0.164   3.075
23255WAT     H270008   5.825   0.153   3.191
23256WAT      O70009   1.346   5.890   6.758
23256WAT     H170010   1.286   5.962   6.792
23256WAT     H270011   1.425   5.931   6.712
23257WAT      O70012   1.209   2.012   1.015
23257WAT     H170013   1.139   2.007   1.087
23257WAT     H270014   1.285   1.951   1.038
23258WAT      O70015   3.151   0.889   4.930
23258WAT     H170016   3.125   0.796   4.903
23258WAT     H270017   3.160   0.946   4.848
23259WAT      O70018   8.202   9.572   9.170
23259WAT     H170019   8.192   9.548   9.267
23259WAT     H270020   8.112   9.574   9.127
23260WAT      O70021   5.486   1.648   2.518
23260WAT     H170022   5.519   1.580   2.584
23260WAT     H270023   5.523   1.628   2.428
23261WAT      O70024   6.886   7.249   7.505
23261WAT     H170025   6.844   7.340   7.513
23261WAT     H270026   6.975   7.258   7.460
23262WAT      O70027   6.099   7.482   7.102
23262WAT     H170028   6.144   7.572   7.104
23262WAT     H270029   6.038   7.474   7.181
23263WAT      O70030   7.232   3.278   6.463
23263WAT     H170031   7.214   3.377   6.457
23263WAT     H270032   7.331   3.263   6.459
23264WAT      O70033   7.324   5.548   8.352
23264WAT     H170034   7.417   5.574   8.327
23264WAT     H270035   7.289   5.483   8.285
23265WAT      O70036   3.297   5.582   8.386
23265WAT     H170037   3.248   5.578   8.473
23265WAT     H270038   3.381   5.529   8.392
23266WAT      O70039   4.252   3.880   8.457
23266WAT     H170040   4.243   3.808   8.526
23266WAT     H270041   4.171   3.882   8.400
23267WAT      O70042   8.296   2.578   9.446
23267WAT     H170043   8.365   2.648   9.429
23267WAT     H270044   8.207   2.621   9.456
23268WAT      O70045   1.463   2.741   8.846
23268WAT     H170046   1.387   2.789   8.888
23268WAT     H270047   1.510   2.685   8.915
23269WAT      O70048   4.146   4.187   5.441
23269WAT     H170049   4.048   4.205   5.451
23269WAT     H270050   4.186   4.174   5.531
23270WAT      O70051   8.193   3.689   8.584
23270WAT     H170052   8.126   3.731   8.523
23270WAT     H270053   8.231   3.758   8.645
23271WAT      O70054   7.989   9.302   4.648
23271WAT     H170055   7.991   9.230   4.579
23271WAT     H270056   8.076   9.351   4.648
23272WAT      O70057   3.229   8.037   4.459
23272WAT     H170058   3.277   8.102   4.401
23272WAT     H270059   3.130   8.052   4.451
23273WAT      O70060   4.225   1.564   9.186
23273WAT     H170061   4.275   1.479   9.203
23273WAT     H270062   4.290   1.640   9.182
23274WAT      O70063   8.994   5.449   4.637
23274WAT     H170064   8.922   5.461   4.568
23274WAT     H270065   9.082   5.437   4.592
23275WAT      O70066   6.022   2.824   1.675
23275WAT     H170067   5.976   2.785   1.595
23275WAT     H270068   6.106   2.869   1.647
23276WAT      O70069   7.475   7.124   8.152
23276WAT     H170070   7.462   7.039   8.102
23276WAT     H270071   7.518   7.104   8.240
23277WAT      O70072   8.463   8.645   0.128
23277WAT     H170073   8.420   8.564   0.089
23277WAT     H270074   8.394   8.715   0.145
23278WAT      O70075   6.385   1.342   7.976
23278WAT     H170076   6.416   1.405   8.047
23278WAT     H270077   6.301   1.297   8.005
23279WAT      O70078   0.759   6.464   0.124
23279WAT     H170079   0.660   6.457   0.130
23279WAT     H270080   0.792   6.533   0.188
23280WAT      O70081   1.148   1.355   0.796
23280WAT     H170082   1.064   1.333   0.746
23280WAT     H270083   1.205   1.414   0.739
23281WAT      O70084   0.846   4.838   9.620
23281WAT     H170085   0.848   4.754   9.674
23281WAT     H270086   0.825   4.915   9.681
23282WAT      O70087   0.692   3.440   5.860
23282WAT     H170088   0.693   3.436   5.760
23282WAT     H270089   0.766   3.384   5.896
23283WAT      O70090   6.808   5.193   9.381
23283WAT     H170091   6.737   5.176   9.449
23283WAT     H270092   6.770   5.179   9.289
23284WAT      O70093   3.504   2.567   5.948
23284WAT     H170094   3.460   2.633   6.009
23284WAT     H270095   3.560   2.616   5.881
23285WAT      O70096   5.988   5.408   8.105
23285WAT     H170097   5.959   5.504   8.099
23285WAT     H270098   6.036   5.383   8.021
23286WAT      O70099   9.309   8.931   8.748
23286WAT     H170100   9.247   8.853   8.748
23286WAT     H270101   9.338   8.949   8.842
23287WAT      O70102   8.327   1.475   8.185
23287WAT     H170103   8.424   1.466   8.164
23287WAT     H270104   8.294   1.563   8.151
23288WAT      O70105   5.227   6.668   4.933
23288WAT     H170106   5.262   6.749   4.887
23288WAT     H270107   5.134   6.685   4.966
23289WAT      O70108   8.987   9.244   1.323
23289WAT     H170109   8.994   9.209   1.230
23289WAT     H270110   9.039   9.185   1.384
23290WAT      O70111   9.347   5.331   5.961
23290WAT     H170112   9.363   5.267   5.885
23290WAT     H270113   9.291   5.407   5.930
23291WAT      O70114   1.053   5.306   9.892
23291WAT     H170115   1.130   5.297   9.829
23291WAT     H270116   0.968   5.285   9.843
23292WAT      O70117   6.953   1.172   5.700
23292WAT     H170118   6.975   1.123   5.616
23292WAT     H270119   6.924   1.106   5.770
23293WAT      O70120   1.365   2.066   1.389
23293WAT     H170121   1.430   2.139   1.370
23293WAT     H270122   1.274   2.093   1.358
23294WAT      O70123   4.276   0.869   6.492
23294WAT     H170124   4.177   0.859   6.501
23294WAT     H270125   4.312   0.795   6.435
23295WAT      O70126   7.182   8.387   1.002
23295WAT     H170127   7.141   8.400   1.093
23295WAT     H270128   7.209   8.291   0.992
23296WAT      O70129   3.560   0.883   4.279
23296WAT     H170130   3.605   0.856   4.365
23296WAT     H270131   3.629   0.904   4.210
23297WAT      O70132   3.577   8.950   2.237
23297WAT     H170133   3.632   8.992   2.165
23297WAT     H270134   3.483   8.983   2.230
23298WAT      O70135   3.619   0.603   6.521
23298WAT     H170136   3.522   0.595   6.501
23298WAT     H270137   3.637   0.577   6.615
23299WAT      O70138   7.606   1.833   6.175
23299WAT     H170139   7.602   1.849   6.077
23299WAT     H270140   7.636   1.739   6.193
23300WAT      O70141   6.587   5.549   8.589
23300WAT     H170142   6.640   5.465   8.589
23300WAT     H270143   6.598   5.596   8.502
23301WAT      O70144   4.456   6.930   3.410
23301WAT     H170145   4.401   6.976   3.341
23301WAT     H270146   4.528   6.877   3.366
23302WAT      O70147   5.753   1.709   3.730
23302WAT     H170148   5.711   1.631   3.685
23302WAT     H270149   5.763   1.784   3.665
23303WAT      O70150   5.791   2.450   2.727
23303WAT     H170151   5.797   2.422   2.822
23303WAT     H270152   5.857   2.522   2.709
23304WAT      O70153   1.333   2.195   0.517
23304WAT     H170154   1.375   2.137   0.448
23304WAT     H270155   1.336   2.291   0.487
23305WAT      O70156   5.314   5.875   5.818
23305WAT     H170157   5.240   5.814   5.847
23305WAT     H270158   5.283   5.970   5.822
23306WAT      O70159   8.697   2.921   7.073
23306WAT     H170160   8.739   2.906   6.983
23306WAT     H270161   8.652   3.010   7.075
23307WAT      O70162   6.682   4.577   9.681
23307WAT     H170163   6.752   4.648   9.675
23307WAT     H270164   6.727   4.487   9.689
23308WAT      O70165   7.935   4.369   7.113
23308WAT     H170166   7.867   4.321   7.058
23308WAT     H270167   7.945   4.463   7.080
23309WAT      O70168   3.357   7.335   8.926
23309WAT     H170169   3.369   7.434   8.934
23309WAT     H270170   3.262   7.311   8.944
23310WAT      O70171   8.384   6.267   8.848
23310WAT     H170172   8.371   6.337   8.918
23310WAT     H270173   8.424   6.309   8.766
23311WAT      O70174   3.713   5.540   7.523
23311WAT     H170175   3.645   5.612   7.531
23311WAT     H270176   3.721   5.512   7.427
23312WAT      O70177   3.559   9.651   6.558
23312WAT     H170178   3.494   9.674   6.631
23312WAT     H270179   3.586   9.735   6.511
23313WAT      O70180   5.218   2.862   1.299
23313WAT     H170181   5.154   2.886   1.372
23313WAT     H270182   5.250   2.945   1.254
23314WAT      O70183   3.820   7.374   7.534
23314WAT     H170184   3.803   7.471   7.518
23314WAT     H270185   3.808   7.354   7.631
23315WAT      O70186   8.543   0.222   6.386
23315WAT     H170187   8.569   0.135   6.344
23315WAT     H270188   8.565   0.220   6.483
23316WAT      O70189   3.142   5.152   3.263
23316WAT     H170190   3.127   5.248   3.283
23316WAT     H270191   3.181   5.106   3.343
23317WAT      O70192   3.449   9.650   9.632
23317WAT     H170193   3.392   9.599   9.696
23317WAT     H270194   3.433   9.617   9.539
23318WAT      O70195   2.733   4.499   8.598
23318WAT     H170196   2.701   4.436   8.527
23318WAT     H270197   2.740   4.450   8.685
23319WAT      O70198   8.299   3.270   7.321
23319WAT     H170199   8.335   3.208   7.392
23319WAT     H270200   8.200   3.278   7.332
23320WAT      O70201   3.644   0.297   2.583
23320WAT     H170202   3.685   0.253   2.503
23320WAT     H270203   3.556   0.338   2.557
23321WAT      O70204   1.673   5.885   9.773
23321WAT     H170205   1.613   5.940   9.832
23321WAT     H270206   1.717   5.814   9.828
23322WAT      O70207   7.166   7.801   2.392
23322WAT     H170208   7.192   7.764   2.481
23322WAT     H270209   7.072   7.776   2.372
23323WAT      O70210   9.111   4.212   7.116
23323WAT     H170211   9.199   4.250   7.089
23323WAT     H270212   9.039   4.250   7.058
23324WAT      O70213   3.484   1.288   1.494
23324WAT     H170214   3.572   1.292   1.541
23324WAT     H270215   3.455   1.193   1.484
23325WAT      O70216   0.524   9.697   2.459
23325WAT     H170217   0.530   9.793   2.486
23325WAT     H270218   0.473   9.689   2.374
23326WAT      O70219   5.800   5.691   8.916
23326WAT     H170220   5.884   5.714   8.966
23326WAT     H270221   5.726   5.751   8.947
23327WAT      O70222   7.012   4.624   7.936
23327WAT     H170223   6.979   4.530   7.940
23327WAT     H270224   7.039   4.646   7.843
23328WAT      O70225   9.112   8.677   0.781
23328WAT     H170226   9.046   8.610   0.817
23328WAT     H270227   9.070   8.768   0.780
23329WAT      O70228   8.988   0.956   1.074
23329WAT     H170229   8.956   0.989   0.985
23329WAT     H270230   8.948   1.012   1.146
23330WAT      O70231   0.014   6.043   3.308
23330WAT     H170232   0.067   6.126   3.321
23330WAT     H270233   0.011   5.991   3.394
23331WAT      O70234   8.978   7.497   5.244
23331WAT     H170235   8.994   7.430   5.171
23331WAT     H270236   9.065   7.521   5.286
23332WAT      O70237   5.465   4.577   5.397
23332WAT     H170238   5.427   4.516   5.326
23332WAT     H270239   5.438   4.671   5.378
23333WAT      O70240   0.789   7.238   5.925
23333WAT     H170241   0.773   7.334   5.904
23333WAT     H270242   0.740   7.181   5.860
23334WAT      O70243   1.264   3.598   9.052
23334WAT     H170244   1.269   3.626   8.956
23334WAT     H270245   1.169   3.601   9.083
23335WAT      O70246   6.184   0.440   5.208
23335WAT     H170247   6.229   0.386   5.137
23335WAT     H270248   6.156   0.528   5.170
23336WAT      O70249   2.738   4.667   0.253
23336WAT     H170250   2.764   4.746   0.308
23336WAT     H270251   2.640   4.668   0.237
23337WAT      O70252   4.682   5.731   3.345
23337WAT     H170253   4.764   5.679   3.368
23337WAT     H270254   4.701   5.792   3.268
23338WAT      O70255   2.825   3.464   0.957
23338WAT     H170256   2.759   3.530   0.920
23338WAT     H270257   2.872   3.506   1.035
23339WAT      O70258   7.766   5.986   2.257
23339WAT     H170259   7.808   6.076   2.266
23339WAT     H270260   7.767   5.939   2.345
23340WAT      O70261   2.615   0.982   4.700
23340WAT     H170262   2.584   0.964   4.606
23340WAT     H270263   2.641   0.896   4.744
23341WAT      O70264   6.100   2.348   7.988
23341WAT     H170265   6.070   2.347   7.892
23341WAT     H270266   6.077   2.260   8.030
23342WAT      O70267   2.941   4.519   2.296
23342WAT     H170268   2.850   4.497   2.332
23342WAT     H270269   2.980   4.594   2.349
23343WAT      O70270   8.775   4.370   2.073
23343WAT     H170271   8.729   4.284   2.052
23343WAT     H270272   8.743   4.441   2.010
23344WAT      O70273   8.205   4.358   7.818
23344WAT     H170274   8.207   4.418   7.737
23344WAT     H270275   8.109   4.337   7.841
23345WAT      O70276   0.865   3.822   2.716
23345WAT     H170277   0.908   3.899   2.763
23345WAT     H270278   0.807   3.856   2.643
23346WAT      O70279   3.642   0.748   0.871
23346WAT     H170280   3.672   0.789   0.785
23346WAT     H270281   3.704   0.775   0.945
23347WAT      O70282   6.040   1.471   1.705
23347WAT     H170283   5.991   1.464   1.618
23347WAT     H270284   5.981   1.436   1.779
23348WAT      O70285   3.749   8.815   3.345
23348WAT     H170286   3.775   8.899   3.298
23348WAT     H270287   3.765   8.824   3.443
23349WAT      O70288   0.178   0.272   9.813
23349WAT     H170289   0.158   0.216   9.893
23349WAT     H270290   0.116   0.350   9.810
23350WAT      O70291   7.310   9.770   3.477
23350WAT     H170292   7.402   9.767   3.516
23350WAT     H270293   7.275   9.677   3.465
23351WAT      O70294   0.523   7.432   6.572
23351WAT     H170295   0.580   7.450   6.492
23351WAT     H270296   0.456   7.506   6.582
23352WAT      O70297   1.931   8.956   6.761
23352WAT     H170298   1.948   9.047   6.724
23352WAT     H270299   1.994   8.939   6.837
23353WAT      O70300   2.999   9.746   9.604
23353WAT     H170301   2.907   9.782   9.587
23353WAT     H270302   3.025   9.685   9.530
23354WAT      O70303   4.210   8.714   8.002
23354WAT     H170304   4.126   8.717   7.949
23354WAT     H270305   4.187   8.710   8.100
23355WAT      O70306   3.053   4.300   1.399
23355WAT     H170307   3.073   4.202   1.408
23355WAT     H270308   3.020   4.319   1.307
23356WAT      O70309   9.241   6.602   5.173
23356WAT     H170310   9.280   6.541   5.242
23356WAT     H270311   9.143   6.583   5.163
23357WAT      O70312   2.879   9.291   6.266
23357WAT     H170313   2.846   9.201   6.293
23357WAT     H270314   2.808   9.360   6.283
23358WAT      O70315   2.590   3.006   1.689
23358WAT     H170316   2.635   3.087   1.727
23358WAT     H270317   2.659   2.945   1.652
23359WAT      O70318   2.115   7.368   8.300
23359WAT     H170319   2.172   7.323   8.232
23359WAT     H270320   2.137   7.333   8.391
23360WAT      O70321   6.442   1.028   2.806
23360WAT     H170322   6.423   0.998   2.899
23360WAT     H270323   6.434   0.951   2.743
23361WAT      O70324   3.710   8.709   9.662
23361WAT     H170325   3.784   8.643   9.675
23361WAT     H270326   3.638   8.667   9.606
23362WAT      O70327   3.854   7.981   1.139
23362WAT     H170328   3.835   7.884   1.131
23362WAT     H270329   3.936   8.003   1.085
23363WAT      O70330   6.490   3.074   2.782
23363WAT     H170331   6.460   2.982   2.807
23363WAT     H270332   6.417   3.121   2.732
23364WAT      O70333   2.270   2.692   3.940
23364WAT     H170334   2.335   2.758   3.979
23364WAT     H270335   2.207   2.740   3.879
23365WAT      O70336   3.355   4.353   1.381
23365WAT     H170337   3.262   4.319   1.393
23365WAT     H270338   3.420   4.287   1.418
23366WAT      O70339   9.293   6.841   9.638
23366WAT     H170340   9.258   6.806   9.551
23366WAT     H270341   9.371   6.902   9.620
23367WAT      O70342   2.722   5.143   6.553
23367WAT     H170343   2.793   5.080   6.583
23367WAT     H270344   2.662   5.098   6.487
23368WAT      O70345   5.526   9.177   9.304
23368WAT     H170346   5.483   9.098   9.260
23368WAT     H270347   5.579   9.146   9.382
23369WAT      O70348   0.851   4.399   7.185
23369WAT     H170349   0.869   4.305   7.212
23369WAT     H270350   0.761   4.404   7.142
23370WAT      O70351   6.168   0.273   9.318
23370WAT     H170352   6.225   0.316   9.249
23370WAT     H270353   6.127   0.343   9.376
23371WAT      O70354   1.244   2.919   0.030
23371WAT     H170355   1.266   2.961  -0.058
23371WAT     H270356   1.329   2.899   0.079
23372WAT      O70357   5.041   5.747   8.691
23372WAT     H170358   5.019   5.725   8.786
23372WAT     H270359   5.096   5.831   8.688
23373WAT      O70360   8.565   7.691   5.829
23373WAT     H170361   8.539   7.612   5.884
23373WAT     H270362   8.636   7.743   5.876
23374WAT      O70363   4.714   7.095   9.310
23374WAT     H170364   4.729   7.072   9.406
23374WAT     H270365   4.670   7.185   9.303
23375WAT      O70366   1.429   9.179   2.786
23375WAT     H170367   1.382   9.208   2.869
23375WAT     H270368   1.445   9.259   2.727
23376WAT      O70369   6.127   0.353   3.060
23376WAT     H170370   6.137   0.406   3.144
23376WAT     H270371   6.041   0.377   3.015
23377WAT      O70372   3.521   1.450   5.732
23377WAT     H170373   3.498   1.538   5.774
23377WAT     H270374   3.451   1.382   5.755
23378WAT      O70375   9.254   5.448   0.158
23378WAT     H170376   9.246   5.348   0.162
23378WAT     H270377   9.196   5.483   0.084
23379WAT      O70378   1.765   1.893   5.400
23379WAT     H170379   1.816   1.926   5.320
23379WAT     H270380   1.740   1.971   5.458
23380WAT      O70381   2.233   5.125   6.160
23380WAT     H170382   2.255   5.133   6.062
23380WAT     H270383   2.312   5.154   6.214
23381WAT      O70384   5.951   3.161   4.984
23381WAT     H170385   5.857   3.188   4.962
23381WAT     H270386   6.011   3.185   4.908
23382WAT      O70387   7.918   7.640   3.378
23382WAT     H170388   7.835   7.629   3.325
23382WAT     H270389   7.915   7.726   3.428
23383WAT      O70390   0.089   1.606   8.898
23383WAT     H170391   0.065   1.581   8.804
23383WAT     H270392   0.088   1.705   8.908
23384WAT      O70393   7.586   2.029   7.171
23384WAT     H170394   7.634   2.112   7.200
23384WAT     H270395   7.595   1.959   7.242
23385WAT      O70396   5.057   4.034   9.561
23385WAT     H170397   5.003   4.113   9.590
23385WAT     H270398   5.128   4.014   9.629
23386WAT      O70399   1.001   0.616   1.588
23386WAT     H170400   1.090   0.640   1.629
23386WAT     H270401   0.982   0.519   1.606
23387WAT      O70402   6.029   8.643   9.503
23387WAT     H170403   6.063   8.564   9.552
23387WAT     H270404   6.094   8.719   9.512
23388WAT      O70405   5.835   2.554   5.513
23388WAT     H170406   5.784   2.536   5.429
23388WAT     H270407   5.784   2.619   5.570
23389WAT      O70408   5.268   4.026   3.790
23389WAT     H170409   5.251   4.025   3.888
23389WAT     H270410   5.357   3.984   3.771
23390WAT      O70411   8.276   0.776   7.769
23390WAT     H170412   8.323   0.740   7.850
23390WAT     H270413   8.305   0.870   7.753
23391WAT      O70414   0.110   0.476   9.139
23391WAT     H170415   0.139   0.428   9.056
23391WAT     H270416   0.022   0.520   9.122
23392WAT      O70417   8.149   6.873   5.568
23392WAT     H170418   8.094   6.796   5.536
23392WAT     H270419   8.092   6.934   5.622
23393WAT      O70420   1.977   5.705   7.127
23393WAT     H170421   1.970   5.637   7.054
23393WAT     H270422   1.917   5.680   7.203
23394WAT      O70423   4.431   3.555   6.236
23394WAT     H170424   4.423   3.650   6.266
23394WAT     H270425   4.461   3.499   6.314
23395WAT      O70426   8.461   3.335   1.136
23395WAT     H170427   8.556   3.316   1.112
23395WAT     H270428   8.443   3.307   1.230
23396WAT      O70429   1.714   0.806   5.861
23396WAT     H170430   1.723   0.845   5.769
23396WAT     H270431   1.756   0.716   5.863
23397WAT      O70432   0.939   3.525   0.974
23397WAT     H170433   0.986   3.519   1.061
23397WAT     H270434   0.961   3.612   0.929
23398WAT      O70435   4.087   4.292   0.317
23398WAT     H170436   4.056   4.387   0.305
23398WAT     H270437   4.178   4.292   0.359
23399WAT      O70438   3.973   0.689   3.786
23399WAT     H170439   3.898   0.622   3.787
23399WAT     H270440   4.060   0.641   3.775
23400WAT      O70441   6.020   6.596   1.537
23400WAT     H170442   6.047   6.684   1.575
23400WAT     H270443   6.095   6.531   1.546
23401WAT      O70444   5.926   8.291   8.640
23401WAT     H170445   5.921   8.341   8.554
23401WAT     H270446   5.879   8.344   8.712
23402WAT      O70447   0.095   8.762   0.400
23402WAT     H170448   0.068   8.672   0.434
23402WAT     H270449   0.146   8.810   0.471
23403WAT      O70450   0.949   7.968   6.249
23403WAT     H170451   1.043   7.938   6.263
23403WAT     H270452   0.904   7.980   6.337
23404WAT      O70453   8.231   3.176   8.444
23404WAT     H170454   8.311   3.136   8.399
23404WAT     H270455   8.212   3.266   8.404
23405WAT      O70456   1.607   7.218   7.088
23405WAT     H170457   1.642   7.267   7.168
23405WAT     H270458   1.543   7.147   7.116
23406WAT      O70459   1.913   2.971   5.192
23406WAT     H170460   1.929   2.874   5.174
23406WAT     H270461   1.817   2.985   5.215
23407WAT      O70462   4.928   0.611   0.213
23407WAT     H170463   4.994   0.642   0.145
23407WAT     H270464   4.835   0.634   0.184
23408WAT      O70465   1.906   4.080   7.362
23408WAT     H170466   1.818   4.078   7.314
23408WAT     H270467   1.902   4.147   7.436
23409WAT      O70468   0.145   4.257   8.953
23409WAT     H170469   0.183   4.251   9.046
23409WAT     H270470   0.121   4.165   8.922
23410WAT      O70471   4.746   2.502   5.452
23410WAT     H170472   4.776   2.548   5.368
23410WAT     H270473   4.736   2.569   5.525
23411WAT      O70474   8.817   2.641   8.338
23411WAT     H170475   8.904   2.691   8.330
23411WAT     H270476   8.803   2.614   8.433
23412WAT      O70477   8.430   2.321   1.435
23412WAT     H170478   8.490   2.400   1.421
23412WAT     H270479   8.457   2.248   1.373
23413WAT      O70480   8.492   5.857   3.509
23413WAT     H170481   8.490   5.907   3.422
23413WAT     H270482   8.409   5.876   3.560
23414WAT      O70483   1.840   6.694   2.960
23414WAT     H170484   1.800   6.617   3.009
23414WAT     H270485   1.773   6.768   2.952
23415WAT      O70486   9.764   2.014   8.418
23415WAT     H170487   9.832   1.954   8.460
23415WAT     H270488   9.782   2.021   8.320
23416WAT      O70489   1.015   7.640   6.820
23416WAT     H170490   0.927   7.599   6.845
23416WAT     H270491   1.073   7.571   6.777
23417WAT      O70492   2.788   1.937   0.985
23417WAT     H170493   2.828   1.973   1.069
23417WAT     H270494   2.855   1.945   0.911
23418WAT      O70495   0.865   7.474   9.669
23418WAT     H170496   0.924   7.441   9.595
23418WAT     H270497   0.770   7.447   9.650
23419WAT      O70498   1.488   1.974   6.008
23419WAT     H170499   1.488   2.009   6.102
23419WAT     H270500   1.406   1.919   5.994
23420WAT      O70501   5.399   7.055   8.060
23420WAT     H170502   5.365   7.010   7.978
23420WAT     H270503   5.375   7.152   8.058
23421WAT      O70504   4.065   7.391   3.261
23421WAT     H170505   4.011   7.415   3.342
23421WAT     H270506   4.151   7.349   3.290
23422WAT      O70507   5.943   7.951   8.406
23422WAT     H170508   5.978   7.858   8.421
23422WAT     H270509   6.019   8.015   8.397
23423WAT      O70510   7.695   9.111   6.928
23423WAT     H170511   7.715   9.019   6.960
23423WAT     H270512   7.714   9.117   6.830
23424WAT      O70513   6.502   1.845   9.463
23424WAT     H170514   6.461   1.931   9.435
23424WAT     H270515   6.496   1.779   9.388
23425WAT      O70516   6.252   1.422   9.212
23425WAT     H170517   6.323   1.355   9.190
23425WAT     H270518   6.285   1.482   9.285
23426WAT      O70519   3.944   8.418   1.761
23426WAT     H170520   3.929   8.320   1.771
23426WAT     H270521   3.960   8.460   1.850
23427WAT      O70522   6.978   1.346   1.054
23427WAT     H170523   7.027   1.317   0.972
23427WAT     H270524   6.889   1.382   1.028
23428WAT      O70525   2.512   2.562   3.766
23428WAT     H170526   2.448   2.622   3.814
23428WAT     H270527   2.585   2.534   3.829
23429WAT      O70528   2.052   1.771   5.877
23429WAT     H170529   2.055   1.757   5.778
23429WAT     H270530   1.982   1.711   5.917
23430WAT      O70531   5.060   9.647   7.766
23430WAT     H170532   5.021   9.725   7.717
23430WAT     H270533   5.021   9.562   7.729
23431WAT      O70534   2.035   2.029   0.037
23431WAT     H170535   2.027   2.121   0.075
23431WAT     H270536   2.052   2.035  -0.062
23432WAT      O70537   0.498   0.478   6.603
23432WAT     H170538   0.429   0.461   6.532
23432WAT     H270539   0.547   0.393   6.622
23433WAT      O70540   5.682   2.653   9.096
23433WAT     H170541   5.762   2.596   9.076
23433WAT     H270542   5.675   2.727   9.029
23434WAT      O70543   5.593   8.623   0.897
23434WAT     H170544   5.681   8.579   0.914
23434WAT     H270545   5.539   8.568   0.833
23435WAT      O70546   6.582   0.433   2.719
23435WAT     H170547   6.547   0.441   2.625
23435WAT     H270548   6.557   0.515   2.771
23436WAT      O70549   5.418   6.456   1.396
23436WAT     H170550   5.338   6.432   1.340
23436WAT     H270551   5.394   6.445   1.492
23437WAT      O70552   4.333   0.385   3.393
23437WAT     H170553   4.342   0.396   3.492
23437WAT     H270554   4.415   0.341   3.356
23438WAT      O70555   4.165   8.927   6.721
23438WAT     H170556   4.158   9.012   6.669
23438WAT     H270557   4.238   8.934   6.789
23439WAT      O70558   2.428   0.619   2.858
23439WAT     H170559   2.386   0.533   2.830
23439WAT     H270560   2.503   0.641   2.796
23440WAT      O70561   5.890   4.498   1.660
23440WAT     H170562   5.835   4.414   1.663
23440WAT     H270563   5.829   4.577   1.664
23441WAT      O70564   0.290   3.210   7.732
23441WAT     H170565   0.361   3.194   7.800
23441WAT     H270566   0.324   3.277   7.665
23442WAT      O70567   7.451   7.506   4.845
23442WAT     H170568   7.467   7.451   4.927
23442WAT     H270569   7.440   7.445   4.767
23443WAT      O70570   1.826   4.439   9.473
23443WAT     H170571   1.836   4.450   9.571
23443WAT     H270572   1.862   4.349   9.446
23444WAT      O70573   2.624   6.361   0.459
23444WAT     H170574   2.666   6.271   0.467
23444WAT     H270575   2.684   6.422   0.408
23445WAT      O70576   9.442   6.247   3.033
23445WAT     H170577   9.383   6.183   2.983
23445WAT     H270578   9.400   6.269   3.121
23446WAT      O70579   4.036   3.254   9.407
23446WAT     H170580   3.940   3.234   9.424
23446WAT     H270581   4.045   3.305   9.321
23447WAT      O70582   8.217   2.979   1.330
23447WAT     H170583   8.271   2.927   1.263
23447WAT     H270584   8.274   3.001   1.409
23448WAT      O70585   2.982   6.018   0.517
23448WAT     H170586   3.000   5.988   0.611
23448WAT     H270587   3.060   5.994   0.459
23449WAT      O70588   9.300   4.625   1.887
23449WAT     H170589   9.250   4.693   1.833
23449WAT     H270590   9.263   4.621   1.980
23450WAT      O70591   4.776   8.932   2.800
23450WAT     H170592   4.746   8.970   2.712
23450WAT     H270593   4.765   8.833   2.799
23451WAT      O70594   7.187   8.372   3.347
23451WAT     H170595   7.180   8.322   3.261
23451WAT     H270596   7.284   8.383   3.371
23452WAT      O70597   4.854   5.063   8.554
23452WAT     H170598   4.945   5.021   8.548
23452WAT     H270599   4.849   5.120   8.636
23453WAT      O70600   1.489   2.671   9.725
23453WAT     H170601   1.460   2.764   9.745
23453WAT     H270602   1.496   2.619   9.810
23454WAT      O70603   3.295   5.790   3.391
23454WAT     H170604   3.338   5.736   3.463
23454WAT     H270605   3.358   5.861   3.360
23455WAT      O70606   3.157   0.422   7.600
23455WAT     H170607   3.107   0.411   7.514
23455WAT     H270608   3.113   0.368   7.672
23456WAT      O70609   2.487   9.294   5.965
23456WAT     H170610   2.569   9.321   5.915
23456WAT     H270611   2.450   9.210   5.927
23457WAT      O70612   3.364   8.346   7.077
23457WAT     H170613   3.435   8.283   7.045
23457WAT     H270614   3.337   8.407   7.002
23458WAT      O70615   8.641   4.248   7.906
23458WAT     H170616   8.651   4.285   7.998
23458WAT     H270617   8.545   4.244   7.881
23459WAT      O70618   4.318   1.809   2.436
23459WAT     H170619   4.275   1.896   2.462
23459WAT     H270620   4.416   1.823   2.422
23460WAT      O70621   4.938   2.126   1.202
23460WAT     H170622   5.022   2.093   1.246
23460WAT     H270623   4.869   2.054   1.204
23461WAT      O70624   6.726   0.116   8.199
23461WAT     H170625   6.720   0.036   8.140
23461WAT     H270626   6.783   0.096   8.278
23462WAT      O70627   6.644   9.682   0.525
23462WAT     H170628   6.579   9.692   0.449
23462WAT     H270629   6.707   9.759   0.525
23463WAT      O70630   2.025   0.684   7.938
23463WAT     H170631   2.051   0.735   8.020
23463WAT     H270632   2.027   0.586   7.958
23464WAT      O70633   9.304   2.449   7.392
23464WAT     H170634   9.229   2.448   7.326
23464WAT     H270635   9.323   2.356   7.423
23465WAT      O70636   9.467   8.767   0.117
23465WAT     H170637   9.395   8.790   0.182
23465WAT     H270638   9.451   8.675   0.081
23466WAT      O70639   8.272   7.045   4.199
23466WAT     H170640   8.346   7.105   4.229
23466WAT     H270641   8.184   7.083   4.229
23467WAT      O70642   0.995   1.120   9.628
23467WAT     H170643   0.971   1.025   9.648
23467WAT     H270644   0.928   1.158   9.564
23468WAT      O70645   3.736   4.086   6.448
23468WAT     H170646   3.688   4.143   6.381
23468WAT     H270647   3.785   4.144   6.513
23469WAT      O70648   1.245   9.004   3.480
23469WAT     H170649   1.294   8.920   3.502
23469WAT     H270650   1.256   9.070   3.555
23470WAT      O70651   9.551   5.521   5.914
23470WAT     H170652   9.473   5.467   5.947
23470WAT     H270653   9.588   5.478   5.832
23471WAT      O70654   6.628   7.081   3.829
23471WAT     H170655   6.567   7.160   3.820
23471WAT     H270656   6.641   7.039   3.739
23472WAT      O70657   7.183   1.722   2.824
23472WAT     H170658   7.153   1.641   2.774
23472WAT     H270659   7.121   1.798   2.804
23473WAT      O70660   7.347   5.698   4.310
23473WAT     H170661   7.405   5.680   4.231
23473WAT     H270662   7.275   5.629   4.315
23474WAT      O70663   0.170   7.322   0.707
23474WAT     H170664   0.091   7.278   0.664
23474WAT     H270665   0.213   7.385   0.642
23475WAT      O70666   3.235   7.521   6.422
23475WAT     H170667   3.283   7.585   6.363
23475WAT     H270668   3.240   7.429   6.384
23476WAT      O70669   8.264   2.669   6.892
23476WAT     H170670   8.351   2.653   6.938
23476WAT     H270671   8.257   2.608   6.813
23477WAT      O70672   4.395   6.286   2.333
23477WAT     H170673   4.354   6.338   2.258
23477WAT     H270674   4.365   6.325   2.420
23478WAT      O70675   9.554   7.233   1.303
23478WAT     H170676   9.509   7.179   1.232
23478WAT     H270677   9.626   7.179   1.345
23479WAT      O70678   1.928   8.659   0.911
23479WAT     H170679   1.894   8.674   1.004
23479WAT     H270680   1.944   8.747   0.867
23480WAT      O70681   5.871   8.073   3.399
23480WAT     H170682   5.891   7.979   3.427
23480WAT     H270683   5.871   8.079   3.299
23481WAT      O70684   0.309   1.882   2.748
23481WAT     H170685   0.337   1.925   2.834
23481WAT     H270686   0.271   1.791   2.766
23482WAT      O70687   3.451   2.496   7.725
23482WAT     H170688   3.360   2.453   7.718
23482WAT     H270689   3.519   2.426   7.746
23483WAT      O70690   2.666   4.099   8.254
23483WAT     H170691   2.716   4.177   8.216
23483WAT     H270692   2.626   4.045   8.179
23484WAT      O70693   9.874   6.514   6.075
23484WAT     H170694   9.798   6.449   6.075
23484WAT     H270695   9.870   6.570   5.993
23485WAT      O70696   8.027   8.562   9.677
23485WAT     H170697   8.033   8.502   9.597
23485WAT     H270698   8.085   8.642   9.663
23486WAT      O70699   6.263   9.804   2.735
23486WAT     H170700   6.243   9.814   2.832
23486WAT     H270701   6.303   9.888   2.700
23487WAT      O70702   6.628   1.489   7.637
23487WAT     H170703   6.686   1.443   7.705
23487WAT     H270704   6.535   1.453   7.644
23488WAT      O70705   9.063   2.558   2.770
23488WAT     H170706   8.978   2.517   2.803
23488WAT     H270707   9.138   2.493   2.782
23489WAT      O70708   4.759   5.688   7.142
23489WAT     H170709   4.725   5.663   7.233
23489WAT     H270710   4.690   5.666   7.073
23490WAT      O70711   5.432   5.580   0.565
23490WAT     H170712   5.480   5.588   0.652
23490WAT     H270713   5.368   5.657   0.555
23491WAT      O70714   7.465   4.003   0.640
23491WAT     H170715   7.480   3.995   0.739
23491WAT     H270716   7.492   3.918   0.595
23492WAT      O70717   0.768   2.266   0.862
23492WAT     H170718   0.759   2.315   0.776
23492WAT     H270719   0.703   2.189   0.863
23493WAT      O70720   1.783   9.466   3.701
23493WAT     H170721   1.740   9.487   3.613
23493WAT     H270722   1.830   9.547   3.735
23494WAT      O70723   0.199   2.886   7.218
23494WAT     H170724   0.134   2.835   7.274
23494WAT     H270725   0.216   2.836   7.133
23495WAT      O70726   7.873   7.610   3.972
23495WAT     H170727   7.780   7.576   3.966
23495WAT     H270728   7.929   7.548   4.027
23496WAT      O70729   7.518   3.089   0.402
23496WAT     H170730   7.531   3.137   0.315
23496WAT     H270731   7.605   3.050   0.433
23497WAT      O70732   4.590   0.858   9.624
23497WAT     H170733   4.634   0.818   9.704
23497WAT     H270734   4.491   0.855   9.636
23498WAT      O70735   2.991   1.344   1.625
23498WAT     H170736   2.939   1.259   1.620
23498WAT     H270737   2.939   1.412   1.676
23499WAT      O70738   7.761   0.824   2.902
23499WAT     H170739   7.682   0.850   2.846
23499WAT     H270740   7.730   0.794   2.992
23500WAT      O70741   7.206   6.127   6.870
23500WAT     H170742   7.296   6.093   6.899
23500WAT     H270743   7.206   6.227   6.871
23501WAT      O70744   0.675   5.627   9.435
23501WAT     H170745   0.683   5.654   9.531
23501WAT     H270746   0.585   5.588   9.419
23502WAT      O70747   5.035   8.398   3.521
23502WAT     H170748   4.988   8.370   3.437
23502WAT     H270749   5.041   8.320   3.583
23503WAT      O70750   8.059   1.197   1.053
23503WAT     H170751   8.134   1.216   1.115
23503WAT     H270752   8.005   1.120   1.088
23504WAT      O70753   5.033   1.718   4.219
23504WAT     H170754   4.961   1.727   4.288
23504WAT     H270755   5.028   1.794   4.155
23505WAT      O70756   0.416   3.507   6.911
23505WAT     H170757   0.439   3.435   6.977
23505WAT     H270758   0.320   3.496   6.882
23506WAT      O70759   2.947   0.895   2.496
23506WAT     H170760   2.946   0.838   2.414
23506WAT     H270761   2.853   0.920   2.521
23507WAT      O70762   9.822   4.907   9.109
23507WAT     H170763   9.842   4.947   9.019
23507WAT     H270764   9.741   4.849   9.101
23508WAT      O70765   7.704   9.717   9.302
23508WAT     H170766   7.666   9.801   9.343
23508WAT     H270767   7.795   9.700   9.340
23509WAT      O70768   6.482   4.227   1.881
23509WAT     H170769   6.533   4.160   1.933
23509WAT     H270770   6.545   4.287   1.832
23510WAT      O70771   5.896   0.056   0.116
23510WAT     H170772   5.805   0.066   0.075
23510WAT     H270773   5.966   0.067   0.045
23511WAT      O70774   4.817   7.579   0.876
23511WAT     H170775   4.778   7.634   0.802
23511WAT     H270776   4.840   7.488   0.841
23512WAT      O70777   2.222   4.941   3.928
23512WAT     H170778   2.269   5.026   3.907
23512WAT     H270779   2.286   4.877   3.970
23513WAT      O70780   0.180   6.916   9.278
23513WAT     H170781   0.253   6.972   9.238
23513WAT     H270782   0.194   6.820   9.253
23514WAT      O70783   8.610   8.673   7.693
23514WAT     H170784   8.548   8.651   7.617
23514WAT     H270785   8.702   8.691   7.657
23515WAT      O70786   5.849   2.883   4.771
23515WAT     H170787   5.858   2.873   4.870
23515WAT     H270788   5.940   2.879   4.729
23516WAT      O70789   6.339   5.093   2.577
23516WAT     H170790   6.312   5.089   2.481
23516WAT     H270791   6.392   5.176   2.593
23517WAT      O70792   0.645   5.097   1.529
23517WAT     H170793   0.597   5.158   1.592
23517WAT     H270794   0.579   5.053   1.468
23518WAT      O70795   2.928   3.534   3.872
23518WAT     H170796   2.982   3.477   3.811
23518WAT     H270797   2.987   3.605   3.913
23519WAT      O70798   6.439   2.916   0.201
23519WAT     H170799   6.473   2.847   0.137
23519WAT     H270800   6.385   2.984   0.151
23520WAT      O70801   2.733   7.649   3.232
23520WAT     H170802   2.665   7.674   3.163
23520WAT     H270803   2.698   7.573   3.287
23521WAT      O70804   5.792   5.876   7.817
23521WAT     H170805   5.868   5.934   7.788
23521WAT     H270806   5.710   5.899   7.765
23522WAT      O70807   3.767   4.554   1.355
23522WAT     H170808   3.669   4.571   1.341
23522WAT     H270809   3.818   4.595   1.279
23523WAT      O70810   0.874   5.817   9.272
23523WAT     H170811   0.831   5.726   9.276
23523WAT     H270812   0.924   5.834   9.357
23524WAT      O70813   8.588   9.741   8.395
23524WAT     H170814   8.504   9.692   8.416
23524WAT     H270815   8.573   9.839   8.405
23525WAT      O70816   7.827   2.613   3.445
23525WAT     H170817   7.896   2.670   3.400
23525WAT     H270818   7.736   2.635   3.409
23526WAT      O70819   5.396   3.303   6.542
23526WAT     H170820   5.305   3.342   6.555
23526WAT     H270821   5.450   3.317   6.625
23527WAT      O70822   7.530   1.295   7.929
23527WAT     H170823   7.498   1.363   7.864
23527WAT     H270824   7.569   1.341   8.009
23528WAT      O70825   2.443   4.844   5.778
23528WAT     H170826   2.380   4.767   5.776
23528WAT     H270827   2.416   4.907   5.851
23529WAT      O70828   8.889   6.348   5.126
23529WAT     H170829   8.838   6.379   5.046
23529WAT     H270830   8.892   6.248   5.128
23530WAT      O70831   4.008   1.120   5.045
23530WAT     H170832   4.051   1.204   5.012
23530WAT     H270833   4.074   1.065   5.095
23531WAT      O70834   7.116   4.752   7.701
23531WAT     H170835   7.181   4.771   7.774
23531WAT     H270836   7.164   4.744   7.614
23532WAT      O70837   3.760   5.159   5.077
23532WAT     H170838   3.851   5.195   5.098
23532WAT     H270839   3.767   5.093   5.003
23533WAT      O70840   7.988   0.673   8.284
23533WAT     H170841   7.994   0.664   8.383
23533WAT     H270842   8.001   0.584   8.241
23534WAT      O70843   0.248   7.762   8.721
23534WAT     H170844   0.244   7.674   8.673
23534WAT     H270845   0.251   7.745   8.820
23535WAT      O70846   5.520   0.629   8.649
23535WAT     H170847   5.523   0.553   8.584
23535WAT     H270848   5.603   0.684   8.639
23536WAT      O70849   2.837   0.017   9.880
23536WAT     H170850   2.820   0.065   9.967
23536WAT     H270851   2.763   0.037   9.816
23537WAT      O70852   5.406   8.597   8.948
23537WAT     H170853   5.338   8.668   8.966
23537WAT     H270854   5.495   8.639   8.931
23538WAT      O70855   1.157   9.083   5.378
23538WAT     H170856   1.061   9.097   5.399
23538WAT     H270857   1.166   9.032   5.293
23539WAT      O70858   2.005   2.214   5.936
23539WAT     H170859   2.035   2.243   6.027
23539WAT     H270860   2.060   2.136   5.907
23540WAT      O70861   8.916   1.841   5.088
23540WAT     H170862   8.816   1.844   5.094
23540WAT     H270863   8.951   1.773   5.152
23541WAT      O70864   9.349   1.988   0.816
23541WAT     H170865   9.278   1.930   0.856
23541WAT     H270866   9.423   2.001   0.883
23542WAT      O70867   4.982   9.106   6.421
23542WAT     H170868   4.982   9.011   6.391
23542WAT     H270869   5.072   9.146   6.404
23543WAT      O70870   5.995   9.671   5.872
23543WAT     H170871   5.896   9.659   5.862
23543WAT     H270872   6.039   9.659   5.783
23544WAT      O70873   4.902   0.226   5.559
23544WAT     H170874   4.942   0.310   5.523
23544WAT     H270875   4.802   0.234   5.562
23545WAT      O70876   9.114   4.301   0.153
23545WAT     H170877   9.035   4.270   0.206
23545WAT     H270878   9.168   4.222   0.124
23546WAT      O70879   6.135   7.120   7.205
23546WAT     H170880   6.215   7.180   7.213
23546WAT     H270881   6.100   7.123   7.111
23547WAT      O70882   5.930   3.112   9.310
23547WAT     H170883   5.913   3.197   9.359
23547WAT     H270884   6.017   3.072   9.342
23548WAT      O70885   3.373   3.673   1.320
23548WAT     H170886   3.303   3.676   1.392
23548WAT     H270887   3.341   3.723   1.240
23549WAT      O70888   9.080   3.362   0.098
23549WAT     H170889   9.032   3.374   0.185
23549WAT     H270890   9.023   3.311   0.035
23550WAT      O70891   4.870   4.213   7.478
23550WAT     H170892   4.776   4.243   7.461
23550WAT     H270893   4.932   4.289   7.461
23551WAT      O70894   5.418   6.899   7.805
23551WAT     H170895   5.414   6.863   7.712
23551WAT     H270896   5.477   6.980   7.806
23552WAT      O70897   2.237   7.188   5.415
23552WAT     H170898   2.249   7.215   5.319
23552WAT     H270899   2.215   7.268   5.470
23553WAT      O70900   5.927   0.443   2.912
23553WAT     H170901   5.941   0.432   2.814
23553WAT     H270902   5.887   0.533   2.930
23554WAT      O70903   4.944   9.125   3.180
23554WAT     H170904   5.034   9.152   3.146
23554WAT     H270905   4.946   9.124   3.280
23555WAT      O70906   4.562   4.273   9.221
23555WAT     H170907   4.603   4.312   9.139
23555WAT     H270908   4.515   4.344   9.273
23556WAT      O70909   1.135   2.576   8.159
23556WAT     H170910   1.192   2.656   8.172
23556WAT     H270911   1.176   2.497   8.205
23557WAT      O70912   2.374   7.990   0.908
23557WAT     H170913   2.410   8.076   0.943
23557WAT     H270914   2.277   8.001   0.885
23558WAT      O70915   8.629   9.392   4.014
23558WAT     H170916   8.556   9.340   3.970
23558WAT     H270917   8.718   9.352   3.991
23559WAT      O70918   0.300   1.449   4.713
23559WAT     H170919   0.318   1.507   4.633
23559WAT     H270920   0.376   1.383   4.724
23560WAT      O70921   8.812   2.196   7.968
23560WAT     H170922   8.912   2.195   7.969
23560WAT     H270923   8.779   2.131   7.899
23561WAT      O70924   8.623   0.798   1.255
23561WAT     H170925   8.649   0.879   1.201
23561WAT     H270926   8.532   0.768   1.227
23562WAT      O70927   5.804   2.354   7.359
23562WAT     H170928   5.901   2.341   7.339
23562WAT     H270929   5.751   2.279   7.318
23563WAT      O70930   0.806   8.553   2.736
23563WAT     H170931   0.738   8.524   2.668
23563WAT     H270932   0.886   8.590   2.690
23564WAT      O70933   2.432   7.539   0.322
23564WAT     H170934   2.413   7.582   0.411
23564WAT     H270935   2.349   7.493   0.289
23565WAT      O70936   1.606   1.453   0.828
23565WAT     H170937   1.673   1.527   0.832
23565WAT     H270938   1.525   1.485   0.779
23566WAT      O70939   3.781   6.732   1.933
23566WAT     H170940   3.759   6.689   1.845
23566WAT     H270941   3.879   6.750   1.936
23567WAT      O70942   5.513   7.806   3.680
23567WAT     H170943   5.520   7.767   3.588
23567WAT     H270944   5.478   7.899   3.674
23568WAT      O70945   6.560   7.292   6.905
23568WAT     H170946   6.630   7.315   6.838
23568WAT     H270947   6.476   7.342   6.884
23569WAT      O70948   5.838   2.454   3.781
23569WAT     H170949   5.822   2.440   3.683
23569WAT     H270950   5.857   2.366   3.825
23570WAT      O70951   5.314   9.267   3.335
23570WAT     H170952   5.317   9.355   3.382
23570WAT     H270953   5.258   9.275   3.253
23571WAT      O70954   9.199   8.719   5.796
23571WAT     H170955   9.145   8.665   5.861
23571WAT     H270956   9.144   8.794   5.760
23572WAT      O70957   6.452   7.593   7.749
23572WAT     H170958   6.402   7.674   7.782
23572WAT     H270959   6.427   7.575   7.654
23573WAT      O70960   2.808   1.171   8.052
23573WAT     H170961   2.907   1.159   8.067
23573WAT     H270962   2.793   1.250   7.993
23574WAT      O70963   6.188   3.252   5.217
23574WAT     H170964   6.167   3.293   5.129
23574WAT     H270965   6.264   3.300   5.260
23575WAT      O70966   0.434   4.718   0.254
23575WAT     H170967   0.382   4.745   0.173
23575WAT     H270968   0.532   4.717   0.232
23576WAT      O70969   8.723   7.396   3.127
23576WAT     H170970   8.669   7.312   3.135
23576WAT     H270971   8.809   7.376   3.081
23577WAT      O70972   0.758   6.766   6.207
23577WAT     H170973   0.728   6.688   6.152
23577WAT     H270974   0.750   6.743   6.304
23578WAT      O70975   5.252   5.546   1.644
23578WAT     H170976   5.251   5.645   1.657
23578WAT     H270977   5.218   5.524   1.552
23579WAT      O70978   8.586   3.429   4.488
23579WAT     H170979   8.632   3.387   4.410
23579WAT     H270980   8.542   3.358   4.543
23580WAT      O70981   7.223   8.686   0.152
23580WAT     H170982   7.303   8.681   0.211
23580WAT     H270983   7.246   8.653   0.060
23581WAT      O70984   6.667   1.765   5.610
23581WAT     H170985   6.685   1.674   5.572
23581WAT     H270986   6.717   1.834   5.557
23582WAT      O70987   7.689   3.042   7.320
23582WAT     H170988   7.731   3.133   7.312
23582WAT     H270989   7.592   3.051   7.340
23583WAT      O70990   5.392   5.664   8.513
23583WAT     H170991   5.410   5.661   8.612
23583WAT     H270992   5.432   5.747   8.475
23584WAT      O70993   3.523   5.374   3.128
23584WAT     H170994   3.571   5.422   3.201
23584WAT     H270995   3.470   5.298   3.166
23585WAT      O70996   4.485   1.152   6.694
23585WAT     H170997   4.518   1.226   6.753
23585WAT     H270998   4.389   1.169   6.671
23586WAT      O70999   8.633   0.590   5.987
23586WAT     H171000   8.559   0.636   6.037
23586WAT     H271001   8.637   0.494   6.014
23587WAT      O71002   7.023   5.754   7.497
23587WAT     H171003   7.110   5.707   7.484
23587WAT     H271004   7.015   5.827   7.429
23588WAT      O71005   1.959   0.886   9.855
23588WAT     H171006   1.862   0.911   9.855
23588WAT     H271007   1.993   0.883   9.948
23589WAT      O71008   2.505   7.742   9.788
23589WAT     H171009   2.602   7.720   9.789
23589WAT     H271010   2.456   7.683   9.852
23590WAT      O71011   3.413   4.168   3.853
23590WAT     H171012   3.328   4.170   3.904
23590WAT     H271013   3.460   4.081   3.869
23591WAT      O71014   6.314   7.700   9.475
23591WAT     H171015   6.411   7.678   9.482
23591WAT     H271016   6.263   7.620   9.445
23592WAT      O71017   2.473   8.287   7.688
23592WAT     H171018   2.503   8.377   7.658
23592WAT     H271019   2.387   8.295   7.738
23593WAT      O71020   5.163   0.163   8.270
23593WAT     H171021   5.180   0.171   8.172
23593WAT     H271022   5.074   0.204   8.291
23594WAT      O71023   8.154   5.827   8.568
23594WAT     H171024   8.071   5.882   8.580
23594WAT     H271025   8.129   5.736   8.534
23595WAT      O71026   6.191   7.722   7.043
23595WAT     H171027   6.258   7.783   7.085
23595WAT     H271028   6.183   7.742   6.946
23596WAT      O71029   3.340   0.360   6.351
23596WAT     H171030   3.330   0.452   6.388
23596WAT     H271031   3.250   0.316   6.346
23597WAT      O71032   9.099   9.178   8.986
23597WAT     H171033   9.169   9.239   8.948
23597WAT     H271034   9.131   9.143   9.075
23598WAT      O71035   3.483   6.734   3.250
23598WAT     H171036   3.411   6.764   3.187
23598WAT     H271037   3.446   6.667   3.313
23599WAT      O71038   0.096   9.672   7.001
23599WAT     H171039   0.169   9.739   7.017
23599WAT     H271040   0.047   9.656   7.087
23600WAT      O71041   0.974   5.749   8.034
23600WAT     H171042   1.036   5.683   7.991
23600WAT     H271043   0.884   5.744   7.990
23601WAT      O71044   1.094   6.871   9.518
23601WAT     H171045   1.112   6.930   9.439
23601WAT     H271046   1.179   6.850   9.565
23602WAT      O71047   4.781   4.521   2.002
23602WAT     H171048   4.863   4.525   2.060
23602WAT     H271049   4.765   4.426   1.975
23603WAT      O71050   0.053   7.912   7.689
23603WAT     H171051   0.004   7.997   7.667
23603WAT     H271052   0.010   7.836   7.642
23604WAT      O71053   8.155   7.986   1.267
23604WAT     H171054   8.128   7.898   1.305
23604WAT     H271055   8.228   8.026   1.323
23605WAT      O71056   4.377   3.002   1.515
23605WAT     H171057   4.395   3.082   1.457
23605WAT     H271058   4.279   2.996   1.534
23606WAT      O71059   1.777   4.985   4.934
23606WAT     H171060   1.684   4.986   4.897
23606WAT     H271061   1.786   4.911   5.000
23607WAT      O71062   2.816   5.016   2.447
23607WAT     H171063   2.801   5.109   2.481
23607WAT     H271064   2.900   5.014   2.392
23608WAT      O71065   5.171   2.416   6.829
23608WAT     H171066   5.103   2.445   6.896
23608WAT     H271067   5.258   2.398   6.875
23609WAT      O71068   0.477   4.766   3.616
23609WAT     H171069   0.473   4.672   3.649
23609WAT     H271070   0.507   4.826   3.691
23610WAT      O71071   0.026   0.696   8.438
23610WAT     H171072  -0.015   0.606   8.423
23610WAT     H271073   0.124   0.692   8.417
23611WAT      O71074   0.059   7.896   2.619
23611WAT     H171075   0.131   7.894   2.549
23611WAT     H271076   0.070   7.978   2.675
23612WAT      O71077   2.720   2.593   2.287
23612WAT     H171078   2.675   2.602   2.198
23612WAT     H271079   2.819   2.599   2.275
23613WAT      O71080   3.958   8.678   6.510
23613WAT     H171081   4.054   8.672   6.538
23613WAT     H271082   3.905   8.719   6.583
23614WAT      O71083   2.983   5.439   6.734
23614WAT     H171084   3.056   5.431   6.802
23614WAT     H271085   3.019   5.415   6.644
23615WAT      O71086   4.253   5.611   6.686
23615WAT     H171087   4.175   5.670   6.665
23615WAT     H271088   4.269   5.611   6.785
23616WAT      O71089   7.867   0.813   4.542
23616WAT     H171090   7.963   0.839   4.546
23616WAT     H271091   7.850   0.758   4.460
23617WAT      O71092   6.703   1.612   1.917
23617WAT     H171093   6.661   1.701   1.904
23617WAT     H271094   6.729   1.574   1.828
23618WAT      O71095   3.020   8.342   1.984
23618WAT     H171096   2.970   8.417   2.028
23618WAT     H271097   3.055   8.279   2.054
23619WAT      O71098   0.223   7.443   2.229
23619WAT     H171099   0.271   7.488   2.305
23619WAT     H271100   0.136   7.407   2.262
23620WAT      O71101   5.197   0.912   4.114
23620WAT     H171102   5.129   0.947   4.050
23620WAT     H271103   5.216   0.982   4.183
23621WAT      O71104   2.417   0.096   5.372
23621WAT     H171105   2.393   0.141   5.286
23621WAT     H271106   2.512   0.117   5.396
23622WAT      O71107   4.072   5.879   6.989
23622WAT     H171108   4.002   5.950   6.987
23622WAT     H271109   4.149   5.906   6.931
23623WAT      O71110   2.620   6.054   5.460
23623WAT     H171111   2.637   5.957   5.473
23623WAT     H271112   2.546   6.084   5.519
23624WAT      O71113   2.656   0.245   4.728
23624WAT     H171114   2.750   0.239   4.762
23624WAT     H271115   2.657   0.270   4.631
23625WAT      O71116   0.827   7.398   6.572
23625WAT     H171117   0.830   7.302   6.598
23625WAT     H271118   0.847   7.455   6.653
23626WAT      O71119   8.751   0.977   5.534
23626WAT     H171120   8.825   0.922   5.574
23626WAT     H271121   8.669   0.969   5.591
23627WAT      O71122   9.664   5.481   9.437
23627WAT     H171123   9.748   5.479   9.384
23627WAT     H271124   9.590   5.439   9.385
23628WAT      O71125   9.341   3.555   2.482
23628WAT     H171126   9.359   3.485   2.551
23628WAT     H271127   9.295   3.514   2.404
23629WAT      O71128   1.522   9.018   6.692
23629WAT     H171129   1.446   9.070   6.652
23629WAT     H271130   1.608   9.066   6.676
23630WAT      O71131   6.765   2.941   7.567
23630WAT     H171132   6.859   2.931   7.535
23630WAT     H271133   6.743   2.866   7.630
23631WAT      O71134   7.499   7.095   3.612
23631WAT     H171135   7.547   7.168   3.564
23631WAT     H271136   7.504   7.010   3.559
23632WAT      O71137   1.953   0.163   9.297
23632WAT     H171138   1.929   0.084   9.354
23632WAT     H271139   2.023   0.136   9.231
23633WAT      O71140   9.866   1.031   3.553
23633WAT     H171141   9.864   1.130   3.539
23633WAT     H271142   9.934   1.008   3.622
23634WAT      O71143   3.111   2.588   0.069
23634WAT     H171144   3.209   2.589   0.090
23634WAT     H271145   3.067   2.516   0.122
23635WAT      O71146   1.218   7.706   9.471
23635WAT     H171147   1.125   7.680   9.499
23635WAT     H271148   1.277   7.626   9.471
23636WAT      O71149   3.934   7.845   3.031
23636WAT     H171150   3.935   7.797   2.943
23636WAT     H271151   3.975   7.787   3.101
23637WAT      O71152   7.857   5.383   1.862
23637WAT     H171153   7.779   5.422   1.813
23637WAT     H271154   7.908   5.322   1.801
23638WAT      O71155   3.621   2.274   7.754
23638WAT     H171156   3.703   2.273   7.696
23638WAT     H271157   3.629   2.203   7.824
23639WAT      O71158   2.982   0.774   0.056
23639WAT     H171159   3.016   0.858   0.099
23639WAT     H271160   2.882   0.770   0.066
23640WAT      O71161   5.513   1.219   4.382
23640WAT     H171162   5.505   1.122   4.400
23640WAT     H271163   5.502   1.237   4.284
23641WAT      O71164   4.081   9.569   1.340
23641WAT     H171165   4.037   9.643   1.390
23641WAT     H271166   4.086   9.592   1.243
23642WAT      O71167   5.035   2.958   6.574
23642WAT     H171168   5.002   2.900   6.500
23642WAT     H271169   5.117   3.007   6.544
23643WAT      O71170   8.556   7.532   9.411
23643WAT     H171171   8.458   7.528   9.392
23643WAT     H271172   8.572   7.591   9.490
23644WAT      O71173   2.911   9.331   9.382
23644WAT     H171174   2.902   9.242   9.426
23644WAT     H271175   2.845   9.395   9.421
23645WAT      O71176   0.879   8.888   1.028
23645WAT     H171177   0.834   8.845   0.950
23645WAT     H271178   0.957   8.833   1.057
23646WAT      O71179   1.292   3.738   2.938
23646WAT     H171180   1.312   3.831   2.904
23646WAT     H271181   1.250   3.685   2.865
23647WAT      O71182   5.779   2.373   3.000
23647WAT     H171183   5.855   2.335   3.052
23647WAT     H271184   5.696   2.322   3.020
23648WAT      O71185   8.248   0.114   1.629
23648WAT     H171186   8.216   0.205   1.605
23648WAT     H271187   8.187   0.074   1.697
23649WAT      O71188   8.255   7.576   2.051
23649WAT     H171189   8.240   7.662   2.101
23649WAT     H271190   8.337   7.531   2.085
23650WAT      O71191   0.045   0.078   2.299
23650WAT     H171192   0.100   0.085   2.382
23650WAT     H271193   0.078   0.144   2.231
23651WAT      O71194   4.135   0.696   0.774
23651WAT     H171195   4.120   0.660   0.866
23651WAT     H271196   4.109   0.626   0.707
23652WAT      O71197   1.307   8.576   0.934
23652WAT     H171198   1.317   8.604   0.839
23652WAT     H271199   1.265   8.485   0.938
23653WAT      O71200   7.764   1.465   3.893
23653WAT     H171201   7.698   1.494   3.824
23653WAT     H271202   7.731   1.382   3.939
23654WAT      O71203   0.952   8.651   4.087
23654WAT     H171204   1.007   8.709   4.148
23654WAT     H271205   0.871   8.701   4.058
23655WAT      O71206   4.939   5.372   1.198
23655WAT     H171207   4.976   5.279   1.198
23655WAT     H271208   4.854   5.374   1.252
23656WAT      O71209   7.645   4.218   0.083
23656WAT     H171210   7.735   4.254   0.106
23656WAT     H271211   7.586   4.292   0.050
23657WAT      O71212   0.643   9.110   1.503
23657WAT     H171213   0.586   9.030   1.481
23657WAT     H271214   0.735   9.080   1.528
23658WAT      O71215   6.769   4.002   1.843
23658WAT     H171216   6.857   4.033   1.877
23658WAT     H271217   6.751   4.041   1.753
23659WAT      O71218   4.105   8.367   2.228
23659WAT     H171219   4.049   8.355   2.146
23659WAT     H271220   4.160   8.450   2.219
23660WAT      O71221   4.956   7.869   8.172
23660WAT     H171222   5.031   7.849   8.109
23660WAT     H271223   4.942   7.792   8.233
23661WAT      O71224   8.731   5.872   3.050
23661WAT     H171225   8.806   5.857   2.984
23661WAT     H271226   8.728   5.969   3.075
23662WAT      O71227   5.068   2.798   9.528
23662WAT     H171228   5.022   2.761   9.609
23662WAT     H271229   5.046   2.742   9.448
23663WAT      O71230   0.522   3.875   0.705
23663WAT     H171231   0.448   3.918   0.653
23663WAT     H271232   0.607   3.884   0.653
23664WAT      O71233   5.516   2.215   1.781
23664WAT     H171234   5.547   2.291   1.837
23664WAT     H271235   5.591   2.183   1.724
23665WAT      O71236   9.112   7.225   2.036
23665WAT     H171237   9.195   7.180   2.002
23665WAT     H271238   9.130   7.323   2.046
23666WAT      O71239   8.086   7.188   9.179
23666WAT     H171240   8.021   7.260   9.154
23666WAT     H271241   8.165   7.191   9.118
23667WAT      O71242   2.007   3.258   2.121
23667WAT     H171243   2.034   3.238   2.215
23667WAT     H271244   1.909   3.273   2.116
23668WAT      O71245   2.520   5.439   4.634
23668WAT     H171246   2.604   5.430   4.687
23668WAT     H271247   2.505   5.356   4.580
23669WAT      O71248   9.117   8.835   7.024
23669WAT     H171249   9.125   8.738   6.999
23669WAT     H271250   9.174   8.890   6.963
23670WAT      O71251   9.812   2.858   6.043
23670WAT     H171252   9.893   2.822   5.997
23670WAT     H271253   9.821   2.847   6.142
23671WAT      O71254   9.461   4.377   2.910
23671WAT     H171255   9.488   4.472   2.927
23671WAT     H271256   9.541   4.324   2.884
23672WAT      O71257   5.639   3.401   8.870
23672WAT     H171258   5.592   3.484   8.840
23672WAT     H271259   5.651   3.403   8.969
23673WAT      O71260   7.417   6.702   8.813
23673WAT     H171261   7.324   6.671   8.835
23673WAT     H271262   7.477   6.623   8.806
23674WAT      O71263   7.013   8.872   1.625
23674WAT     H171264   7.109   8.871   1.654
23674WAT     H271265   6.992   8.788   1.575
23675WAT      O71266   1.681   4.166   1.527
23675WAT     H171267   1.744   4.174   1.450
23675WAT     H271268   1.591   4.139   1.494
23676WAT      O71269   4.986   2.469   2.369
23676WAT     H171270   4.897   2.507   2.392
23676WAT     H271271   4.987   2.438   2.274
23677WAT      O71272   5.389   4.504   4.549
23677WAT     H171273   5.359   4.539   4.460
23677WAT     H271274   5.349   4.413   4.564
23678WAT      O71275   0.314   6.551   2.335
23678WAT     H171276   0.332   6.594   2.247
23678WAT     H271277   0.224   6.579   2.368
23679WAT      O71278   6.165   7.112   5.767
23679WAT     H171279   6.088   7.106   5.831
23679WAT     H271280   6.130   7.133   5.675
23680WAT      O71281   2.556   6.676   5.764
23680WAT     H171282   2.490   6.620   5.713
23680WAT     H271283   2.627   6.709   5.702
23681WAT      O71284   7.345   5.638   8.622
23681WAT     H171285   7.308   5.627   8.529
23681WAT     H271286   7.270   5.651   8.686
23682WAT      O71287   7.769   2.963   4.095
23682WAT     H171288   7.706   2.974   4.171
23682WAT     H271289   7.861   2.942   4.130
23683WAT      O71290   8.643   4.581   6.991
23683WAT     H171291   8.603   4.618   6.908
23683WAT     H271292   8.576   4.524   7.038
23684WAT      O71293   5.047   2.468   1.361
23684WAT     H171294   4.960   2.420   1.350
23684WAT     H271295   5.054   2.541   1.293
23685WAT      O71296   0.671   9.732   7.579
23685WAT     H171297   0.651   9.762   7.673
23685WAT     H271298   0.621   9.648   7.559
23686WAT      O71299   9.280   7.299   6.423
23686WAT     H171300   9.235   7.321   6.510
23686WAT     H271301   9.272   7.377   6.360
23687WAT      O71302   8.737   0.906   8.887
23687WAT     H171303   8.654   0.852   8.873
23687WAT     H271304   8.732   0.990   8.834
23688WAT      O71305   5.879   3.067   2.060
23688WAT     H171306   5.905   3.044   2.154
23688WAT     H271307   5.948   3.033   1.996
23689WAT      O71308   1.034   1.609   0.346
23689WAT     H171309   0.999   1.625   0.253
23689WAT     H271310   0.962   1.631   0.412
23690WAT      O71311   8.669   7.749   5.438
23690WAT     H171312   8.704   7.731   5.346
23690WAT     H271313   8.741   7.790   5.494
23691WAT      O71314   0.541   1.611   1.116
23691WAT     H171315   0.629   1.607   1.163
23691WAT     H271316   0.467   1.622   1.183
23692WAT      O71317   0.483   5.111   0.144
23692WAT     H171318   0.458   5.186   0.083
23692WAT     H271319   0.510   5.032   0.089
23693WAT      O71320   1.836   7.130   5.084
23693WAT     H171321   1.840   7.074   5.001
23693WAT     H271322   1.841   7.070   5.164
23694WAT      O71323   3.075   8.683   8.659
23694WAT     H171324   3.154   8.707   8.715
23694WAT     H271325   3.090   8.594   8.617
23695WAT      O71326   3.064   4.776   0.073
23695WAT     H171327   2.977   4.818   0.049
23695WAT     H271328   3.074   4.689   0.024
23696WAT      O71329   6.153   3.038   4.287
23696WAT     H171330   6.141   2.957   4.230
23696WAT     H271331   6.244   3.038   4.327
23697WAT      O71332   8.524   0.753   9.778
23697WAT     H171333   8.493   0.833   9.828
23697WAT     H271334   8.528   0.774   9.680
23698WAT      O71335   1.415   7.074   1.210
23698WAT     H171336   1.447   7.019   1.287
23698WAT     H271337   1.476   7.152   1.197
23699WAT      O71338   6.635   7.692   2.537
23699WAT     H171339   6.683   7.680   2.450
23699WAT     H271340   6.537   7.692   2.521
23700WAT      O71341   5.407   3.651   6.262
23700WAT     H171342   5.351   3.680   6.340
23700WAT     H271343   5.495   3.698   6.265
23701WAT      O71344   8.247   9.208   0.424
23701WAT     H171345   8.212   9.118   0.452
23701WAT     H271346   8.268   9.263   0.505
23702WAT      O71347   7.024   3.946   3.726
23702WAT     H171348   7.051   3.909   3.814
23702WAT     H271349   6.929   3.921   3.707
23703WAT      O71350   6.327   8.030   7.911
23703WAT     H171351   6.327   8.070   8.003
23703WAT     H271352   6.272   8.087   7.850
23704WAT      O71353   9.073   7.396   4.936
23704WAT     H171354   9.171   7.386   4.919
23704WAT     H271355   9.037   7.310   4.972
23705WAT      O71356   5.960   7.272   9.638
23705WAT     H171357   5.868   7.237   9.622
23705WAT     H271358   6.023   7.196   9.655
23706WAT      O71359   7.070   5.826   1.180
23706WAT     H171360   6.996   5.841   1.246
23706WAT     H271361   7.032   5.802   1.091
23707WAT      O71362   6.897   1.543   5.704
23707WAT     H171363   6.846   1.519   5.621
23707WAT     H271364   6.951   1.465   5.734
23708WAT      O71365   6.566   8.762   5.506
23708WAT     H171366   6.545   8.697   5.580
23708WAT     H271367   6.491   8.827   5.496
23709WAT      O71368   3.668   9.737   5.823
23709WAT     H171369   3.651   9.649   5.780
23709WAT     H271370   3.767   9.751   5.833
23710WAT      O71371   0.368   9.287   6.867
23710WAT     H171372   0.442   9.235   6.825
23710WAT     H271373   0.353   9.254   6.961
23711WAT      O71374   8.636   5.434   1.905
23711WAT     H171375   8.702   5.453   1.979
23711WAT     H271376   8.675   5.465   1.818
23712WAT      O71377   0.360   3.981   3.148
23712WAT     H171378   0.349   3.993   3.049
23712WAT     H271379   0.301   4.044   3.196
23713WAT      O71380   6.029   4.427   8.860
23713WAT     H171381   5.984   4.517   8.852
23713WAT     H271382   5.973   4.358   8.815
23714WAT      O71383   4.403   2.253   5.735
23714WAT     H171384   4.474   2.235   5.667
23714WAT     H271385   4.395   2.174   5.796
23715WAT      O71386   5.025   9.369   9.265
23715WAT     H171387   4.953   9.373   9.334
23715WAT     H271388   4.985   9.376   9.174
23716WAT      O71389   5.338   4.030   2.025
23716WAT     H171390   5.291   3.987   1.948
23716WAT     H271391   5.389   4.110   1.993
23717WAT      O71392   5.719   2.490   2.357
23717WAT     H171393   5.664   2.442   2.425
23717WAT     H271394   5.802   2.526   2.399
23718WAT      O71395   8.530   2.647   0.087
23718WAT     H171396   8.569   2.555   0.090
23718WAT     H271397   8.573   2.704   0.157
23719WAT      O71398   5.002   1.499   6.986
23719WAT     H171399   4.980   1.435   7.059
23719WAT     H271400   4.928   1.497   6.918
23720WAT      O71401   1.532   5.149   6.712
23720WAT     H171402   1.483   5.079   6.764
23720WAT     H271403   1.613   5.179   6.763
23721WAT      O71404   6.140   1.503   0.045
23721WAT     H171405   6.119   1.460  -0.042
23721WAT     H271406   6.067   1.483   0.111
23722WAT      O71407   9.115   6.189   9.188
23722WAT     H171408   9.042   6.237   9.138
23722WAT     H271409   9.203   6.209   9.145
23723WAT      O71410   7.051   8.082   5.262
23723WAT     H171411   6.954   8.102   5.252
23723WAT     H271412   7.104   8.137   5.198
23724WAT      O71413   7.328   1.464   8.491
23724WAT     H171414   7.419   1.499   8.512
23724WAT     H271415   7.336   1.390   8.423
23725WAT      O71416   7.186   6.508   1.197
23725WAT     H171417   7.183   6.493   1.296
23725WAT     H271418   7.280   6.527   1.169
23726WAT      O71419   1.360   1.302   0.499
23726WAT     H171420   1.283   1.238   0.486
23726WAT     H271421   1.442   1.250   0.524
23727WAT      O71422   7.982   4.259   9.411
23727WAT     H171423   8.045   4.228   9.339
23727WAT     H271424   8.020   4.339   9.457
23728WAT      O71425   0.064   4.605   6.906
23728WAT     H171426   0.151   4.625   6.860
23728WAT     H271427  -0.004   4.579   6.837
23729WAT      O71428   1.974   5.962   4.923
23729WAT     H171429   2.001   5.987   4.830
23729WAT     H271430   2.048   5.986   4.987
23730WAT      O71431   8.073   4.524   2.380
23730WAT     H171432   7.981   4.491   2.401
23730WAT     H271433   8.123   4.539   2.465
23731WAT      O71434   7.683   3.664   2.411
23731WAT     H171435   7.672   3.593   2.342
23731WAT     H271436   7.692   3.753   2.367
23732WAT      O71437   7.398   0.370   2.656
23732WAT     H171438   7.369   0.440   2.590
23732WAT     H271439   7.426   0.415   2.741
23733WAT      O71440   5.676   6.120   6.311
23733WAT     H171441   5.583   6.090   6.290
23733WAT     H271442   5.742   6.069   6.255
23734WAT      O71443   7.070   4.048   5.253
23734WAT     H171444   7.045   4.040   5.156
23734WAT     H271445   7.121   3.966   5.281
23735WAT      O71446   4.950   6.405   6.790
23735WAT     H171447   4.993   6.336   6.850
23735WAT     H271448   4.894   6.359   6.722
23736WAT      O71449   5.369   1.527   1.750
23736WAT     H171450   5.307   1.574   1.813
23736WAT     H271451   5.427   1.463   1.800
23737WAT      O71452   1.605   0.608   1.184
23737WAT     H171453   1.653   0.673   1.125
23737WAT     H271454   1.671   0.546   1.227
23738WAT      O71455   5.233   9.459   8.799
23738WAT     H171456   5.143   9.496   8.820
23738WAT     H271457   5.248   9.462   8.700
23739WAT      O71458   3.608   5.588   0.926
23739WAT     H171459   3.615   5.509   0.866
23739WAT     H271460   3.675   5.581   1.000
23740WAT      O71461   8.095   6.236   7.862
23740WAT     H171462   8.057   6.288   7.786
23740WAT     H271463   8.191   6.215   7.844
23741WAT      O71464   9.853   7.814   6.996
23741WAT     H171465   9.916   7.835   7.070
23741WAT     H271466   9.847   7.892   6.934
23742WAT      O71467   7.970   6.145   5.297
23742WAT     H171468   7.905   6.089   5.245
23742WAT     H271469   8.059   6.145   5.251
23743WAT      O71470   7.956   9.685   9.382
23743WAT     H171471   7.996   9.594   9.371
23743WAT     H271472   7.939   9.703   9.479
23744WAT      O71473   2.549   7.266   1.325
23744WAT     H171474   2.472   7.247   1.386
23744WAT     H271475   2.518   7.265   1.230
23745WAT      O71476   5.475   8.243   2.670
23745WAT     H171477   5.383   8.213   2.645
23745WAT     H271478   5.534   8.164   2.681
23746WAT      O71479   8.661   6.191   6.707
23746WAT     H171480   8.636   6.239   6.623
23746WAT     H271481   8.620   6.100   6.708
23747WAT      O71482   6.885   2.374   9.529
23747WAT     H171483   6.842   2.463   9.545
23747WAT     H271484   6.942   2.379   9.448
23748WAT      O71485   3.205   8.802   6.716
23748WAT     H171486   3.142   8.765   6.783
23748WAT     H271487   3.156   8.863   6.654
23749WAT      O71488   5.402   7.955   1.504
23749WAT     H171489   5.303   7.965   1.517
23749WAT     H271490   5.421   7.945   1.406
23750WAT      O71491   5.253   4.613   5.731
23750WAT     H171492   5.352   4.602   5.733
23750WAT     H271493   5.217   4.613   5.824
23751WAT      O71494   9.766   2.514   8.945
23751WAT     H171495   9.776   2.517   9.044
23751WAT     H271496   9.803   2.427   8.910
23752WAT      O71497   4.400   8.917   6.881
23752WAT     H171498   4.454   8.897   6.963
23752WAT     H271499   4.454   8.972   6.818
23753WAT      O71500   0.161   1.409   6.777
23753WAT     H171501   0.108   1.472   6.834
23753WAT     H271502   0.174   1.322   6.825
23754WAT      O71503   4.567   7.085   2.255
23754WAT     H171504   4.665   7.091   2.268
23754WAT     H271505   4.533   7.170   2.214
23755WAT      O71506   4.785   2.192   0.047
23755WAT     H171507   4.827   2.111   0.005
23755WAT     H271508   4.855   2.261   0.064
23756WAT      O71509   7.024   6.045   5.153
23756WAT     H171510   7.010   6.114   5.223
23756WAT     H271511   7.120   6.045   5.125
23757WAT      O71512   8.432   9.176   4.702
23757WAT     H171513   8.444   9.181   4.802
23757WAT     H271514   8.410   9.268   4.667
23758WAT      O71515   7.338   5.021   0.926
23758WAT     H171516   7.320   5.118   0.910
23758WAT     H271517   7.414   5.011   0.991
23759WAT      O71518   6.632   2.885   0.577
23759WAT     H171519   6.537   2.906   0.556
23759WAT     H271520   6.687   2.969   0.570
23760WAT      O71521   9.271   9.677   1.910
23760WAT     H171522   9.196   9.669   1.845
23760WAT     H271523   9.358   9.667   1.862
23761WAT      O71524   6.282   5.887   7.249
23761WAT     H171525   6.223   5.961   7.283
23761WAT     H271526   6.339   5.854   7.324
23762WAT      O71527   6.382   7.798   2.434
23762WAT     H171528   6.404   7.884   2.387
23762WAT     H271529   6.321   7.743   2.376
23763WAT      O71530   2.363   9.758   9.313
23763WAT     H171531   2.432   9.686   9.314
23763WAT     H271532   2.407   9.847   9.301
23764WAT      O71533   7.445   6.033   8.518
23764WAT     H171534   7.414   6.128   8.512
23764WAT     H271535   7.544   6.031   8.529
23765WAT      O71536   6.281   6.472   0.071
23765WAT     H171537   6.250   6.430   0.156
23765WAT     H271538   6.379   6.490   0.076
23766WAT      O71539   4.710   4.734   6.957
23766WAT     H171540   4.795   4.691   6.928
23766WAT     H271541   4.640   4.664   6.974
23767WAT      O71542   6.629   6.041   2.695
23767WAT     H171543   6.590   6.082   2.777
23767WAT     H271544   6.694   6.104   2.654
23768WAT      O71545   7.271   8.059   1.333
23768WAT     H171546   7.361   8.098   1.350
23768WAT     H271547   7.246   8.073   1.237
23769WAT      O71548   4.377   0.351   3.682
23769WAT     H171549   4.473   0.377   3.693
23769WAT     H271550   4.369   0.251   3.679
23770WAT      O71551   8.047   4.591   5.788
23770WAT     H171552   8.069   4.573   5.692
23770WAT     H271553   8.130   4.586   5.843
23771WAT      O71554   9.318   8.533   0.050
23771WAT     H171555   9.254   8.570  -0.018
23771WAT     H271556   9.268   8.514   0.135
23772WAT      O71557   8.221   5.851   8.954
23772WAT     H171558   8.316   5.830   8.974
23772WAT     H271559   8.176   5.885   9.036
23773WAT      O71560   1.468   4.784   2.835
23773WAT     H171561   1.488   4.833   2.920
23773WAT     H271562   1.403   4.711   2.853
23774WAT      O71563   3.741   0.364   4.435
23774WAT     H171564   3.839   0.370   4.456
23774WAT     H271565   3.688   0.404   4.510
23775WAT      O71566   7.703   5.481   3.323
23775WAT     H171567   7.725   5.574   3.296
23775WAT     H271568   7.634   5.482   3.395
23776WAT      O71569   2.051   5.314   9.674
23776WAT     H171570   2.009   5.271   9.595
23776WAT     H271571   1.995   5.297   9.755
23777WAT      O71572   2.121   1.691   8.479
23777WAT     H171573   2.221   1.695   8.482
23777WAT     H271574   2.084   1.784   8.482
23778WAT      O71575   6.887   8.007   2.537
23778WAT     H171576   6.936   7.920   2.543
23778WAT     H271577   6.795   7.996   2.577
23779WAT      O71578   9.161   0.196   0.059
23779WAT     H171579   9.189   0.167  -0.032
23779WAT     H271580   9.232   0.170   0.125
23780WAT      O71581   8.597   8.771   4.096
23780WAT     H171582   8.619   8.812   4.184
23780WAT     H271583   8.499   8.780   4.077
23781WAT      O71584   1.548   5.597   6.442
23781WAT     H171585   1.485   5.645   6.503
23781WAT     H271586   1.556   5.502   6.471
23782WAT      O71587   0.935   2.123   6.104
23782WAT     H171588   0.949   2.170   6.017
23782WAT     H271589   0.906   2.029   6.086
23783WAT      O71590   8.425   5.778   0.551
23783WAT     H171591   8.472   5.716   0.489
23783WAT     H271592   8.333   5.796   0.518
23784WAT      O71593   4.308   7.245   5.689
23784WAT     H171594   4.289   7.263   5.786
23784WAT     H271595   4.267   7.316   5.633
23785WAT      O71596   1.558   1.346   1.299
23785WAT     H171597   1.582   1.278   1.368
23785WAT     H271598   1.641   1.391   1.266
23786WAT      O71599   8.825   5.162   4.405
23786WAT     H171600   8.923   5.143   4.403
23786WAT     H271601   8.781   5.104   4.474
23787WAT      O71602   5.600   8.106   9.606
23787WAT     H171603   5.585   8.016   9.647
23787WAT     H271604   5.665   8.158   9.663
23788WAT      O71605   3.053   4.111   5.680
23788WAT     H171606   3.092   4.035   5.733
23788WAT     H271607   3.126   4.157   5.629
23789WAT      O71608   5.709   4.703   3.191
23789WAT     H171609   5.669   4.636   3.253
23789WAT     H271610   5.738   4.784   3.242
23790WAT      O71611   6.926   8.938   5.689
23790WAT     H171612   6.943   8.934   5.788
23790WAT     H271613   7.009   8.968   5.642
23791WAT      O71614   7.898   7.799   8.809
23791WAT     H171615   7.887   7.703   8.783
23791WAT     H271616   7.951   7.804   8.894
23792WAT      O71617   0.243   5.165   6.864
23792WAT     H171618   0.248   5.150   6.765
23792WAT     H271619   0.334   5.186   6.899
23793WAT      O71620   0.104   4.629   4.254
23793WAT     H171621   0.052   4.688   4.192
23793WAT     H271622   0.151   4.686   4.322
23794WAT      O71623   2.791   2.632   2.881
23794WAT     H171624   2.852   2.658   2.956
23794WAT     H271625   2.737   2.712   2.853
23795WAT      O71626   3.925   7.736   7.551
23795WAT     H171627   4.001   7.708   7.491
23795WAT     H271628   3.840   7.698   7.516
23796WAT      O71629   8.953   5.649   0.242
23796WAT     H171630   8.882   5.700   0.290
23796WAT     H271631   8.973   5.693   0.155
23797WAT      O71632   5.904   5.405   0.683
23797WAT     H171633   5.947   5.350   0.612
23797WAT     H271634   5.910   5.357   0.771
23798WAT      O71635   3.832   2.768   0.868
23798WAT     H171636   3.792   2.848   0.824
23798WAT     H271637   3.783   2.686   0.839
23799WAT      O71638   6.618   7.007   7.808
23799WAT     H171639   6.676   7.042   7.735
23799WAT     H271640   6.609   7.076   7.880
23800WAT      O71641   6.408   8.734   2.432
23800WAT     H171642   6.442   8.827   2.443
23800WAT     H271643   6.429   8.702   2.339
23801WAT      O71644   5.674   0.450   4.907
23801WAT     H171645   5.728   0.369   4.928
23801WAT     H271646   5.715   0.498   4.829
23802WAT      O71647   5.692   3.444   4.536
23802WAT     H171648   5.749   3.366   4.563
23802WAT     H271649   5.648   3.483   4.616
23803WAT      O71650   3.699   0.968   4.697
23803WAT     H171651   3.659   1.040   4.640
23803WAT     H271652   3.785   1.001   4.737
23804WAT      O71653   8.521   7.971   9.715
23804WAT     H171654   8.460   7.891   9.721
23804WAT     H271655   8.583   7.959   9.638
23805WAT      O71656   7.774   7.292   0.499
23805WAT     H171657   7.829   7.216   0.466
23805WAT     H271658   7.779   7.368   0.434
23806WAT      O71659   9.708   7.715   1.197
23806WAT     H171660   9.659   7.654   1.260
23806WAT     H271661   9.683   7.693   1.103
23807WAT      O71662   9.435   0.889   1.617
23807WAT     H171663   9.382   0.863   1.536
23807WAT     H271664   9.427   0.988   1.631
23808WAT      O71665   4.673   2.107   7.177
23808WAT     H171666   4.602   2.041   7.203
23808WAT     H271667   4.757   2.058   7.155
23809WAT      O71668   8.982   7.851   1.351
23809WAT     H171669   8.931   7.937   1.352
23809WAT     H271670   9.076   7.868   1.382
23810WAT      O71671   5.248   2.078   4.826
23810WAT     H171672   5.315   2.050   4.894
23810WAT     H271673   5.269   2.171   4.795
23811WAT      O71674   8.243   5.709   6.122
23811WAT     H171675   8.339   5.709   6.097
23811WAT     H271676   8.187   5.724   6.041
23812WAT      O71677   9.183   1.572   7.215
23812WAT     H171678   9.189   1.567   7.315
23812WAT     H271679   9.101   1.625   7.190
23813WAT      O71680   4.777   3.980   3.979
23813WAT     H171681   4.753   3.937   3.892
23813WAT     H271682   4.876   3.988   3.986
23814WAT      O71683   8.060   3.660   3.152
23814WAT     H171684   7.964   3.669   3.180
23814WAT     H271685   8.071   3.693   3.059
23815WAT      O71686   6.972   1.955   8.260
23815WAT     H171687   6.874   1.976   8.256
23815WAT     H271688   7.016   2.015   8.326
23816WAT      O71689   5.374   5.371   1.807
23816WAT     H171690   5.345   5.430   1.732
23816WAT     H271691   5.375   5.423   1.893
23817WAT      O71692   7.973   1.874   8.776
23817WAT     H171693   7.923   1.915   8.700
23817WAT     H271694   7.941   1.913   8.863
23818WAT      O71695   3.704   7.439   3.353
23818WAT     H171696   3.701   7.506   3.279
23818WAT     H271697   3.798   7.431   3.387
23819WAT      O71698   7.388   1.901   2.216
23819WAT     H171699   7.427   1.985   2.255
23819WAT     H271700   7.412   1.895   2.119
23820WAT      O71701   2.290   6.581   0.933
23820WAT     H171702   2.300   6.671   0.974
23820WAT     H271703   2.372   6.559   0.880
23821WAT      O71704   9.287   6.068   0.780
23821WAT     H171705   9.272   5.969   0.778
23821WAT     H271706   9.200   6.115   0.794
23822WAT      O71707   2.605   2.636   9.864
23822WAT     H171708   2.554   2.624   9.779
23822WAT     H271709   2.688   2.690   9.845
23823WAT      O71710   8.048   4.681   9.783
23823WAT     H171711   8.144   4.708   9.789
23823WAT     H271712   7.998   4.716   9.862
23824WAT      O71713   4.692   5.435   0.140
23824WAT     H171714   4.663   5.476   0.053
23824WAT     H271715   4.792   5.439   0.147
23825WAT      O71716   4.215   5.673   7.398
23825WAT     H171717   4.213   5.608   7.474
23825WAT     H271718   4.196   5.765   7.433
23826WAT      O71719   1.054   1.852   4.816
23826WAT     H171720   1.048   1.932   4.758
23826WAT     H271721   0.969   1.800   4.811
23827WAT      O71722   8.663   6.381   1.866
23827WAT     H171723   8.688   6.292   1.827
23827WAT     H271724   8.630   6.368   1.960
23828WAT      O71725   5.202   8.040   3.476
23828WAT     H171726   5.142   8.109   3.516
23828WAT     H271727   5.271   8.013   3.543
23829WAT      O71728   4.344   1.579   8.400
23829WAT     H171729   4.329   1.662   8.346
23829WAT     H271730   4.441   1.555   8.398
23830WAT      O71731   7.605   0.895   2.509
23830WAT     H171732   7.593   0.927   2.603
23830WAT     H271733   7.566   0.803   2.500
23831WAT      O71734   2.840   3.699   6.008
23831WAT     H171735   2.740   3.705   6.004
23831WAT     H271736   2.881   3.752   5.934
23832WAT      O71737   9.442   0.578   9.879
23832WAT     H171738   9.518   0.513   9.872
23832WAT     H271739   9.459   0.655   9.817
23833WAT      O71740   0.052   4.932   4.537
23833WAT     H171741   0.111   4.855   4.515
23833WAT     H271742   0.107   5.009   4.570
23834WAT      O71743   1.674   1.914   9.609
23834WAT     H171744   1.773   1.930   9.606
23834WAT     H271745   1.634   1.966   9.684
23835WAT      O71746   2.718   9.708   1.932
23835WAT     H171747   2.758   9.767   2.003
23835WAT     H271748   2.791   9.672   1.874
23836WAT      O71749   8.156   0.052   6.432
23836WAT     H171750   8.241   0.003   6.414
23836WAT     H271751   8.146   0.128   6.367
23837WAT      O71752   0.356   0.729   1.926
23837WAT     H171753   0.386   0.690   2.013
23837WAT     H271754   0.267   0.692   1.901
23838WAT      O71755   1.251   0.943   7.176
23838WAT     H171756   1.350   0.933   7.164
23838WAT     H271757   1.227   0.929   7.272
23839WAT      O71758   6.643   2.118   5.817
23839WAT     H171759   6.694   2.098   5.734
23839WAT     H271760   6.588   2.200   5.804
23840WAT      O71761   6.290   7.751   7.932
23840WAT     H171762   6.197   7.713   7.934
23840WAT     H271763   6.286   7.850   7.916
23841WAT      O71764   8.641   0.411   0.487
23841WAT     H171765   8.709   0.419   0.560
23841WAT     H271766   8.656   0.483   0.420
23842WAT      O71767   4.364   3.962   0.929
23842WAT     H171768   4.309   4.019   0.868
23842WAT     H271769   4.334   3.867   0.921
23843WAT      O71770   8.686   6.553   7.382
23843WAT     H171771   8.644   6.642   7.366
23843WAT     H271772   8.621   6.480   7.361
23844WAT      O71773   3.858   9.265   2.245
23844WAT     H171774   3.889   9.192   2.184
23844WAT     H271775   3.927   9.282   2.315
23845WAT      O71776   7.597   0.046   2.156
23845WAT     H171777   7.685  -0.001   2.157
23845WAT     H271778   7.606   0.132   2.105
23846WAT      O71779   1.959   8.059   1.251
23846WAT     H171780   1.883   8.116   1.281
23846WAT     H271781   1.927   7.966   1.234
23847WAT      O71782   8.318   9.059   3.099
23847WAT     H171783   8.324   9.150   3.059
23847WAT     H271784   8.331   8.990   3.027
23848WAT      O71785   6.575   1.274   4.980
23848WAT     H171786   6.656   1.216   4.972
23848WAT     H271787   6.510   1.251   4.909
23849WAT      O71788   4.706   6.254   8.831
23849WAT     H171789   4.611   6.242   8.804
23849WAT     H271790   4.766   6.220   8.758
23850WAT      O71791   2.960   4.281   1.808
23850WAT     H171792   2.983   4.365   1.760
23850WAT     H271793   2.885   4.235   1.761
23851WAT      O71794   0.584   4.716   7.838
23851WAT     H171795   0.677   4.718   7.873
23851WAT     H271796   0.520   4.702   7.913
23852WAT      O71797   8.858   7.534   4.878
23852WAT     H171798   8.776   7.476   4.869
23852WAT     H271799   8.937   7.476   4.899
23853WAT      O71800   5.593   1.909   2.585
23853WAT     H171801   5.666   1.914   2.516
23853WAT     H271802   5.551   1.818   2.580
23854WAT      O71803   4.517   8.931   1.747
23854WAT     H171804   4.448   8.913   1.677
23854WAT     H271805   4.490   8.888   1.833
23855WAT      O71806   8.235   1.721   2.714
23855WAT     H171807   8.211   1.815   2.737
23855WAT     H271808   8.187   1.658   2.776
23856WAT      O71809   6.666   1.895   1.454
23856WAT     H171810   6.591   1.840   1.491
23856WAT     H271811   6.753   1.845   1.465
23857WAT      O71812   6.761   5.334   8.520
23857WAT     H171813   6.771   5.395   8.442
23857WAT     H271814   6.851   5.309   8.555
23858WAT      O71815   5.405   4.591   6.785
23858WAT     H171816   5.358   4.518   6.736
23858WAT     H271817   5.441   4.657   6.720
23859WAT      O71818   1.233   8.085   1.481
23859WAT     H171819   1.159   8.086   1.415
23859WAT     H271820   1.240   8.175   1.525
23860WAT      O71821   9.085   9.832   1.363
23860WAT     H171822   9.000   9.800   1.322
23860WAT     H271823   9.091   9.931   1.354
23861WAT      O71824   8.365   2.580   2.234
23861WAT     H171825   8.422   2.618   2.161
23861WAT     H271826   8.289   2.643   2.253
23862WAT      O71827   8.988   5.129   3.712
23862WAT     H171828   9.026   5.145   3.620
23862WAT     H271829   9.054   5.077   3.766
23863WAT      O71830   6.578   1.880   1.891
23863WAT     H171831   6.581   1.854   1.987
23863WAT     H271832   6.650   1.948   1.873
23864WAT      O71833   0.432   4.625   8.045
23864WAT     H171834   0.422   4.709   8.098
23864WAT     H271835   0.358   4.562   8.069
23865WAT      O71836   1.501   7.180   1.938
23865WAT     H171837   1.485   7.206   1.843
23865WAT     H271838   1.523   7.083   1.943
23866WAT      O71839   8.063   4.041   8.278
23866WAT     H171840   8.095   4.009   8.189
23866WAT     H271841   8.138   4.088   8.325
23867WAT      O71842   6.765   9.816   5.931
23867WAT     H171843   6.839   9.869   5.891
23867WAT     H271844   6.721   9.761   5.859
23868WAT      O71845   1.238   2.868   4.414
23868WAT     H171846   1.213   2.810   4.337
23868WAT     H271847   1.216   2.963   4.392
23869WAT      O71848   2.959   6.496   7.164
23869WAT     H171849   3.016   6.453   7.234
23869WAT     H271850   2.878   6.537   7.207
23870WAT      O71851   4.685   3.553   8.988
23870WAT     H171852   4.691   3.542   8.889
23870WAT     H271853   4.602   3.510   9.022
23871WAT      O71854   0.079   4.974   9.710
23871WAT     H171855   0.132   4.954   9.628
23871WAT     H271856   0.026   4.893   9.736
23872WAT      O71857   7.100   8.467   6.008
23872WAT     H171858   7.176   8.415   6.046
23872WAT     H271859   7.096   8.454   5.909
23873WAT      O71860   2.947   6.819   7.348
23873WAT     H171861   2.919   6.725   7.366
23873WAT     H271862   3.036   6.821   7.303
23874WAT      O71863   9.611   3.471   1.529
23874WAT     H171864   9.619   3.371   1.537
23874WAT     H271865   9.648   3.513   1.612
23875WAT      O71866   2.456   7.553   8.493
23875WAT     H171867   2.450   7.454   8.481
23875WAT     H271868   2.471   7.596   8.404
23876WAT      O71869   7.584   3.313   7.941
23876WAT     H171870   7.672   3.282   7.907
23876WAT     H271871   7.528   3.234   7.966
23877WAT      O71872   2.025   1.964   8.516
23877WAT     H171873   1.981   2.051   8.539
23877WAT     H271874   2.055   1.966   8.421
23878WAT      O71875   0.259   3.268   0.130
23878WAT     H171876   0.253   3.211   0.048
23878WAT     H271877   0.352   3.263   0.167
23879WAT      O71878   2.492   3.534   4.982
23879WAT     H171879   2.489   3.445   5.028
23879WAT     H271880   2.529   3.603   5.045
23880WAT      O71881   2.920   1.267   4.352
23880WAT     H171882   3.008   1.308   4.373
23880WAT     H271883   2.895   1.290   4.257
23881WAT      O71884   3.529   8.035   2.431
23881WAT     H171885   3.503   8.130   2.411
23881WAT     H271886   3.628   8.030   2.446
23882WAT      O71887   4.214   5.766   1.956
23882WAT     H171888   4.230   5.787   1.859
23882WAT     H271889   4.118   5.784   1.979
23883WAT      O71890   5.511   1.224   1.147
23883WAT     H171891   5.487   1.317   1.175
23883WAT     H271892   5.441   1.160   1.179
23884WAT      O71893   1.505   3.293   8.573
23884WAT     H171894   1.509   3.380   8.523
23884WAT     H271895   1.412   3.255   8.567
23885WAT      O71896   3.895   4.822   9.808
23885WAT     H171897   3.962   4.830   9.882
23885WAT     H271898   3.889   4.909   9.759
23886WAT      O71899   1.821   9.719   1.277
23886WAT     H171900   1.907   9.761   1.306
23886WAT     H271901   1.829   9.689   1.182
23887WAT      O71902   5.596   6.078   9.242
23887WAT     H171903   5.596   6.107   9.338
23887WAT     H271904   5.576   6.158   9.184
23888WAT      O71905   7.361   0.399   8.597
23888WAT     H171906   7.348   0.324   8.663
23888WAT     H271907   7.455   0.431   8.602
23889WAT      O71908   3.177   6.137   4.943
23889WAT     H171909   3.225   6.225   4.935
23889WAT     H271910   3.184   6.104   5.037
23890WAT      O71911   4.646   9.283   8.746
23890WAT     H171912   4.638   9.184   8.758
23890WAT     H271913   4.737   9.304   8.710
23891WAT      O71914   1.017   6.947   7.900
23891WAT     H171915   0.932   6.929   7.850
23891WAT     H271916   1.089   6.885   7.868
23892WAT      O71917   9.449   3.811   2.466
23892WAT     H171918   9.482   3.840   2.377
23892WAT     H271919   9.411   3.718   2.459
23893WAT      O71920   6.296   3.507   3.005
23893WAT     H171921   6.390   3.528   2.977
23893WAT     H271922   6.294   3.492   3.104
23894WAT      O71923   6.865   0.604   0.056
23894WAT     H171924   6.886   0.518   0.104
23894WAT     H271925   6.835   0.583  -0.037
23895WAT      O71926   4.788   4.256   8.771
23895WAT     H171927   4.834   4.169   8.790
23895WAT     H271928   4.854   4.321   8.735
23896WAT      O71929   9.613   9.792   3.908
23896WAT     H171930   9.680   9.787   3.835
23896WAT     H271931   9.573   9.701   3.923
23897WAT      O71932   7.274   5.626   2.098
23897WAT     H171933   7.360   5.618   2.148
23897WAT     H271934   7.277   5.706   2.038
23898WAT      O71935   9.171   3.345   0.438
23898WAT     H171936   9.107   3.404   0.390
23898WAT     H271937   9.151   3.346   0.536
23899WAT      O71938   7.508   3.317   1.924
23899WAT     H171939   7.519   3.329   1.825
23899WAT     H271940   7.416   3.344   1.951
23900WAT      O71941   1.706   9.181   6.633
23900WAT     H171942   1.797   9.212   6.661
23900WAT     H271943   1.701   9.178   6.534
23901WAT      O71944   2.704   0.708   3.896
23901WAT     H171945   2.687   0.705   3.995
23901WAT     H271946   2.751   0.624   3.868
23902WAT      O71947   8.224   7.825   4.034
23902WAT     H171948   8.253   7.921   4.040
23902WAT     H271949   8.234   7.794   3.939
23903WAT      O71950   2.691   1.388   1.463
23903WAT     H171951   2.761   1.379   1.391
23903WAT     H271952   2.709   1.321   1.535
23904WAT      O71953   2.740   8.831   2.925
23904WAT     H171954   2.774   8.852   3.016
23904WAT     H271955   2.713   8.916   2.879
23905WAT      O71956   6.054   0.474   9.494
23905WAT     H171957   6.067   0.546   9.562
23905WAT     H271958   5.980   0.413   9.523
23906WAT      O71959   5.733   8.394   3.157
23906WAT     H171960   5.765   8.427   3.068
23906WAT     H271961   5.730   8.471   3.221
23907WAT      O71962   2.555   7.847   6.363
23907WAT     H171963   2.460   7.814   6.365
23907WAT     H271964   2.601   7.812   6.282
23908WAT      O71965   3.108   7.688   5.112
23908WAT     H171966   3.103   7.591   5.088
23908WAT     H271967   3.060   7.742   5.043
23909WAT      O71968   8.088   9.529   1.989
23909WAT     H171969   8.096   9.430   1.998
23909WAT     H271970   8.106   9.556   1.895
23910WAT      O71971   2.271   1.416   2.601
23910WAT     H171972   2.327   1.337   2.574
23910WAT     H271973   2.330   1.496   2.613
23911WAT      O71974   4.279   2.271   8.470
23911WAT     H171975   4.224   2.309   8.395
23911WAT     H271976   4.224   2.269   8.554
23912WAT      O71977   7.425   8.556   1.915
23912WAT     H171978   7.510   8.599   1.886
23912WAT     H271979   7.354   8.572   1.846
23913WAT      O71980   1.693   4.686   0.865
23913WAT     H171981   1.706   4.615   0.934
23913WAT     H271982   1.751   4.666   0.786
23914WAT      O71983   9.660   8.917   0.850
23914WAT     H171984   9.663   8.865   0.935
23914WAT     H271985   9.753   8.935   0.819
23915WAT      O71986   3.392   2.117   6.737
23915WAT     H171987   3.469   2.181   6.729
23915WAT     H271988   3.314   2.152   6.685
23916WAT      O71989   5.279   9.168   2.875
23916WAT     H171990   5.350   9.137   2.938
23916WAT     H271991   5.311   9.160   2.780
23917WAT      O71992   3.871   8.698   8.236
23917WAT     H171993   3.837   8.614   8.277
23917WAT     H271994   3.800   8.738   8.178
23918WAT      O71995   4.467   8.225   9.608
23918WAT     H171996   4.410   8.294   9.653
23918WAT     H271997   4.554   8.216   9.656
23919WAT      O71998   4.383   4.044   4.539
23919WAT     H171999   4.407   3.967   4.480
23919WAT     H272000   4.391   4.129   4.488
23920WAT      O72001   5.991   4.385   6.895
23920WAT     H172002   6.084   4.389   6.859
23920WAT     H272003   5.993   4.347   6.988
23921WAT      O72004   9.386   2.647   5.111
23921WAT     H172005   9.372   2.642   5.210
23921WAT     H272006   9.404   2.742   5.085
23922WAT      O72007   1.074   5.790   8.765
23922WAT     H172008   1.087   5.871   8.707
23922WAT     H272009   1.158   5.772   8.816
23923WAT      O72010   5.971   3.705   5.997
23923WAT     H172011   5.947   3.635   6.064
23923WAT     H272012   5.890   3.726   5.941
23924WAT      O72013   6.612   4.951   2.440
23924WAT     H172014   6.668   4.926   2.518
23924WAT     H272015   6.519   4.916   2.452
23925WAT      O72016   9.794   6.443   4.253
23925WAT     H172017   9.844   6.447   4.339
23925WAT     H272018   9.696   6.439   4.271
23926WAT      O72019   1.311   5.489   4.217
23926WAT     H172020   1.274   5.541   4.294
23926WAT     H272021   1.403   5.457   4.239
23927WAT      O72022   9.046   3.675   6.044
23927WAT     H172023   8.954   3.655   6.078
23927WAT     H272024   9.065   3.620   5.963
23928WAT      O72025   4.217   8.931   5.345
23928WAT     H172026   4.158   8.889   5.277
23928WAT     H272027   4.161   8.972   5.417
23929WAT      O72028   6.479   2.507   2.893
23929WAT     H172029   6.384   2.479   2.906
23929WAT     H272030   6.519   2.533   2.981
23930WAT      O72031   6.152   0.261   0.462
23930WAT     H172032   6.079   0.311   0.416
23930WAT     H272033   6.226   0.324   0.487
23931WAT      O72034   1.548   0.842   5.507
23931WAT     H172035   1.459   0.839   5.553
23931WAT     H272036   1.618   0.873   5.570
23932WAT      O72037   7.178   3.111   2.044
23932WAT     H172038   7.184   3.092   1.946
23932WAT     H272039   7.219   3.200   2.063
23933WAT      O72040   6.683   7.289   9.477
23933WAT     H172041   6.733   7.319   9.396
23933WAT     H272042   6.585   7.290   9.457
23934WAT      O72043   8.739   8.365   5.409
23934WAT     H172044   8.643   8.392   5.415
23934WAT     H272045   8.771   8.334   5.499
23935WAT      O72046   3.638   4.512   9.664
23935WAT     H172047   3.619   4.608   9.685
23935WAT     H272048   3.622   4.456   9.746
23936WAT      O72049   7.470   7.621   1.839
23936WAT     H172050   7.527   7.553   1.794
23936WAT     H272051   7.451   7.592   1.933
23937WAT      O72052   4.347   4.401   8.324
23937WAT     H172053   4.343   4.315   8.375
23937WAT     H272054   4.362   4.381   8.227
23938WAT      O72055   9.477   3.858   7.173
23938WAT     H172056   9.479   3.863   7.272
23938WAT     H272057   9.391   3.896   7.139
23939WAT      O72058   7.779   9.473   9.863
23939WAT     H172059   7.806   9.569   9.856
23939WAT     H272060   7.729   9.446   9.781
23940WAT      O72061   9.621   5.028   6.152
23940WAT     H172062   9.555   5.070   6.214
23940WAT     H272063   9.644   5.094   6.080
23941WAT      O72064   6.707   0.393   4.964
23941WAT     H172065   6.774   0.360   5.032
23941WAT     H272066   6.618   0.352   4.984
23942WAT      O72067   7.029   1.459   2.844
23942WAT     H172068   6.961   1.511   2.895
23942WAT     H272069   6.998   1.446   2.750
23943WAT      O72070   6.642   5.944   7.205
23943WAT     H172071   6.663   5.910   7.114
23943WAT     H272072   6.677   5.880   7.274
23944WAT      O72073   7.180   5.027   3.013
23944WAT     H172074   7.268   4.986   3.036
23944WAT     H272075   7.110   4.992   3.075
23945WAT      O72076   7.850   9.135   4.982
23945WAT     H172077   7.886   9.096   4.897
23945WAT     H272078   7.812   9.063   5.039
23946WAT      O72079   3.002   2.665   4.868
23946WAT     H172080   3.098   2.683   4.887
23946WAT     H272081   2.946   2.741   4.902
23947WAT      O72082   5.990   2.818   6.166
23947WAT     H172083   5.899   2.830   6.126
23947WAT     H272084   6.026   2.729   6.139
23948WAT      O72085   2.840   1.363   1.218
23948WAT     H172086   2.914   1.297   1.207
23948WAT     H272087   2.872   1.454   1.191
23949WAT      O72088   8.523   6.546   6.096
23949WAT     H172089   8.607   6.499   6.071
23949WAT     H272090   8.462   6.482   6.143
23950WAT      O72091   5.933   0.655   3.805
23950WAT     H172092   5.879   0.601   3.741
23950WAT     H272093   5.906   0.633   3.899
23951WAT      O72094   8.145   6.938   2.412
23951WAT     H172095   8.111   6.907   2.500
23951WAT     H272096   8.236   6.978   2.423
23952WAT      O72097   4.014   6.639   6.808
23952WAT     H172098   4.039   6.735   6.791
23952WAT     H272099   4.039   6.584   6.728
23953WAT      O72100   0.950   0.856   9.710
23953WAT     H172101   0.947   0.818   9.802
23953WAT     H272102   1.004   0.796   9.651
23954WAT      O72103   6.657   7.325   0.692
23954WAT     H172104   6.596   7.404   0.698
23954WAT     H272105   6.639   7.276   0.606
23955WAT      O72106   6.195   7.045   3.960
23955WAT     H172107   6.256   7.119   3.932
23955WAT     H272108   6.151   7.006   3.879
23956WAT      O72109   1.110   4.909   6.142
23956WAT     H172110   1.177   4.855   6.090
23956WAT     H272111   1.131   4.902   6.240
23957WAT      O72112   5.678   2.119   9.275
23957WAT     H172113   5.687   2.218   9.273
23957WAT     H272114   5.727   2.082   9.354
23958WAT      O72115   2.364   6.509   9.375
23958WAT     H172116   2.392   6.500   9.471
23958WAT     H272117   2.283   6.453   9.359
23959WAT      O72118   8.189   8.569   2.454
23959WAT     H172119   8.179   8.635   2.528
23959WAT     H272120   8.286   8.550   2.438
23960WAT      O72121   7.064   3.227   4.373
23960WAT     H172122   7.077   3.137   4.415
23960WAT     H272123   7.124   3.234   4.293
23961WAT      O72124   4.792   9.406   3.736
23961WAT     H172125   4.789   9.313   3.697
23961WAT     H272126   4.715   9.419   3.798
23962WAT      O72127   3.854   5.180   3.897
23962WAT     H172128   3.788   5.129   3.953
23962WAT     H272129   3.807   5.254   3.849
23963WAT      O72130   5.657   2.336   8.667
23963WAT     H172131   5.600   2.323   8.585
23963WAT     H272132   5.598   2.348   8.747
23964WAT      O72133   1.574   1.106   7.836
23964WAT     H172134   1.610   1.128   7.927
23964WAT     H272135   1.636   1.142   7.766
23965WAT      O72136   5.850   4.786   4.404
23965WAT     H172137   5.864   4.730   4.485
23965WAT     H272138   5.760   4.767   4.365
23966WAT      O72139   5.746   5.992   1.692
23966WAT     H172140   5.777   6.078   1.653
23966WAT     H272141   5.734   5.924   1.619
23967WAT      O72142   3.110   6.546   8.756
23967WAT     H172143   3.156   6.546   8.667
23967WAT     H272144   3.174   6.513   8.826
23968WAT      O72145   2.582   4.290   3.529
23968WAT     H172146   2.538   4.331   3.449
23968WAT     H272147   2.658   4.348   3.560
23969WAT      O72148   7.748   8.030   2.146
23969WAT     H172149   7.816   7.972   2.192
23969WAT     H272150   7.795   8.106   2.100
23970WAT      O72151   3.945   5.519   6.662
23970WAT     H172152   3.964   5.607   6.617
23970WAT     H272153   3.995   5.446   6.615
23971WAT      O72154   2.554   3.738   5.983
23971WAT     H172155   2.483   3.742   6.053
23971WAT     H272156   2.533   3.666   5.916
23972WAT      O72157   3.724   1.086   8.325
23972WAT     H172158   3.675   1.006   8.358
23972WAT     H272159   3.804   1.103   8.383
23973WAT      O72160   8.760   3.809   3.547
23973WAT     H172161   8.661   3.795   3.555
23973WAT     H272162   8.788   3.794   3.452
23974WAT      O72163   6.987   7.985   8.589
23974WAT     H172164   7.065   7.932   8.557
23974WAT     H272165   7.019   8.072   8.625
23975WAT      O72166   7.029   1.521   8.423
23975WAT     H172167   7.128   1.535   8.417
23975WAT     H272168   6.984   1.571   8.349
23976WAT      O72169   0.398   7.203   5.357
23976WAT     H172170   0.498   7.202   5.361
23976WAT     H272171   0.364   7.284   5.405
23977WAT      O72172   6.265   6.676   1.137
23977WAT     H172173   6.336   6.605   1.142
23977WAT     H272174   6.271   6.735   1.217
23978WAT      O72175   7.351   9.289   3.686
23978WAT     H172176   7.441   9.283   3.643
23978WAT     H272177   7.355   9.353   3.763
23979WAT      O72178   3.080   9.401   1.220
23979WAT     H172179   3.111   9.371   1.130
23979WAT     H272180   3.097   9.328   1.287
23980WAT      O72181   2.978   0.038   7.456
23980WAT     H172182   2.971   0.093   7.539
23980WAT     H272183   3.042   0.082   7.393
23981WAT      O72184   2.190   4.689   9.483
23981WAT     H172185   2.172   4.717   9.389
23981WAT     H272186   2.247   4.758   9.528
23982WAT      O72187   0.987   1.763   1.387
23982WAT     H172188   0.944   1.777   1.477
23982WAT     H272189   1.056   1.691   1.393
23983WAT      O72190   2.998   7.590   3.145
23983WAT     H172191   2.901   7.593   3.169
23983WAT     H272192   3.051   7.638   3.215
23984WAT      O72193   8.785   2.554   3.093
23984WAT     H172194   8.732   2.495   3.154
23984WAT     H272195   8.744   2.646   3.092
23985WAT      O72196   5.514   8.791   2.782
23985WAT     H172197   5.610   8.770   2.766
23985WAT     H272198   5.457   8.733   2.724
23986WAT      O72199   4.138   1.039   4.247
23986WAT     H172200   4.159   1.126   4.202
23986WAT     H272201   4.222   0.988   4.263
23987WAT      O72202   1.007   9.625   4.254
23987WAT     H172203   1.001   9.707   4.311
23987WAT     H272204   1.102   9.594   4.249
23988WAT      O72205   8.748   0.134   2.249
23988WAT     H172206   8.718   0.105   2.158
23988WAT     H272207   8.771   0.231   2.247
23989WAT      O72208   7.077   4.060   0.927
23989WAT     H172209   7.047   4.041   1.020
23989WAT     H272210   7.106   3.974   0.883
23990WAT      O72211   1.259   4.085   0.951
23990WAT     H172212   1.334   4.122   1.006
23990WAT     H272213   1.194   4.158   0.931
23991WAT      O72214   0.510   2.735   3.929
23991WAT     H172215   0.548   2.645   3.905
23991WAT     H272216   0.476   2.733   4.023
23992WAT      O72217   2.867   9.558   2.573
23992WAT     H172218   2.785   9.593   2.527
23992WAT     H272219   2.920   9.635   2.609
23993WAT      O72220   9.662   4.704   7.925
23993WAT     H172221   9.570   4.669   7.907
23993WAT     H272222   9.691   4.675   8.017
23994WAT      O72223   5.919   2.340   8.273
23994WAT     H172224   5.975   2.275   8.221
23994WAT     H272225   5.923   2.430   8.229
23995WAT      O72226   4.991   3.496   1.509
23995WAT     H172227   4.955   3.524   1.598
23995WAT     H272228   4.927   3.522   1.437
23996WAT      O72229   0.376   5.808   9.715
23996WAT     H172230   0.383   5.848   9.623
23996WAT     H272231   0.336   5.717   9.708
23997WAT      O72232   1.638   1.041   4.142
23997WAT     H172233   1.570   1.113   4.127
23997WAT     H272234   1.659   1.034   4.239
23998WAT      O72235   9.348   2.683   4.231
23998WAT     H172236   9.320   2.593   4.197
23998WAT     H272237   9.442   2.702   4.200
23999WAT      O72238   7.080   5.016   6.105
23999WAT     H172239   7.043   4.928   6.136
23999WAT     H272240   7.007   5.069   6.062
24000WAT      O72241   4.330   8.323   3.651
24000WAT     H172242   4.268   8.344   3.727
24000WAT     H272243   4.397   8.255   3.681
24001WAT      O72244   1.834   1.085   4.955
24001WAT     H172245   1.834   1.066   5.054
24001WAT     H272246   1.924   1.119   4.928
24002WAT      O72247   0.314   6.866   6.543
24002WAT     H172248   0.239   6.925   6.510
24002WAT     H272249   0.335   6.798   6.474
24003WAT      O72250   8.435   5.271   4.085
24003WAT     H172251   8.419   5.173   4.085
24003WAT     H272252   8.374   5.315   4.151
24004WAT      O72253   6.808   3.350   6.276
24004WAT     H172254   6.896   3.395   6.293
24004WAT     H272255   6.786   3.356   6.179
24005WAT      O72256   7.739   2.407   8.212
24005WAT     H172257   7.692   2.325   8.180
24005WAT     H272258   7.693   2.443   8.293
24006WAT      O72259   2.753   0.655   0.769
24006WAT     H172260   2.685   0.646   0.696
24006WAT     H272261   2.844   0.632   0.734
24007WAT      O72262   1.035   7.454   7.542
24007WAT     H172263   0.997   7.363   7.529
24007WAT     H272264   0.983   7.503   7.612
24008WAT      O72265   0.612   1.801   0.139
24008WAT     H172266   0.578   1.713   0.171
24008WAT     H272267   0.642   1.855   0.218
24009WAT      O72268   4.779   6.716   1.124
24009WAT     H172269   4.781   6.694   1.222
24009WAT     H272270   4.707   6.662   1.080
24010WAT      O72271   3.346   9.491   9.384
24010WAT     H172272   3.417   9.486   9.314
24010WAT     H272273   3.354   9.413   9.446
24011WAT      O72274   4.996   8.857   2.477
24011WAT     H172275   4.972   8.797   2.401
24011WAT     H272276   5.048   8.804   2.545
24012WAT      O72277   0.784   6.082   5.698
24012WAT     H172278   0.780   5.993   5.653
24012WAT     H272279   0.879   6.113   5.702
24013WAT      O72280   9.407   1.937   9.459
24013WAT     H172281   9.423   2.010   9.525
24013WAT     H272282   9.418   1.973   9.366
24014WAT      O72283   5.554   8.746   7.264
24014WAT     H172284   5.518   8.803   7.338
24014WAT     H272285   5.654   8.745   7.269
24015WAT      O72286   5.068   1.926   5.941
24015WAT     H172287   5.074   2.025   5.942
24015WAT     H272288   5.161   1.887   5.944
24016WAT      O72289   7.152   8.344   7.228
24016WAT     H172290   7.230   8.284   7.207
24016WAT     H272291   7.124   8.391   7.144
24017WAT      O72292   6.359   6.500   1.762
24017WAT     H172293   6.295   6.502   1.684
24017WAT     H272294   6.307   6.505   1.847
24018WAT      O72295   5.063   7.292   2.943
24018WAT     H172296   5.056   7.365   3.011
24018WAT     H272297   5.087   7.206   2.989
24019WAT      O72298   1.976   2.193   3.528
24019WAT     H172299   1.878   2.214   3.535
24019WAT     H272300   2.025   2.275   3.499
24020WAT      O72301   9.736   3.552   2.868
24020WAT     H172302   9.732   3.610   2.949
24020WAT     H272303   9.669   3.585   2.801
24021WAT      O72304   8.276   4.759   1.659
24021WAT     H172305   8.275   4.746   1.758
24021WAT     H272306   8.255   4.855   1.638
24022WAT      O72307   6.760   5.946   6.937
24022WAT     H172308   6.848   5.947   6.890
24022WAT     H272309   6.689   5.912   6.874
24023WAT      O72310   3.383   1.161   0.712
24023WAT     H172311   3.385   1.145   0.613
24023WAT     H272312   3.396   1.075   0.761
24024WAT      O72313   3.547   4.349   2.381
24024WAT     H172314   3.540   4.406   2.298
24024WAT     H272315   3.464   4.293   2.389
24025WAT      O72316   4.398   6.623   4.236
24025WAT     H172317   4.333   6.628   4.161
24025WAT     H272318   4.351   6.639   4.323
24026WAT      O72319   5.925   4.586   3.064
24026WAT     H172320   5.832   4.619   3.083
24026WAT     H272321   5.946   4.510   3.125
24027WAT      O72322   2.833   4.290   4.751
24027WAT     H172323   2.844   4.365   4.816
24027WAT     H272324   2.799   4.326   4.664
24028WAT      O72325   7.345   7.361   6.293
24028WAT     H172326   7.345   7.294   6.220
24028WAT     H272327   7.326   7.452   6.256
24029WAT      O72328   8.292   7.094   9.500
24029WAT     H172329   8.194   7.107   9.484
24029WAT     H272330   8.319   7.145   9.581
24030WAT      O72331   0.003   9.820   6.125
24030WAT     H172332   0.097   9.796   6.103
24030WAT     H272333  -0.003   9.853   6.219
24031WAT      O72334   6.823   9.295   7.527
24031WAT     H172335   6.816   9.201   7.561
24031WAT     H272336   6.918   9.315   7.502
24032WAT      O72337   0.038   2.693   9.192
24032WAT     H172338   0.107   2.713   9.261
24032WAT     H272339   0.074   2.715   9.101
24033WAT      O72340   2.496   5.911   7.620
24033WAT     H172341   2.593   5.936   7.613
24033WAT     H272342   2.468   5.866   7.535
24034WAT      O72343   5.093   4.969   8.631
24034WAT     H172344   5.123   4.874   8.621
24034WAT     H272345   5.082   4.991   8.728
24035WAT      O72346   2.497   4.535   8.312
24035WAT     H172347   2.543   4.623   8.305
24035WAT     H272348   2.560   4.468   8.352
24036WAT      O72349   2.463   5.468   8.294
24036WAT     H172350   2.489   5.375   8.320
24036WAT     H272351   2.494   5.487   8.201
24037WAT      O72352   7.319   4.111   8.486
24037WAT     H172353   7.402   4.146   8.531
24037WAT     H272354   7.339   4.024   8.441
24038WAT      O72355   5.626   2.049   3.773
24038WAT     H172356   5.724   2.065   3.757
24038WAT     H272357   5.581   2.030   3.686
24039WAT      O72358   2.613   2.687   9.455
24039WAT     H172359   2.528   2.671   9.404
24039WAT     H272360   2.604   2.770   9.510
24040WAT      O72361   2.443   4.512   8.809
24040WAT     H172362   2.370   4.562   8.856
24040WAT     H272363   2.443   4.537   8.712
24041WAT      O72364   9.517   8.911   0.624
24041WAT     H172365   9.569   8.885   0.706
24041WAT     H272366   9.577   8.962   0.562
24042WAT      O72367   8.896   7.887   1.647
24042WAT     H172368   8.898   7.919   1.553
24042WAT     H272369   8.960   7.940   1.702
24043WAT      O72370   6.455   4.421   2.823
24043WAT     H172371   6.502   4.467   2.900
24043WAT     H272372   6.521   4.404   2.750
24044WAT      O72373   0.916   5.312   9.530
24044WAT     H172374   0.875   5.314   9.621
24044WAT     H272375   0.975   5.392   9.518
24045WAT      O72376   9.045   1.588   8.467
24045WAT     H172377   9.072   1.559   8.559
24045WAT     H272378   8.982   1.520   8.428
24046WAT      O72379   5.544   4.817   8.755
24046WAT     H172380   5.593   4.733   8.732
24046WAT     H272381   5.495   4.804   8.842
24047WAT      O72382   9.047   7.965   6.616
24047WAT     H172383   9.129   7.912   6.636
24047WAT     H272384   9.020   7.950   6.521
24048WAT      O72385   9.569   9.293   1.423
24048WAT     H172386   9.552   9.264   1.329
24048WAT     H272387   9.662   9.330   1.429
24049WAT      O72388   4.756   1.598   1.423
24049WAT     H172389   4.835   1.653   1.397
24049WAT     H272390   4.704   1.573   1.341
24050WAT      O72391   9.635   8.474   1.811
24050WAT     H172392   9.721   8.482   1.862
24050WAT     H272393   9.654   8.454   1.715
24051WAT      O72394   6.894   7.307   4.193
24051WAT     H172395   6.884   7.389   4.249
24051WAT     H272396   6.813   7.249   4.203
24052WAT      O72397   6.034   5.573   1.420
24052WAT     H172398   5.988   5.590   1.507
24052WAT     H272399   6.127   5.609   1.423
24053WAT      O72400   3.308   2.431   8.339
24053WAT     H172401   3.367   2.488   8.395
24053WAT     H272402   3.212   2.451   8.359
24054WAT      O72403   4.990   4.638   0.081
24054WAT     H172404   5.030   4.688   0.004
24054WAT     H272405   5.018   4.681   0.167
24055WAT      O72406   7.019   2.088   5.569
24055WAT     H172407   6.954   2.022   5.530
24055WAT     H272408   6.986   2.117   5.659
24056WAT      O72409   2.007   9.364   4.951
24056WAT     H172410   2.084   9.316   4.994
24056WAT     H272411   1.951   9.298   4.900
24057WAT      O72412   4.086   8.577   5.309
24057WAT     H172413   4.120   8.579   5.403
24057WAT     H272414   4.140   8.512   5.255
24058WAT      O72415   0.153   0.437   4.659
24058WAT     H172416   0.088   0.418   4.732
24058WAT     H272417   0.241   0.396   4.682
24059WAT      O72418   8.240   9.313   5.026
24059WAT     H172419   8.184   9.394   5.010
24059WAT     H272420   8.210   9.267   5.110
24060WAT      O72421   4.865   4.645   3.683
24060WAT     H172422   4.956   4.612   3.658
24060WAT     H272423   4.832   4.709   3.614
24061WAT      O72424   8.161   9.084   6.175
24061WAT     H172425   8.159   8.985   6.187
24061WAT     H272426   8.232   9.109   6.110
24062WAT      O72427   7.698   0.421   4.870
24062WAT     H172428   7.704   0.351   4.799
24062WAT     H272429   7.661   0.505   4.832
24063WAT      O72430   3.043   4.934   9.556
24063WAT     H172431   3.056   4.855   9.495
24063WAT     H272432   2.952   4.928   9.599
24064WAT      O72433   3.459   4.737   2.084
24064WAT     H172434   3.493   4.734   2.178
24064WAT     H272435   3.363   4.706   2.083
24065WAT      O72436   6.587   0.428   2.441
24065WAT     H172437   6.665   0.480   2.476
24065WAT     H272438   6.545   0.478   2.366
24066WAT      O72439   7.922   4.825   0.134
24066WAT     H172440   7.830   4.848   0.103
24066WAT     H272441   7.987   4.892   0.097
24067WAT      O72442   2.642   1.817   4.166
24067WAT     H172443   2.633   1.883   4.241
24067WAT     H272444   2.736   1.783   4.163
24068WAT      O72445   9.725   9.042   4.652
24068WAT     H172446   9.765   9.069   4.565
24068WAT     H272447   9.720   9.122   4.713
24069WAT      O72448   3.502   3.172   9.864
24069WAT     H172449   3.459   3.132   9.783
24069WAT     H272450   3.602   3.174   9.851
24070WAT      O72451   3.411   6.844   8.911
24070WAT     H172452   3.397   6.822   8.815
24070WAT     H272453   3.417   6.943   8.923
24071WAT      O72454   1.630   6.432   0.937
24071WAT     H172455   1.641   6.388   1.026
24071WAT     H272456   1.552   6.495   0.941
24072WAT      O72457   7.062   5.281   3.007
24072WAT     H172458   7.125   5.204   2.994
24072WAT     H272459   7.108   5.352   3.060
24073WAT      O72460   4.207   7.296   6.584
24073WAT     H172461   4.249   7.299   6.493
24073WAT     H272462   4.108   7.310   6.576
24074WAT      O72463   0.338   3.203   2.867
24074WAT     H172464   0.387   3.151   2.937
24074WAT     H272465   0.404   3.240   2.801
24075WAT      O72466   7.765   4.081   1.009
24075WAT     H172467   7.807   4.152   0.952
24075WAT     H272468   7.835   4.019   1.043
24076WAT      O72469   5.415   5.479   7.585
24076WAT     H172470   5.457   5.441   7.503
24076WAT     H272471   5.418   5.579   7.580
24077WAT      O72472   5.910   1.441   7.096
24077WAT     H172473   5.897   1.539   7.111
24077WAT     H272474   5.844   1.409   7.027
24078WAT      O72475   4.320   2.154   7.965
24078WAT     H172476   4.307   2.109   7.877
24078WAT     H272477   4.386   2.103   8.019
24079WAT      O72478   6.422   6.539   8.505
24079WAT     H172479   6.343   6.483   8.480
24079WAT     H272480   6.437   6.534   8.604
24080WAT      O72481   5.425   4.970   7.016
24080WAT     H172482   5.390   5.032   7.086
24080WAT     H272483   5.467   4.891   7.060
24081WAT      O72484   4.506   6.550   9.345
24081WAT     H172485   4.432   6.568   9.280
24081WAT     H272486   4.467   6.543   9.438
24082WAT      O72487   3.113   2.203   3.312
24082WAT     H172488   3.027   2.163   3.281
24082WAT     H272489   3.170   2.225   3.233
24083WAT      O72490   7.802   3.553   9.424
24083WAT     H172491   7.854   3.520   9.503
24083WAT     H272492   7.848   3.633   9.385
24084WAT      O72493   8.078   3.793   1.475
24084WAT     H172494   8.024   3.712   1.497
24084WAT     H272495   8.074   3.858   1.551
24085WAT      O72496   9.520   3.014   6.197
24085WAT     H172497   9.477   2.928   6.168
24085WAT     H272498   9.489   3.088   6.137
24086WAT      O72499   5.252   0.955   3.675
24086WAT     H172500   5.266   1.044   3.631
24086WAT     H272501   5.246   0.967   3.774
24087WAT      O72502   2.629   5.499   3.624
24087WAT     H172503   2.589   5.455   3.543
24087WAT     H272504   2.674   5.584   3.597
24088WAT      O72505   8.931   5.834   2.869
24088WAT     H172506   9.029   5.849   2.856
24088WAT     H272507   8.884   5.847   2.783
24089WAT      O72508   2.371   3.566   9.782
24089WAT     H172509   2.412   3.537   9.868
24089WAT     H272510   2.316   3.648   9.797
24090WAT      O72511   5.207   3.671   0.019
24090WAT     H172512   5.242   3.582   0.048
24090WAT     H272513   5.109   3.676   0.037
24091WAT      O72514   9.801   3.209   0.730
24091WAT     H172515   9.863   3.130   0.731
24091WAT     H272516   9.717   3.185   0.778
24092WAT      O72517   3.820   8.141   1.610
24092WAT     H172518   3.753   8.069   1.593
24092WAT     H272519   3.806   8.216   1.545
24093WAT      O72520   8.366   1.911   0.544
24093WAT     H172521   8.358   1.955   0.634
24093WAT     H272522   8.449   1.945   0.498
24094WAT      O72523   1.490   0.079   2.176
24094WAT     H172524   1.425   0.123   2.237
24094WAT     H272525   1.450  -0.007   2.142
24095WAT      O72526   4.092   6.836   3.438
24095WAT     H172527   4.172   6.778   3.423
24095WAT     H272528   4.066   6.881   3.353
24096WAT      O72529   0.618   2.475   6.097
24096WAT     H172530   0.615   2.574   6.109
24096WAT     H272531   0.699   2.438   6.143
24097WAT      O72532   2.581   8.666   9.196
24097WAT     H172533   2.523   8.643   9.118
24097WAT     H272534   2.664   8.611   9.193
24098WAT      O72535   5.004   9.471   5.089
24098WAT     H172536   4.998   9.562   5.047
24098WAT     H272537   4.929   9.413   5.055
24099WAT      O72538   1.263   4.508   1.180
24099WAT     H172539   1.273   4.579   1.110
24099WAT     H272540   1.169   4.506   1.212
24100WAT      O72541   2.186   4.642   0.753
24100WAT     H172542   2.284   4.657   0.759
24100WAT     H272543   2.138   4.709   0.808
24101WAT      O72544   7.995   7.066   8.552
24101WAT     H172545   7.954   6.997   8.493
24101WAT     H272546   8.085   7.035   8.583
24102WAT      O72547   9.615   5.141   2.998
24102WAT     H172548   9.712   5.153   2.975
24102WAT     H272549   9.577   5.067   2.943
24103WAT      O72550   9.548   9.510   1.839
24103WAT     H172551   9.601   9.557   1.910
24103WAT     H272552   9.565   9.412   1.844
24104WAT      O72553   1.255   0.588   9.875
24104WAT     H172554   1.160   0.587   9.905
24104WAT     H272555   1.260   0.551   9.782
24105WAT      O72556   4.827   1.473   0.840
24105WAT     H172557   4.750   1.408   0.843
24105WAT     H272558   4.903   1.432   0.791
24106WAT      O72559   9.198   9.700   7.279
24106WAT     H172560   9.233   9.647   7.356
24106WAT     H272561   9.126   9.648   7.232
24107WAT      O72562   5.804   5.655   3.057
24107WAT     H172563   5.835   5.620   3.145
24107WAT     H272564   5.879   5.652   2.991
24108WAT      O72565   0.122   6.791   8.840
24108WAT     H172566   0.183   6.804   8.918
24108WAT     H272567   0.148   6.852   8.766
24109WAT      O72568   9.596   4.254   4.898
24109WAT     H172569   9.663   4.192   4.940
24109WAT     H272570   9.631   4.286   4.810
24110WAT      O72571   4.579   8.297   8.059
24110WAT     H172572   4.601   8.371   8.122
24110WAT     H272573   4.482   8.303   8.034
24111WAT      O72574   3.879   2.327   2.761
24111WAT     H172575   3.795   2.375   2.736
24111WAT     H272576   3.952   2.354   2.699
24112WAT      O72577   3.410   9.275   8.627
24112WAT     H172578   3.505   9.304   8.630
24112WAT     H272579   3.368   9.285   8.717
24113WAT      O72580   5.465   5.908   8.455
24113WAT     H172581   5.556   5.941   8.430
24113WAT     H272582   5.396   5.965   8.411
24114WAT      O72583   4.770   1.912   7.948
24114WAT     H172584   4.825   1.847   8.000
24114WAT     H272585   4.680   1.873   7.930
24115WAT      O72586   2.524   1.085   4.960
24115WAT     H172587   2.603   1.126   5.006
24115WAT     H272588   2.554   1.041   4.875
24116WAT      O72589   6.498   9.150   3.501
24116WAT     H172590   6.477   9.161   3.598
24116WAT     H272591   6.451   9.220   3.448
24117WAT      O72592   0.639   9.150   3.843
24117WAT     H172593   0.663   9.143   3.940
24117WAT     H272594   0.721   9.171   3.790
24118WAT      O72595   1.468   0.804   4.204
24118WAT     H172596   1.439   0.739   4.134
24118WAT     H272597   1.543   0.860   4.168
24119WAT      O72598   9.637   1.790   2.921
24119WAT     H172599   9.690   1.706   2.909
24119WAT     H272600   9.547   1.780   2.879
24120WAT      O72601   5.447   6.607   7.215
24120WAT     H172602   5.526   6.586   7.273
24120WAT     H272603   5.367   6.622   7.273
24121WAT      O72604   8.173   8.475   2.936
24121WAT     H172605   8.221   8.446   3.019
24121WAT     H272606   8.214   8.560   2.902
24122WAT      O72607   1.827   3.845   7.859
24122WAT     H172608   1.851   3.926   7.912
24122WAT     H272609   1.808   3.769   7.921
24123WAT      O72610   7.170   2.639   6.058
24123WAT     H172611   7.133   2.732   6.055
24123WAT     H272612   7.266   2.642   6.087
24124WAT      O72613   1.219   2.164   4.948
24124WAT     H172614   1.246   2.184   4.854
24124WAT     H272615   1.234   2.067   4.967
24125WAT      O72616   4.774   7.197   5.105
24125WAT     H172617   4.735   7.281   5.143
24125WAT     H272618   4.719   7.167   5.027
24126WAT      O72619   2.145   1.460   4.939
24126WAT     H172620   2.095   1.456   5.026
24126WAT     H272621   2.243   1.468   4.958
24127WAT      O72622   1.825   5.055   0.471
24127WAT     H172623   1.798   5.075   0.565
24127WAT     H272624   1.771   5.111   0.408
24128WAT      O72625   1.191   0.614   2.846
24128WAT     H172626   1.262   0.631   2.915
24128WAT     H272627   1.150   0.524   2.863
24129WAT      O72628   0.914   3.408   6.632
24129WAT     H172629   0.866   3.360   6.705
24129WAT     H272630   0.928   3.503   6.658
24130WAT      O72631   1.185   1.330   3.274
24130WAT     H172632   1.205   1.235   3.249
24130WAT     H272633   1.157   1.381   3.193
24131WAT      O72634   2.610   0.136   8.633
24131WAT     H172635   2.675   0.183   8.573
24131WAT     H272636   2.633   0.038   8.635
24132WAT      O72637   7.327   5.881   0.935
24132WAT     H172638   7.332   5.800   0.993
24132WAT     H272639   7.346   5.963   0.989
24133WAT      O72640   5.985   9.460   2.692
24133WAT     H172641   5.965   9.366   2.718
24133WAT     H272642   5.995   9.466   2.592
24134WAT      O72643   0.804   4.059   8.171
24134WAT     H172644   0.731   3.998   8.142
24134WAT     H272645   0.768   4.152   8.180
24135WAT      O72646   6.291   8.196   6.794
24135WAT     H172647   6.199   8.224   6.765
24135WAT     H272648   6.308   8.102   6.764
24136WAT      O72649   1.410   6.955   1.667
24136WAT     H172650   1.466   6.902   1.731
24136WAT     H272651   1.314   6.945   1.691
24137WAT      O72652   9.863   1.567   6.295
24137WAT     H172653   9.891   1.663   6.286
24137WAT     H272654   9.908   1.526   6.374
24138WAT      O72655   0.223   1.122   9.457
24138WAT     H172656   0.273   1.119   9.371
24138WAT     H272657   0.138   1.069   9.448
24139WAT      O72658   9.210   8.824   7.271
24139WAT     H172659   9.295   8.877   7.268
24139WAT     H272660   9.185   8.796   7.179
24140WAT      O72661   8.822   5.535   8.493
24140WAT     H172662   8.794   5.491   8.408
24140WAT     H272663   8.853   5.628   8.474
24141WAT      O72664   0.983   9.809   3.883
24141WAT     H172665   0.933   9.848   3.806
24141WAT     H272666   0.958   9.857   3.967
24142WAT      O72667   1.842   2.866   8.716
24142WAT     H172668   1.866   2.804   8.791
24142WAT     H272669   1.765   2.828   8.665
24143WAT      O72670   0.057   7.809   9.829
24143WAT     H172671   0.116   7.729   9.834
24143WAT     H272672   0.075   7.870   9.906
24144WAT      O72673   9.276   9.072   0.210
24144WAT     H172674   9.308   9.024   0.292
24144WAT     H272675   9.221   9.010   0.155
24145WAT      O72676   6.823   8.465   1.749
24145WAT     H172677   6.870   8.538   1.700
24145WAT     H272678   6.889   8.411   1.801
24146WAT      O72679   1.636   5.049   5.464
24146WAT     H172680   1.672   4.957   5.447
24146WAT     H272681   1.628   5.098   5.378
24147WAT      O72682   0.069   5.786   5.968
24147WAT     H172683   0.017   5.823   5.891
24147WAT     H272684   0.121   5.706   5.938
24148WAT      O72685   4.892   3.419   7.034
24148WAT     H172686   4.981   3.430   6.990
24148WAT     H272687   4.897   3.447   7.129
24149WAT      O72688   5.434   8.021   6.253
24149WAT     H172689   5.502   7.989   6.188
24149WAT     H272690   5.474   8.095   6.308
24150WAT      O72691   7.546   9.784   8.141
24150WAT     H172692   7.637   9.790   8.100
24150WAT     H272693   7.507   9.875   8.148
24151WAT      O72694   5.706   9.569   2.819
24151WAT     H172695   5.692   9.507   2.896
24151WAT     H272696   5.787   9.541   2.768
24152WAT      O72697   4.867   3.192   6.875
24152WAT     H172698   4.856   3.272   6.933
24152WAT     H272699   4.951   3.144   6.900
24153WAT      O72700   4.454   5.937   5.011
24153WAT     H172701   4.416   5.887   5.089
24153WAT     H272702   4.525   5.881   4.967
24154WAT      O72703   4.031   5.474   3.919
24154WAT     H172704   4.003   5.412   3.992
24154WAT     H272705   3.982   5.451   3.834
24155WAT      O72706   1.418   8.674   8.524
24155WAT     H172707   1.437   8.687   8.622
24155WAT     H272708   1.327   8.634   8.513
24156WAT      O72709   9.328   5.507   7.771
24156WAT     H172710   9.315   5.409   7.787
24156WAT     H272711   9.279   5.559   7.840
24157WAT      O72712   7.748   7.867   3.989
24157WAT     H172713   7.794   7.956   3.989
24157WAT     H272714   7.817   7.794   3.988
24158WAT      O72715   8.618   8.483   3.044
24158WAT     H172716   8.554   8.483   2.967
24158WAT     H272717   8.712   8.473   3.010
24159WAT      O72718   9.104   6.527   8.481
24159WAT     H172719   9.065   6.466   8.550
24159WAT     H272720   9.117   6.477   8.396
24160WAT      O72721   9.794   9.646   7.244
24160WAT     H172722   9.820   9.701   7.323
24160WAT     H272723   9.711   9.595   7.264
24161WAT      O72724   1.914   4.560   6.405
24161WAT     H172725   1.935   4.605   6.492
24161WAT     H272726   1.923   4.626   6.330
24162WAT      O72727   0.831   5.471   7.942
24162WAT     H172728   0.747   5.429   7.907
24162WAT     H272729   0.845   5.440   8.037
24163WAT      O72730   0.012   1.980   8.158
24163WAT     H172731   0.094   1.960   8.212
24163WAT     H272732   0.019   2.072   8.120
24164WAT      O72733   8.414   2.120   4.015
24164WAT     H172734   8.337   2.184   4.007
24164WAT     H272735   8.386   2.031   3.981
24165WAT      O72736   1.458   4.335   5.687
24165WAT     H172737   1.405   4.252   5.704
24165WAT     H272738   1.428   4.378   5.602
24166WAT      O72739   3.247   3.123   0.823
24166WAT     H172740   3.296   3.176   0.893
24166WAT     H272741   3.167   3.175   0.792
24167WAT      O72742   0.728   2.994   1.687
24167WAT     H172743   0.766   2.949   1.768
24167WAT     H272744   0.692   3.084   1.713
24168WAT      O72745   1.840   4.111   4.049
24168WAT     H172746   1.853   4.012   4.040
24168WAT     H272747   1.866   4.140   4.141
24169WAT      O72748   7.768   7.708   4.565
24169WAT     H172749   7.702   7.766   4.612
24169WAT     H272750   7.756   7.719   4.466
24170WAT      O72751   9.051   8.846   0.095
24170WAT     H172752   9.104   8.794   0.163
24170WAT     H272753   8.974   8.790   0.063
24171WAT      O72754   9.354   8.070   4.717
24171WAT     H172755   9.410   7.995   4.751
24171WAT     H272756   9.376   8.087   4.620
24172WAT      O72757   8.378   0.782   1.504
24172WAT     H172758   8.319   0.791   1.584
24172WAT     H272759   8.427   0.868   1.489
24173WAT      O72760   0.814   1.984   0.735
24173WAT     H172761   0.836   2.066   0.681
24173WAT     H272762   0.718   1.960   0.721
24174WAT      O72763   4.830   1.088   0.476
24174WAT     H172764   4.813   0.992   0.450
24174WAT     H272765   4.857   1.140   0.395
24175WAT      O72766   6.383   1.187   4.827
24175WAT     H172767   6.384   1.196   4.727
24175WAT     H272768   6.304   1.235   4.864
24176WAT      O72769   0.380   7.120   6.356
24176WAT     H172770   0.436   7.100   6.436
24176WAT     H272771   0.288   7.082   6.369
24177WAT      O72772   1.205   2.979   4.728
24177WAT     H172773   1.145   3.054   4.697
24177WAT     H272774   1.163   2.934   4.807
24178WAT      O72775   0.505   3.022   3.548
24178WAT     H172776   0.444   3.060   3.618
24178WAT     H272777   0.556   3.096   3.505
24179WAT      O72778   6.742   3.888   7.250
24179WAT     H172779   6.647   3.914   7.237
24179WAT     H272780   6.767   3.817   7.183
24180WAT      O72781   7.519   8.373   8.598
24180WAT     H172782   7.459   8.425   8.658
24180WAT     H272783   7.535   8.425   8.514
24181WAT      O72784   2.037   6.957   6.989
24181WAT     H172785   2.076   6.867   7.008
24181WAT     H272786   1.966   6.978   7.057
24182WAT      O72787   8.995   2.615   5.861
24182WAT     H172788   8.908   2.602   5.814
24182WAT     H272789   8.999   2.706   5.901
24183WAT      O72790   3.953   7.098   2.072
24183WAT     H172791   3.971   7.041   2.153
24183WAT     H272792   4.007   7.066   1.995
24184WAT      O72793   7.763   2.252   4.977
24184WAT     H172794   7.799   2.342   5.001
24184WAT     H272795   7.798   2.225   4.887
24185WAT      O72796   9.647   6.896   2.521
24185WAT     H172797   9.737   6.938   2.505
24185WAT     H272798   9.644   6.806   2.476
24186WAT      O72799   4.017   7.376   4.529
24186WAT     H172800   4.087   7.339   4.468
24186WAT     H272801   3.958   7.301   4.560
24187WAT      O72802   9.045   7.099   4.180
24187WAT     H172803   9.075   7.178   4.234
24187WAT     H272804   8.978   7.046   4.233
24188WAT      O72805   6.566   5.617   1.740
24188WAT     H172806   6.521   5.667   1.665
24188WAT     H272807   6.661   5.647   1.748
24189WAT      O72808   8.556   5.291   7.281
24189WAT     H172809   8.491   5.269   7.208
24189WAT     H272810   8.647   5.304   7.242
24190WAT      O72811   2.148   6.954   2.503
24190WAT     H172812   2.221   7.021   2.521
24190WAT     H272813   2.160   6.875   2.562
24191WAT      O72814   4.415   8.935   2.285
24191WAT     H172815   4.451   8.857   2.336
24191WAT     H272816   4.485   9.006   2.279
24192WAT      O72817   6.896   2.719   1.825
24192WAT     H172818   6.899   2.786   1.750
24192WAT     H272819   6.892   2.767   1.913
24193WAT      O72820   1.257   8.499   9.213
24193WAT     H172821   1.231   8.403   9.224
24193WAT     H272822   1.336   8.519   9.271
24194WAT      O72823   5.524   4.663   9.313
24194WAT     H172824   5.560   4.750   9.347
24194WAT     H272825   5.496   4.605   9.389
24195WAT      O72826   9.832   7.090   6.585
24195WAT     H172827   9.821   6.995   6.614
24195WAT     H272828   9.753   7.118   6.531
24196WAT      O72829   3.509   5.508   7.755
24196WAT     H172830   3.472   5.512   7.848
24196WAT     H272831   3.499   5.597   7.711
24197WAT      O72832   5.544   7.002   8.775
24197WAT     H172833   5.491   7.086   8.758
24197WAT     H272834   5.499   6.949   8.847
24198WAT      O72835   0.076   8.859   7.109
24198WAT     H172836   0.103   8.814   7.195
24198WAT     H272837   0.047   8.790   7.043
24199WAT      O72838   8.173   3.170   0.590
24199WAT     H172839   8.095   3.218   0.551
24199WAT     H272840   8.202   3.096   0.529
24200WAT      O72841   7.732   8.765   1.526
24200WAT     H172842   7.678   8.848   1.515
24200WAT     H272843   7.786   8.749   1.443
24201WAT      O72844   8.684   8.100   5.983
24201WAT     H172845   8.597   8.107   5.934
24201WAT     H272846   8.699   8.005   6.011
24202WAT      O72847   8.174   5.448   6.055
24202WAT     H172848   8.085   5.449   6.010
24202WAT     H272849   8.189   5.535   6.102
24203WAT      O72850   6.949   0.334   0.135
24203WAT     H172851   6.928   0.336   0.232
24203WAT     H272852   6.994   0.248   0.112
24204WAT      O72853   4.202   5.309   6.847
24204WAT     H172854   4.275   5.264   6.796
24204WAT     H272855   4.115   5.265   6.824
24205WAT      O72856   4.663   3.578   7.006
24205WAT     H172857   4.666   3.606   6.910
24205WAT     H272858   4.745   3.526   7.028
24206WAT      O72859   3.768   8.399   7.807
24206WAT     H172860   3.813   8.460   7.742
24206WAT     H272861   3.823   8.316   7.819
24207WAT      O72862   7.272   1.996   5.621
24207WAT     H172863   7.326   2.056   5.681
24207WAT     H272864   7.188   2.043   5.595
24208WAT      O72865   0.343   8.979   5.173
24208WAT     H172866   0.387   9.067   5.153
24208WAT     H272867   0.254   8.976   5.127
24209WAT      O72868   0.793   5.714   4.879
24209WAT     H172869   0.868   5.657   4.912
24209WAT     H272870   0.769   5.782   4.949
24210WAT      O72871   9.796   4.133   8.761
24210WAT     H172872   9.755   4.194   8.829
24210WAT     H272873   9.864   4.075   8.805
24211WAT      O72874   8.859   1.592   2.337
24211WAT     H172875   8.837   1.521   2.405
24211WAT     H272876   8.775   1.623   2.293
24212WAT      O72877   8.276   3.822   2.812
24212WAT     H172878   8.294   3.863   2.901
24212WAT     H272879   8.344   3.752   2.792
24213WAT      O72880   0.834   0.559   0.774
24213WAT     H172881   0.885   0.634   0.816
24213WAT     H272882   0.834   0.480   0.835
24214WAT      O72883   4.495   5.569   2.729
24214WAT     H172884   4.418   5.518   2.769
24214WAT     H272885   4.485   5.666   2.748
24215WAT      O72886   6.604   0.516   5.504
24215WAT     H172887   6.605   0.577   5.583
24215WAT     H272888   6.621   0.422   5.534
24216WAT      O72889   6.904   7.751   2.349
24216WAT     H172890   6.891   7.659   2.314
24216WAT     H272891   6.824   7.807   2.325
24217WAT      O72892   4.622   3.826   9.481
24217WAT     H172893   4.690   3.893   9.509
24217WAT     H272894   4.530   3.865   9.490
24218WAT      O72895   4.607   1.182   7.056
24218WAT     H172896   4.648   1.163   7.145
24218WAT     H272897   4.567   1.097   7.019
24219WAT      O72898   7.900   5.637   9.144
24219WAT     H172899   7.948   5.661   9.060
24219WAT     H272900   7.960   5.579   9.200
24220WAT      O72901   1.210   3.697   4.027
24220WAT     H172902   1.220   3.600   4.051
24220WAT     H272903   1.250   3.753   4.099
24221WAT      O72904   5.922   2.968   2.340
24221WAT     H172905   5.917   2.871   2.364
24221WAT     H272906   5.834   3.011   2.358
24222WAT      O72907   4.717   8.896   3.046
24222WAT     H172908   4.733   8.913   2.948
24222WAT     H272909   4.803   8.873   3.091
24223WAT      O72910   4.200   9.461   7.972
24223WAT     H172911   4.297   9.439   7.975
24223WAT     H272912   4.187   9.548   7.924
24224WAT      O72913   4.132   9.798   2.015
24224WAT     H172914   4.128   9.700   2.034
24224WAT     H272915   4.223   9.833   2.035
24225WAT      O72916   6.670   4.896   6.964
24225WAT     H172917   6.651   4.900   6.866
24225WAT     H272918   6.589   4.924   7.016
24226WAT      O72919   2.843   5.477   2.657
24226WAT     H172920   2.894   5.539   2.717
24226WAT     H272921   2.752   5.515   2.639
24227WAT      O72922   4.465   2.141   2.312
24227WAT     H172923   4.505   2.050   2.304
24227WAT     H272924   4.538   2.209   2.324
24228WAT      O72925   8.383   7.443   9.784
24228WAT     H172926   8.295   7.480   9.756
24228WAT     H272927   8.392   7.452   9.884
24229WAT      O72928   0.863   1.329   3.720
24229WAT     H172929   0.907   1.293   3.638
24229WAT     H272930   0.844   1.426   3.709
24230WAT      O72931   7.445   1.286   6.260
24230WAT     H172932   7.405   1.373   6.288
24230WAT     H272933   7.540   1.300   6.233
24231WAT      O72934   7.710   4.804   8.409
24231WAT     H172935   7.797   4.854   8.407
24231WAT     H272936   7.715   4.726   8.347
24232WAT      O72937   0.348   9.410   8.502
24232WAT     H172938   0.265   9.465   8.496
24232WAT     H272939   0.427   9.466   8.475
24233WAT      O72940   0.706   7.174   1.018
24233WAT     H172941   0.623   7.194   0.966
24233WAT     H272942   0.770   7.250   1.009
24234WAT      O72943   8.248   4.013   7.115
24234WAT     H172944   8.334   3.965   7.134
24234WAT     H272945   8.250   4.046   7.021
24235WAT      O72946   8.633   3.216   3.627
24235WAT     H172947   8.650   3.157   3.548
24235WAT     H272948   8.603   3.306   3.595
24236WAT      O72949   7.205   3.027   2.939
24236WAT     H172950   7.196   3.026   3.038
24236WAT     H272951   7.236   3.118   2.910
24237WAT      O72952   8.968   5.699   6.532
24237WAT     H172953   8.914   5.616   6.542
24237WAT     H272954   9.040   5.685   6.464
24238WAT      O72955   0.470   0.629   3.176
24238WAT     H172956   0.437   0.551   3.122
24238WAT     H272957   0.485   0.600   3.271
24239WAT      O72958   4.205   4.057   2.694
24239WAT     H172959   4.217   4.136   2.634
24239WAT     H272960   4.165   4.087   2.781
24240WAT      O72961   0.392   0.891   2.561
24240WAT     H172962   0.303   0.866   2.600
24240WAT     H272963   0.410   0.988   2.578
24241WAT      O72964   5.696   6.159   7.634
24241WAT     H172965   5.656   6.072   7.604
24241WAT     H272966   5.669   6.177   7.728
24242WAT      O72967   9.229   6.797   6.117
24242WAT     H172968   9.276   6.829   6.200
24242WAT     H272969   9.287   6.731   6.070
24243WAT      O72970   9.689   0.602   6.227
24243WAT     H172971   9.601   0.610   6.181
24243WAT     H272972   9.727   0.694   6.243
24244WAT      O72973   0.141   6.136   5.158
24244WAT     H172974   0.185   6.217   5.118
24244WAT     H272975   0.167   6.055   5.105
24245WAT      O72976   3.364   9.215   9.487
24245WAT     H172977   3.444   9.181   9.437
24245WAT     H272978   3.393   9.248   9.577
24246WAT      O72979   7.472   9.377   0.504
24246WAT     H172980   7.531   9.383   0.584
24246WAT     H272981   7.452   9.469   0.470
24247WAT      O72982   6.548   4.176   8.120
24247WAT     H172983   6.468   4.232   8.146
24247WAT     H272984   6.619   4.236   8.084
24248WAT      O72985   9.535   8.396   2.747
24248WAT     H172986   9.584   8.311   2.766
24248WAT     H272987   9.533   8.413   2.649
24249WAT      O72988   6.566   8.476   0.595
24249WAT     H172989   6.542   8.399   0.536
24249WAT     H272990   6.593   8.442   0.685
24250WAT      O72991   8.582   1.867   4.331
24250WAT     H172992   8.625   1.928   4.264
24250WAT     H272993   8.484   1.883   4.333
24251WAT      O72994   7.620   9.247   3.740
24251WAT     H172995   7.589   9.339   3.764
24251WAT     H272996   7.667   9.206   3.818
24252WAT      O72997   9.549   4.415   8.480
24252WAT     H172998   9.608   4.494   8.463
24252WAT     H272999   9.606   4.335   8.497
24253WAT      O73000   4.593   7.370   9.507
24253WAT     H173001   4.615   7.466   9.527
24253WAT     H273002   4.628   7.346   9.417
24254WAT      O73003   2.429   7.152   3.373
24254WAT     H173004   2.452   7.071   3.428
24254WAT     H273005   2.330   7.168   3.376
24255WAT      O73006   4.474   2.933   3.041
24255WAT     H173007   4.495   3.002   3.111
24255WAT     H273008   4.537   2.856   3.050
24256WAT      O73009   4.344   6.161   7.121
24256WAT     H173010   4.251   6.165   7.158
24256WAT     H273011   4.348   6.210   7.034
24257WAT      O73012   3.000   9.047   0.318
24257WAT     H173013   3.097   9.030   0.337
24257WAT     H273014   2.948   9.046   0.404
24258WAT      O73015   4.457   1.013   3.433
24258WAT     H173016   4.460   1.103   3.389
24258WAT     H273017   4.411   1.021   3.522
24259WAT      O73018   7.136   0.127   5.495
24259WAT     H173019   7.045   0.087   5.506
24259WAT     H273020   7.128   0.220   5.460
24260WAT      O73021   8.082   7.313   3.770
24260WAT     H173022   8.107   7.398   3.724
24260WAT     H273023   8.054   7.245   3.703
24261WAT      O73024   5.112   1.808   3.179
24261WAT     H173025   5.069   1.857   3.256
24261WAT     H273026   5.049   1.738   3.146
24262WAT      O73027   9.069   1.989   1.613
24262WAT     H173028   9.141   1.924   1.586
24262WAT     H273029   9.100   2.082   1.593
24263WAT      O73030   6.287   1.933   5.702
24263WAT     H173031   6.230   1.976   5.633
24263WAT     H273032   6.333   2.003   5.757
24264WAT      O73033   7.320   1.444   0.476
24264WAT     H173034   7.261   1.478   0.403
24264WAT     H273035   7.270   1.448   0.563
24265WAT      O73036   2.244   5.743   2.787
24265WAT     H173037   2.209   5.796   2.864
24265WAT     H273038   2.204   5.778   2.702
24266WAT      O73039   8.788   5.404   7.032
24266WAT     H173040   8.709   5.342   7.032
24266WAT     H273041   8.774   5.476   6.963
24267WAT      O73042   8.039   7.190   9.437
24267WAT     H173043   8.052   7.287   9.458
24267WAT     H273044   8.060   7.174   9.341
24268WAT      O73045   8.089   6.897   3.945
24268WAT     H173046   8.099   6.861   4.038
24268WAT     H273047   8.025   6.974   3.947
24269WAT      O73048   6.659   0.340   8.036
24269WAT     H173049   6.560   0.331   8.038
24269WAT     H273050   6.700   0.264   8.086
24270WAT      O73051   0.323   4.264   1.219
24270WAT     H173052   0.333   4.183   1.277
24270WAT     H273053   0.339   4.239   1.124
24271WAT      O73054   0.119   3.947   9.448
24271WAT     H173055   0.037   3.993   9.482
24271WAT     H273056   0.164   4.005   9.381
24272WAT      O73057   7.810   2.545   1.768
24272WAT     H173058   7.734   2.611   1.772
24272WAT     H273059   7.893   2.589   1.802
24273WAT      O73060   9.797   0.929   1.799
24273WAT     H173061   9.869   0.998   1.792
24273WAT     H273062   9.768   0.921   1.895
24274WAT      O73063   2.808   5.619   8.288
24274WAT     H173064   2.753   5.610   8.205
24274WAT     H273065   2.902   5.592   8.267
24275WAT      O73066   3.399   7.912   8.849
24275WAT     H173067   3.441   7.874   8.767
24275WAT     H273068   3.383   7.838   8.915
24276WAT      O73069   7.401   6.655   9.529
24276WAT     H173070   7.376   6.589   9.458
24276WAT     H273071   7.319   6.699   9.564
24277WAT      O73072   5.144   8.794   2.826
24277WAT     H173073   5.242   8.777   2.816
24277WAT     H273074   5.095   8.744   2.756
24278WAT      O73075   0.762   8.545   8.630
24278WAT     H173076   0.662   8.537   8.627
24278WAT     H273077   0.804   8.456   8.612
24279WAT      O73078   1.573   3.255   3.583
24279WAT     H173079   1.550   3.352   3.591
24279WAT     H273080   1.667   3.241   3.613
24280WAT      O73081   2.871   1.224   3.331
24280WAT     H173082   2.775   1.246   3.314
24280WAT     H273083   2.880   1.179   3.421
24281WAT      O73084   6.801   5.093   3.026
24281WAT     H173085   6.856   5.170   2.993
24281WAT     H273086   6.824   5.074   3.121
24282WAT      O73087   9.669   8.815   3.006
24282WAT     H173088   9.766   8.835   3.011
24282WAT     H273089   9.656   8.718   2.982
24283WAT      O73090   2.735   3.409   0.033
24283WAT     H173091   2.707   3.315   0.012
24283WAT     H273092   2.833   3.410   0.054
24284WAT      O73093   2.606   3.766   5.394
24284WAT     H173094   2.589   3.673   5.428
24284WAT     H273095   2.666   3.814   5.458
24285WAT      O73096   3.570   5.148   2.843
24285WAT     H173097   3.631   5.214   2.885
24285WAT     H273098   3.499   5.121   2.909
24286WAT      O73099   2.916   2.551   8.164
24286WAT     H173100   2.880   2.608   8.090
24286WAT     H273101   2.859   2.470   8.176
24287WAT      O73102   9.388   6.664   5.954
24287WAT     H173103   9.385   6.564   5.954
24287WAT     H273104   9.425   6.696   5.867
24288WAT      O73105   3.271   1.635   2.845
24288WAT     H173106   3.183   1.634   2.798
24288WAT     H273107   3.260   1.674   2.937
24289WAT      O73108   5.863   8.518   8.146
24289WAT     H173109   5.890   8.502   8.051
24289WAT     H273110   5.782   8.577   8.148
24290WAT      O73111   2.393   8.790   0.508
24290WAT     H173112   2.341   8.763   0.588
24290WAT     H273113   2.427   8.883   0.521
24291WAT      O73114   9.099   0.031   0.578
24291WAT     H173115   9.071  -0.051   0.528
24291WAT     H273116   9.064   0.112   0.531
24292WAT      O73117   3.644   2.519   7.992
24292WAT     H173118   3.677   2.566   7.910
24292WAT     H273119   3.691   2.432   8.002
24293WAT      O73120   8.977   4.105   8.457
24293WAT     H173121   9.055   4.072   8.510
24293WAT     H273122   9.011   4.152   8.375
24294WAT      O73123   4.940   8.825   6.449
24294WAT     H173124   4.939   8.846   6.547
24294WAT     H273125   4.862   8.767   6.426
24295WAT      O73126   1.487   5.105   0.161
24295WAT     H173127   1.496   5.007   0.180
24295WAT     H273128   1.461   5.118   0.066
24296WAT      O73129   2.217   0.715   7.110
24296WAT     H173130   2.145   0.679   7.169
24296WAT     H273131   2.216   0.815   7.114
24297WAT      O73132   1.375   2.412   3.621
24297WAT     H173133   1.378   2.442   3.526
24297WAT     H273134   1.345   2.316   3.626
24298WAT      O73135   1.767   2.206   6.428
24298WAT     H173136   1.809   2.276   6.370
24298WAT     H273137   1.744   2.246   6.517
24299WAT      O73138   4.075   8.486   2.816
24299WAT     H173139   4.170   8.469   2.842
24299WAT     H273140   4.024   8.400   2.817
24300WAT      O73141   7.837   0.011   1.942
24300WAT     H173142   7.852  -0.044   2.024
24300WAT     H273143   7.796   0.099   1.967
24301WAT      O73144   9.231   2.456   9.107
24301WAT     H173145   9.260   2.502   9.190
24301WAT     H273146   9.138   2.483   9.084
24302WAT      O73147   5.037   4.034   7.373
24302WAT     H173148   4.980   4.097   7.426
24302WAT     H273149   5.015   4.045   7.275
24303WAT      O73150   1.226   9.627   2.457
24303WAT     H173151   1.324   9.617   2.444
24303WAT     H273152   1.193   9.704   2.403
24304WAT      O73153   0.599   4.698   6.116
24304WAT     H173154   0.521   4.649   6.078
24304WAT     H273155   0.634   4.649   6.196
24305WAT      O73156   7.543   1.939   0.784
24305WAT     H173157   7.623   1.981   0.742
24305WAT     H273158   7.520   1.987   0.869
24306WAT      O73159   6.458   5.784   1.526
24306WAT     H173160   6.525   5.786   1.451
24306WAT     H273161   6.385   5.721   1.503
24307WAT      O73162   5.587   3.207   5.155
24307WAT     H173163   5.640   3.217   5.070
24307WAT     H273164   5.624   3.131   5.208
24308WAT      O73165   7.968   6.732   3.757
24308WAT     H173166   8.029   6.695   3.688
24308WAT     H273167   8.019   6.794   3.818
24309WAT      O73168   1.942   2.904   0.908
24309WAT     H173169   2.008   2.958   0.857
24309WAT     H273170   1.876   2.864   0.844
24310WAT      O73171   6.480   0.152   2.007
24310WAT     H173172   6.483   0.063   1.962
24310WAT     H273173   6.483   0.224   1.937
24311WAT      O73174   5.791   7.873   2.358
24311WAT     H173175   5.861   7.814   2.318
24311WAT     H273176   5.700   7.835   2.338
24312WAT      O73177   1.235   8.868   8.629
24312WAT     H173178   1.166   8.809   8.587
24312WAT     H273179   1.311   8.882   8.565
24313WAT      O73180   7.195   4.161   6.964
24313WAT     H173181   7.194   4.259   6.987
24313WAT     H273182   7.171   4.149   6.868
24314WAT      O73183   7.531   1.916   9.535
24314WAT     H173184   7.436   1.918   9.565
24314WAT     H273185   7.590   1.953   9.607
24315WAT      O73186   4.149   2.602   2.827
24315WAT     H173187   4.148   2.521   2.768
24315WAT     H273188   4.087   2.588   2.904
24316WAT      O73189   7.397   4.009   0.911
24316WAT     H173190   7.322   4.042   0.854
24316WAT     H273191   7.360   3.979   0.999
24317WAT      O73192   6.251   5.292   0.266
24317WAT     H173193   6.300   5.357   0.324
24317WAT     H273194   6.246   5.204   0.312
24318WAT      O73195   7.878   5.145   6.340
24318WAT     H173196   7.846   5.222   6.395
24318WAT     H273197   7.920   5.178   6.256
24319WAT      O73198   8.978   6.062   0.073
24319WAT     H173199   8.925   6.090  -0.007
24319WAT     H273200   8.939   6.101   0.156
24320WAT      O73201   8.288   3.022   3.660
24320WAT     H173202   8.342   3.087   3.606
24320WAT     H273203   8.332   3.007   3.749
24321WAT      O73204   7.460   0.533   9.640
24321WAT     H173205   7.526   0.580   9.700
24321WAT     H273206   7.468   0.570   9.548
24322WAT      O73207   0.060   4.396   2.872
24322WAT     H173208   0.146   4.436   2.838
24322WAT     H273209   0.061   4.297   2.856
24323WAT      O73210   8.789   1.181   3.393
24323WAT     H173211   8.862   1.136   3.341
24323WAT     H273212   8.726   1.226   3.330
24324WAT      O73213   5.620   1.817   8.934
24324WAT     H173214   5.625   1.912   8.967
24324WAT     H273215   5.666   1.757   9.000
24325WAT      O73216   4.921   5.442   3.961
24325WAT     H173217   4.955   5.525   3.918
24325WAT     H273218   4.987   5.409   4.028
24326WAT      O73219   1.051   4.743   6.752
24326WAT     H173220   0.970   4.743   6.810
24326WAT     H273221   1.087   4.836   6.746
24327WAT      O73222   4.851   7.760   3.243
24327WAT     H173223   4.939   7.743   3.287
24327WAT     H273224   4.828   7.682   3.184
24328WAT      O73225   3.224   3.743   0.563
24328WAT     H173226   3.163   3.686   0.617
24328WAT     H273227   3.181   3.763   0.475
24329WAT      O73228   5.335   2.906   0.449
24329WAT     H173229   5.414   2.848   0.429
24329WAT     H273230   5.311   2.959   0.368
24330WAT      O73231   5.693   3.194   4.879
24330WAT     H173232   5.634   3.124   4.838
24330WAT     H273233   5.750   3.234   4.808
24331WAT      O73234   0.862   9.594   4.025
24331WAT     H173235   0.912   9.641   3.953
24331WAT     H273236   0.912   9.604   4.112
24332WAT      O73237   0.920   1.458   1.227
24332WAT     H173238   0.858   1.529   1.195
24332WAT     H273239   0.868   1.387   1.275
24333WAT      O73240   5.941   4.276   1.980
24333WAT     H173241   5.950   4.278   2.079
24333WAT     H273242   6.032   4.277   1.938
24334WAT      O73243   2.105   9.424   6.829
24334WAT     H173244   2.182   9.477   6.794
24334WAT     H273245   2.121   9.403   6.926
24335WAT      O73246   2.726   8.771   7.582
24335WAT     H173247   2.646   8.825   7.557
24335WAT     H273248   2.770   8.810   7.663
24336WAT      O73249   3.621   8.396   1.131
24336WAT     H173250   3.610   8.487   1.170
24336WAT     H273251   3.633   8.402   1.032
24337WAT      O73252   3.031   5.215   2.857
24337WAT     H173253   3.060   5.175   2.770
24337WAT     H273254   2.932   5.206   2.866
24338WAT      O73255   7.104   9.703   9.625
24338WAT     H173256   7.163   9.660   9.693
24338WAT     H273257   7.098   9.801   9.642
24339WAT      O73258   5.531   3.191   3.455
24339WAT     H173259   5.526   3.117   3.523
24339WAT     H273260   5.608   3.173   3.393
24340WAT      O73261   2.074   5.080   0.933
24340WAT     H173262   1.981   5.102   0.962
24340WAT     H273263   2.089   4.981   0.941
24341WAT      O73264   6.247   6.804   2.580
24341WAT     H173265   6.343   6.787   2.559
24341WAT     H273266   6.191   6.779   2.501
24342WAT      O73267   1.520   9.235   8.688
24342WAT     H173268   1.565   9.269   8.771
24342WAT     H273269   1.539   9.297   8.612
24343WAT      O73270   5.197   1.352   4.894
24343WAT     H173271   5.281   1.342   4.841
24343WAT     H273272   5.165   1.446   4.889
24344WAT      O73273   2.478   0.175   5.848
24344WAT     H173274   2.550   0.169   5.779
24344WAT     H273275   2.491   0.257   5.903
24345WAT      O73276   6.804   9.141   9.791
24345WAT     H173277   6.874   9.070   9.792
24345WAT     H273278   6.713   9.099   9.785
24346WAT      O73279   6.685   2.848   5.406
24346WAT     H173280   6.644   2.937   5.388
24346WAT     H273281   6.699   2.799   5.319
24347WAT      O73282   2.158   8.880   5.139
24347WAT     H173283   2.223   8.939   5.187
24347WAT     H273284   2.068   8.888   5.181
24348WAT      O73285   2.127   6.455   2.554
24348WAT     H173286   2.126   6.496   2.462
24348WAT     H273287   2.147   6.358   2.546
24349WAT      O73288   6.242   2.778   6.882
24349WAT     H173289   6.298   2.848   6.926
24349WAT     H273290   6.166   2.821   6.833
24350WAT      O73291   3.442   4.682   3.271
24350WAT     H173292   3.470   4.689   3.175
24350WAT     H273293   3.509   4.728   3.329
24351WAT      O73294   0.799   5.397   5.260
24351WAT     H173295   0.891   5.434   5.257
24351WAT     H273296   0.775   5.361   5.169
24352WAT      O73297   3.626   7.524   0.131
24352WAT     H173298   3.631   7.561   0.039
24352WAT     H273299   3.606   7.598   0.196
24353WAT      O73300   9.825   0.590   3.025
24353WAT     H173301   9.915   0.603   3.068
24353WAT     H273302   9.757   0.576   3.097
24354WAT      O73303   8.320   1.467   0.836
24354WAT     H173304   8.400   1.411   0.858
24354WAT     H273305   8.346   1.538   0.771
24355WAT      O73306   6.437   0.189   1.362
24355WAT     H173307   6.484   0.275   1.381
24355WAT     H273308   6.356   0.206   1.307
24356WAT      O73309   8.184   7.520   3.636
24356WAT     H173310   8.229   7.478   3.557
24356WAT     H273311   8.245   7.589   3.676
24357WAT      O73312   9.300   6.069   5.535
24357WAT     H173313   9.293   6.145   5.470
24357WAT     H273314   9.321   5.985   5.484
24358WAT      O73315   1.327   6.832   4.764
24358WAT     H173316   1.269   6.909   4.738
24358WAT     H273317   1.269   6.757   4.799
24359WAT      O73318   6.233   7.697   2.216
24359WAT     H173319   6.257   7.601   2.226
24359WAT     H273320   6.232   7.722   2.119
24360WAT      O73321   9.085   0.391   4.172
24360WAT     H173322   8.989   0.388   4.200
24360WAT     H273323   9.128   0.303   4.192
24361WAT      O73324   6.921   2.032   2.170
24361WAT     H173325   6.902   1.936   2.147
24361WAT     H273326   7.007   2.038   2.221
24362WAT      O73327   2.329   5.945   6.025
24362WAT     H173328   2.258   5.877   6.004
24362WAT     H273329   2.287   6.025   6.067
24363WAT      O73330   2.667   6.994   1.824
24363WAT     H173331   2.601   7.069   1.822
24363WAT     H273332   2.751   7.024   1.869
24364WAT      O73333   1.392   9.112   6.339
24364WAT     H173334   1.365   9.168   6.261
24364WAT     H273335   1.346   9.145   6.421
24365WAT      O73336   3.136   9.348   7.501
24365WAT     H173337   3.153   9.330   7.598
24365WAT     H273338   3.107   9.443   7.489
24366WAT      O73339   4.264   1.263   5.662
24366WAT     H173340   4.249   1.274   5.564
24366WAT     H273341   4.339   1.322   5.692
24367WAT      O73342   6.122   2.542   6.031
24367WAT     H173343   6.220   2.523   6.023
24367WAT     H273344   6.084   2.559   5.940
24368WAT      O73345   3.406   7.581   3.137
24368WAT     H173346   3.361   7.633   3.064
24368WAT     H273347   3.468   7.641   3.187
24369WAT      O73348   2.995   1.298   6.929
24369WAT     H173349   3.043   1.229   6.875
24369WAT     H273350   2.973   1.376   6.871
24370WAT      O73351   4.358   8.002   2.290
24370WAT     H173352   4.309   7.929   2.337
24370WAT     H273353   4.455   7.978   2.285
24371WAT      O73354   2.423   4.690   3.356
24371WAT     H173355   2.367   4.773   3.356
24371WAT     H273356   2.515   4.711   3.323
24372WAT      O73357   0.475   4.567   7.027
24372WAT     H173358   0.515   4.648   7.069
24372WAT     H273359   0.530   4.486   7.051
24373WAT      O73360   6.575   1.685   3.629
24373WAT     H173361   6.544   1.621   3.559
24373WAT     H273362   6.500   1.746   3.655
24374WAT      O73363   4.607   3.870   3.469
24374WAT     H173364   4.580   3.939   3.402
24374WAT     H273365   4.558   3.785   3.452
24375WAT      O73366   7.115   8.078   9.794
24375WAT     H173367   7.043   8.143   9.768
24375WAT     H273368   7.081   7.984   9.782
24376WAT      O73369   4.482   0.961   3.938
24376WAT     H173370   4.537   0.885   3.971
24376WAT     H273371   4.514   1.046   3.980
24377WAT      O73372   0.881   4.360   5.962
24377WAT     H173373   0.876   4.351   6.062
24377WAT     H273374   0.948   4.295   5.926
24378WAT      O73375   7.854   9.742   9.814
24378WAT     H173376   7.877   9.807   9.742
24378WAT     H273377   7.789   9.783   9.878
24379WAT      O73378   4.101   9.528   2.109
24379WAT     H173379   4.073   9.464   2.037
24379WAT     H273380   4.020   9.558   2.160
24380WAT      O73381   2.149   2.833   9.860
24380WAT     H173382   2.203   2.808   9.941
24380WAT     H273383   2.195   2.800   9.778
24381WAT      O73384   9.679   3.085   3.610
24381WAT     H173385   9.726   3.068   3.696
24381WAT     H273386   9.580   3.093   3.626
24382WAT      O73387   0.475   8.384   5.075
24382WAT     H173388   0.457   8.463   5.132
24382WAT     H273389   0.573   8.378   5.056
24383WAT      O73390   1.305   3.079   2.115
24383WAT     H173391   1.243   3.007   2.146
24383WAT     H273392   1.321   3.068   2.017
24384WAT      O73393   1.156   6.379   3.938
24384WAT     H173394   1.142   6.436   4.019
24384WAT     H273395   1.198   6.292   3.966
24385WAT      O73396   7.630   3.724   9.538
24385WAT     H173397   7.674   3.646   9.492
24385WAT     H273398   7.660   3.726   9.634
24386WAT      O73399   4.326   0.063   7.258
24386WAT     H173400   4.392   0.113   7.314
24386WAT     H273401   4.320  -0.032   7.290
24387WAT      O73402   3.042   7.329   9.000
24387WAT     H173403   2.976   7.278   9.055
24387WAT     H273404   3.027   7.309   8.903
24388WAT      O73405   4.079   9.551   8.933
24388WAT     H173406   4.108   9.599   8.850
24388WAT     H273407   4.018   9.476   8.909
24389WAT      O73408   7.570   8.510   4.505
24389WAT     H173409   7.561   8.524   4.604
24389WAT     H273410   7.558   8.413   4.484
24390WAT      O73411   6.206   2.270   3.662
24390WAT     H173412   6.226   2.224   3.749
24390WAT     H273413   6.112   2.251   3.635
24391WAT      O73414   1.244   9.782   2.710
24391WAT     H173415   1.299   9.723   2.770
24391WAT     H273416   1.249   9.747   2.616
24392WAT      O73417   5.482   9.546   5.184
24392WAT     H173418   5.555   9.559   5.251
24392WAT     H273419   5.481   9.450   5.154
24393WAT      O73420   4.540   3.460   3.011
24393WAT     H173421   4.551   3.430   2.916
24393WAT     H273422   4.500   3.552   3.013
24394WAT      O73423   0.264   9.244   5.657
24394WAT     H173424   0.299   9.328   5.697
24394WAT     H273425   0.174   9.223   5.696
24395WAT      O73426   0.031   0.640   4.516
24395WAT     H173427   0.072   0.570   4.576
24395WAT     H273428   0.037   0.729   4.561
24396WAT      O73429   8.117   3.970   6.245
24396WAT     H173430   8.066   4.056   6.255
24396WAT     H273431   8.052   3.894   6.241
24397WAT      O73432   6.695   0.237   7.780
24397WAT     H173433   6.607   0.256   7.735
24397WAT     H273434   6.702   0.292   7.863
24398WAT      O73435   8.231   8.820   8.788
24398WAT     H173436   8.153   8.806   8.850
24398WAT     H273437   8.272   8.732   8.766
24399WAT      O73438   0.154   6.781   7.208
24399WAT     H173439   0.190   6.845   7.276
24399WAT     H273440   0.100   6.831   7.141
24400WAT      O73441   5.512   8.189   0.686
24400WAT     H173442   5.435   8.252   0.682
24400WAT     H273443   5.516   8.147   0.777
24401WAT      O73444   6.759   3.702   0.186
24401WAT     H173445   6.769   3.628   0.252
24401WAT     H273446   6.827   3.692   0.114
24402WAT      O73447   2.820   2.737   9.314
24402WAT     H173448   2.904   2.698   9.354
24402WAT     H273449   2.741   2.708   9.368
24403WAT      O73450   0.026   1.022   2.710
24403WAT     H173451  -0.034   1.032   2.631
24403WAT     H273452  -0.018   0.963   2.778
24404WAT      O73453   3.349   0.839   3.410
24404WAT     H173454   3.303   0.923   3.439
24404WAT     H273455   3.386   0.792   3.490
24405WAT      O73456   2.641   4.286   6.626
24405WAT     H173457   2.589   4.255   6.547
24405WAT     H273458   2.597   4.254   6.710
24406WAT      O73459   6.101   1.534   3.113
24406WAT     H173460   6.036   1.591   3.163
24406WAT     H273461   6.189   1.580   3.107
24407WAT      O73462   4.993   0.476   5.468
24407WAT     H173463   5.077   0.497   5.519
24407WAT     H273464   5.017   0.426   5.385
24408WAT      O73465   5.522   3.984   1.519
24408WAT     H173466   5.500   3.889   1.541
24408WAT     H273467   5.468   4.013   1.439
24409WAT      O73468   0.686   2.739   9.335
24409WAT     H173469   0.634   2.759   9.418
24409WAT     H273470   0.758   2.673   9.356
24410WAT      O73471   2.591   3.880   8.918
24410WAT     H173472   2.517   3.941   8.946
24410WAT     H273473   2.675   3.904   8.967
24411WAT      O73474   5.998   3.610   9.244
24411WAT     H173475   6.087   3.573   9.215
24411WAT     H273476   5.951   3.649   9.165
24412WAT      O73477   2.591   5.156   5.566
24412WAT     H173478   2.508   5.196   5.605
24412WAT     H273479   2.566   5.090   5.494
24413WAT      O73480   0.331   1.847   6.310
24413WAT     H173481   0.392   1.858   6.389
24413WAT     H273482   0.318   1.936   6.267
24414WAT      O73483   9.635   4.857   0.388
24414WAT     H173484   9.548   4.807   0.385
24414WAT     H273485   9.707   4.795   0.421
24415WAT      O73486   1.908   8.860   1.501
24415WAT     H173487   1.842   8.793   1.535
24415WAT     H273488   1.859   8.943   1.474
24416WAT      O73489   9.573   0.288   4.771
24416WAT     H173490   9.519   0.248   4.697
24416WAT     H273491   9.631   0.217   4.811
24417WAT      O73492   9.361   4.509   0.999
24417WAT     H173493   9.353   4.463   1.088
24417WAT     H273494   9.425   4.458   0.941
24418WAT      O73495   2.128   0.869   6.334
24418WAT     H173496   2.116   0.907   6.425
24418WAT     H273497   2.214   0.818   6.330
24419WAT      O73498   8.789   2.916   6.148
24419WAT     H173499   8.715   2.982   6.132
24419WAT     H273500   8.801   2.902   6.246
24420WAT      O73501   3.903   8.856   6.713
24420WAT     H173502   3.998   8.877   6.690
24420WAT     H273503   3.890   8.861   6.812
24421WAT      O73504   9.801   1.328   1.515
24421WAT     H173505   9.851   1.251   1.476
24421WAT     H273506   9.819   1.410   1.460
24422WAT      O73507   9.586   2.522   5.541
24422WAT     H173508   9.661   2.513   5.475
24422WAT     H273509   9.508   2.567   5.496
24423WAT      O73510   4.232   1.979   2.155
24423WAT     H173511   4.280   2.026   2.230
24423WAT     H273512   4.294   1.913   2.113
24424WAT      O73513   2.784   6.487   6.921
24424WAT     H173514   2.820   6.502   6.829
24424WAT     H273515   2.857   6.501   6.988
24425WAT      O73516   5.179   3.605   7.235
24425WAT     H173517   5.165   3.647   7.145
24425WAT     H273518   5.220   3.672   7.297
24426WAT      O73519   5.950   8.665   4.019
24426WAT     H173520   5.935   8.584   3.963
24426WAT     H273521   6.001   8.733   3.966
24427WAT      O73522   5.331   7.929   6.574
24427WAT     H173523   5.290   8.018   6.591
24427WAT     H273524   5.301   7.895   6.485
24428WAT      O73525   7.602   2.752   9.275
24428WAT     H173526   7.548   2.815   9.331
24428WAT     H273527   7.696   2.785   9.269
24429WAT      O73528   3.594   9.289   2.268
24429WAT     H173529   3.683   9.264   2.230
24429WAT     H273530   3.531   9.314   2.194
24430WAT      O73531   3.778   0.799   2.933
24430WAT     H173532   3.838   0.876   2.910
24430WAT     H273533   3.807   0.718   2.882
24431WAT      O73534   3.443   4.404   8.159
24431WAT     H173535   3.440   4.308   8.134
24431WAT     H273536   3.429   4.413   8.258
24432WAT      O73537   2.069   2.493   5.498
24432WAT     H173538   2.104   2.504   5.405
24432WAT     H273539   2.083   2.399   5.528
24433WAT      O73540   4.292   2.102   9.173
24433WAT     H173541   4.295   2.017   9.121
24433WAT     H273542   4.280   2.179   9.111
24434WAT      O73543   2.052   3.958   4.930
24434WAT     H173544   2.043   3.860   4.949
24434WAT     H273545   2.135   3.974   4.876
24435WAT      O73546   2.702   1.988   3.939
24435WAT     H173547   2.727   2.078   3.974
24435WAT     H273548   2.680   1.927   4.015
24436WAT      O73549   1.011   9.718   3.444
24436WAT     H173550   1.110   9.733   3.436
24436WAT     H273551   0.994   9.621   3.465
24437WAT      O73552   1.379   4.595   2.592
24437WAT     H173553   1.417   4.683   2.563
24437WAT     H273554   1.333   4.552   2.514
24438WAT      O73555   7.396   7.923   6.801
24438WAT     H173556   7.434   8.013   6.822
24438WAT     H273557   7.336   7.893   6.875
24439WAT      O73558   7.986   7.045   7.759
24439WAT     H173559   7.977   7.055   7.858
24439WAT     H273560   8.082   7.029   7.735
24440WAT      O73561   0.149   1.074   7.985
24440WAT     H173562   0.132   1.008   8.058
24440WAT     H273563   0.225   1.042   7.928
24441WAT      O73564   9.162   1.718   1.789
24441WAT     H173565   9.201   1.755   1.705
24441WAT     H273566   9.201   1.765   1.868
24442WAT      O73567   4.595   4.947   6.045
24442WAT     H173568   4.580   4.858   6.002
24442WAT     H273569   4.556   4.947   6.137
24443WAT      O73570   2.236   4.135   1.465
24443WAT     H173571   2.213   4.161   1.559
24443WAT     H273572   2.182   4.055   1.438
24444WAT      O73573   7.991   2.858   4.237
24444WAT     H173574   8.046   2.930   4.279
24444WAT     H273575   8.026   2.838   4.146
24445WAT      O73576   2.760   9.175   1.288
24445WAT     H173577   2.844   9.200   1.336
24445WAT     H273578   2.780   9.102   1.222
24446WAT      O73579   8.237   9.094   1.208
24446WAT     H173580   8.178   9.050   1.275
24446WAT     H273581   8.331   9.060   1.219
24447WAT      O73582   3.421   1.522   5.486
24447WAT     H173583   3.425   1.621   5.493
24447WAT     H273584   3.469   1.481   5.565
24448WAT      O73585   5.021   6.159   2.103
24448WAT     H173586   4.978   6.165   2.012
24448WAT     H273587   5.117   6.186   2.097
24449WAT      O73588   4.600   3.570   5.293
24449WAT     H173589   4.625   3.627   5.215
24449WAT     H273590   4.615   3.620   5.378
24450WAT      O73591   1.518   6.866   4.975
24450WAT     H173592   1.445   6.877   4.907
24450WAT     H273593   1.557   6.956   4.996
24451WAT      O73594   4.267   5.082   4.411
24451WAT     H173595   4.267   5.149   4.337
24451WAT     H273596   4.191   5.101   4.473
24452WAT      O73597   0.902   5.105   9.048
24452WAT     H173598   0.827   5.039   9.040
24452WAT     H273599   0.899   5.148   9.138
24453WAT      O73600   9.106   6.222   4.398
24453WAT     H173601   9.075   6.206   4.305
24453WAT     H273602   9.050   6.167   4.461
24454WAT      O73603   5.464   8.491   2.051
24454WAT     H173604   5.510   8.455   1.970
24454WAT     H273605   5.455   8.418   2.119
24455WAT      O73606   8.399   6.834   3.375
24455WAT     H173607   8.474   6.819   3.439
24455WAT     H273608   8.336   6.903   3.413
24456WAT      O73609   6.099   9.710   0.896
24456WAT     H173610   6.174   9.662   0.942
24456WAT     H273611   6.093   9.804   0.930
24457WAT      O73612   5.790   1.468   3.265
24457WAT     H173613   5.854   1.393   3.252
24457WAT     H273614   5.729   1.474   3.186
24458WAT      O73615   4.213   4.102   0.707
24458WAT     H173616   4.266   4.035   0.655
24458WAT     H273617   4.234   4.194   0.674
24459WAT      O73618   1.555   8.961   8.150
24459WAT     H173619   1.597   9.037   8.100
24459WAT     H273620   1.523   8.993   8.239
24460WAT      O73621   5.232   8.337   1.840
24460WAT     H173622   5.231   8.429   1.879
24460WAT     H273623   5.139   8.302   1.835
24461WAT      O73624   0.762   9.132   8.250
24461WAT     H173625   0.702   9.102   8.324
24461WAT     H273626   0.815   9.054   8.217
24462WAT      O73627   3.368   0.259   1.601
24462WAT     H173628   3.297   0.190   1.614
24462WAT     H273629   3.438   0.249   1.672
24463WAT      O73630   9.255   3.593   7.812
24463WAT     H173631   9.197   3.530   7.864
24463WAT     H273632   9.287   3.666   7.872
24464WAT      O73633   5.051   4.117   2.549
24464WAT     H173634   5.095   4.156   2.630
24464WAT     H273635   5.121   4.090   2.483
24465WAT      O73636   3.601   3.611   6.989
24465WAT     H173637   3.633   3.519   6.965
24465WAT     H273638   3.620   3.674   6.914
24466WAT      O73639   2.706   5.745   9.392
24466WAT     H173640   2.633   5.792   9.442
24466WAT     H273641   2.793   5.761   9.438
24467WAT      O73642   3.411   0.440   9.592
24467WAT     H173643   3.428   0.438   9.493
24467WAT     H273644   3.349   0.365   9.617
24468WAT      O73645   2.081   7.352   6.933
24468WAT     H173646   2.132   7.266   6.935
24468WAT     H273647   2.022   7.354   6.853
24469WAT      O73648   9.313   4.376   4.434
24469WAT     H173649   9.371   4.438   4.487
24469WAT     H273650   9.370   4.322   4.372
24470WAT      O73651   3.633   1.645   3.449
24470WAT     H173652   3.612   1.603   3.537
24470WAT     H273653   3.596   1.738   3.448
24471WAT      O73654   4.202   4.326   4.302
24471WAT     H173655   4.131   4.324   4.372
24471WAT     H273656   4.160   4.336   4.212
24472WAT      O73657   0.352   2.342   6.139
24472WAT     H173658   0.412   2.422   6.130
24472WAT     H273659   0.349   2.293   6.052
24473WAT      O73660   4.237   3.842   4.932
24473WAT     H173661   4.282   3.896   5.004
24473WAT     H273662   4.162   3.895   4.893
24474WAT      O73663   1.586   4.412   1.029
24474WAT     H173664   1.506   4.423   0.970
24474WAT     H273665   1.599   4.495   1.083
24475WAT      O73666   6.823   7.598   0.250
24475WAT     H173667   6.828   7.697   0.255
24475WAT     H273668   6.913   7.559   0.272
24476WAT      O73669   4.948   3.563   5.738
24476WAT     H173670   4.870   3.624   5.725
24476WAT     H273671   5.029   3.604   5.696
24477WAT      O73672   8.703   2.559   4.799
24477WAT     H173673   8.715   2.523   4.891
24477WAT     H273674   8.634   2.632   4.800
24478WAT      O73675   5.494   5.083   4.376
24478WAT     H173676   5.511   5.029   4.457
24478WAT     H273677   5.522   5.178   4.392
24479WAT      O73678   3.004   0.026   4.914
24479WAT     H173679   3.054   0.077   4.983
24479WAT     H273680   2.974  -0.062   4.952
24480WAT      O73681   2.355   6.744   1.222
24480WAT     H173682   2.289   6.797   1.169
24480WAT     H273683   2.438   6.797   1.235
24481WAT      O73684   4.771   8.254   0.813
24481WAT     H173685   4.783   8.303   0.899
24481WAT     H273686   4.820   8.167   0.817
24482WAT      O73687   9.800   5.718   8.532
24482WAT     H173688   9.791   5.807   8.575
24482WAT     H273689   9.797   5.728   8.432
24483WAT      O73690   6.501   7.468   1.440
24483WAT     H173691   6.413   7.515   1.456
24483WAT     H273692   6.533   7.488   1.348
24484WAT      O73693   4.536   1.435   2.017
24484WAT     H173694   4.576   1.343   2.014
24484WAT     H273695   4.460   1.435   2.082
24485WAT      O73696   5.536   6.419   1.908
24485WAT     H173697   5.548   6.407   2.007
24485WAT     H273698   5.625   6.408   1.863
24486WAT      O73699   6.263   5.270   8.778
24486WAT     H173700   6.272   5.357   8.729
24486WAT     H273701   6.262   5.195   8.713
24487WAT      O73702   5.229   2.561   2.755
24487WAT     H173703   5.156   2.629   2.746
24487WAT     H273704   5.200   2.475   2.715
24488WAT      O73705   6.008   8.694   0.029
24488WAT     H173706   6.097   8.648   0.030
24488WAT     H273707   5.943   8.637  -0.021
24489WAT      O73708   1.366   5.119   8.675
24489WAT     H173709   1.447   5.177   8.661
24489WAT     H273710   1.332   5.089   8.586
24490WAT      O73711   2.514   1.628   7.790
24490WAT     H173712   2.419   1.613   7.763
24490WAT     H273713   2.557   1.692   7.727
24491WAT      O73714   6.072   3.193   8.171
24491WAT     H173715   6.015   3.271   8.145
24491WAT     H273716   6.033   3.148   8.251
24492WAT      O73717   4.628   8.246   5.900
24492WAT     H173718   4.592   8.213   5.813
24492WAT     H273719   4.623   8.173   5.968
24493WAT      O73720   3.639   3.961   1.690
24493WAT     H173721   3.634   3.922   1.782
24493WAT     H273722   3.642   3.887   1.623
24494WAT      O73723   9.363   6.926   7.459
24494WAT     H173724   9.358   6.971   7.370
24494WAT     H273725   9.411   6.839   7.449
24495WAT      O73726   3.856   7.763   8.520
24495WAT     H173727   3.760   7.756   8.548
24495WAT     H273728   3.915   7.723   8.590
24496WAT      O73729   1.891   1.271   7.990
24496WAT     H173730   1.920   1.181   8.023
24496WAT     H273731   1.792   1.278   7.996
24497WAT      O73732   1.774   3.987   2.024
24497WAT     H173733   1.728   3.985   1.935
24497WAT     H273734   1.806   3.895   2.047
24498WAT      O73735   9.332   6.541   2.326
24498WAT     H173736   9.268   6.468   2.302
24498WAT     H273737   9.387   6.513   2.405
24499WAT      O73738   1.508   0.112   9.428
24499WAT     H173739   1.553   0.047   9.367
24499WAT     H273740   1.502   0.201   9.383
24500WAT      O73741   2.472   5.696   4.239
24500WAT     H173742   2.523   5.780   4.222
24500WAT     H273743   2.380   5.703   4.199
24501WAT      O73744   9.812   5.344   3.655
24501WAT     H173745   9.842   5.257   3.615
24501WAT     H273746   9.713   5.344   3.665
24502WAT      O73747   1.857   0.384   0.787
24502WAT     H173748   1.764   0.372   0.753
24502WAT     H273749   1.865   0.345   0.879
24503WAT      O73750   3.403   0.376   4.469
24503WAT     H173751   3.476   0.437   4.501
24503WAT     H273752   3.386   0.392   4.372
24504WAT      O73753   0.511   2.868   7.167
24504WAT     H173754   0.438   2.805   7.137
24504WAT     H273755   0.596   2.817   7.177
24505WAT      O73756   4.063   6.064   1.084
24505WAT     H173757   4.140   6.000   1.089
24505WAT     H273758   4.000   6.033   1.013
24506WAT      O73759   1.598   4.607   6.420
24506WAT     H173760   1.686   4.624   6.376
24506WAT     H273761   1.541   4.689   6.413
24507WAT      O73762   9.539   9.231   1.150
24507WAT     H173763   9.593   9.186   1.079
24507WAT     H273764   9.445   9.244   1.117
24508WAT      O73765   2.918   1.122   3.609
24508WAT     H173766   2.910   1.183   3.688
24508WAT     H273767   2.979   1.046   3.631
24509WAT      O73768   2.980   1.641   4.313
24509WAT     H173769   2.977   1.727   4.364
24509WAT     H273770   3.015   1.569   4.372
24510WAT      O73771   7.643   2.664   3.659
24510WAT     H173772   7.703   2.744   3.663
24510WAT     H273773   7.594   2.663   3.571
24511WAT      O73774   9.677   0.021   0.971
24511WAT     H173775   9.637  -0.064   1.004
24511WAT     H273776   9.684   0.018   0.871
24512WAT      O73777   1.064   2.277   8.107
24512WAT     H173778   0.985   2.253   8.163
24512WAT     H273779   1.142   2.298   8.166
24513WAT      O73780   5.023   2.768   2.583
24513WAT     H173781   5.006   2.749   2.679
24513WAT     H273782   4.939   2.751   2.530
24514WAT      O73783   3.153   7.532   9.142
24514WAT     H173784   3.116   7.450   9.098
24514WAT     H273785   3.085   7.605   9.138
24515WAT      O73786   9.038   6.343   0.494
24515WAT     H173787   9.000   6.269   0.437
24515WAT     H273788   9.005   6.332   0.588
24516WAT      O73789   9.888   5.650   9.175
24516WAT     H173790   9.891   5.695   9.085
24516WAT     H273791   9.855   5.556   9.164
24517WAT      O73792   4.788   4.996   0.558
24517WAT     H173793   4.831   5.047   0.483
24517WAT     H273794   4.848   4.922   0.587
24518WAT      O73795   1.483   8.308   6.594
24518WAT     H173796   1.487   8.368   6.514
24518WAT     H273797   1.406   8.334   6.652
24519WAT      O73798   7.083   0.570   0.805
24519WAT     H173799   7.014   0.526   0.748
24519WAT     H273800   7.099   0.663   0.773
24520WAT      O73801   5.494   3.394   0.361
24520WAT     H173802   5.574   3.430   0.410
24520WAT     H273803   5.413   3.406   0.418
24521WAT      O73804   2.675   8.261   2.331
24521WAT     H173805   2.769   8.266   2.365
24521WAT     H273806   2.635   8.352   2.332
24522WAT      O73807   4.574   3.079   3.293
24522WAT     H173808   4.505   3.032   3.348
24522WAT     H273809   4.567   3.178   3.310
24523WAT      O73810   0.248   2.586   8.532
24523WAT     H173811   0.288   2.664   8.581
24523WAT     H273812   0.302   2.504   8.551
24524WAT      O73813   2.473   2.866   3.994
24524WAT     H173814   2.506   2.908   4.078
24524WAT     H273815   2.547   2.862   3.927
24525WAT      O73816   2.021   3.718   9.853
24525WAT     H173817   2.109   3.765   9.848
24525WAT     H273818   1.989   3.695   9.761
24526WAT      O73819   5.123   8.336   9.110
24526WAT     H173820   5.148   8.264   9.045
24526WAT     H273821   5.055   8.396   9.068
24527WAT      O73822   1.851   1.884   4.221
24527WAT     H173823   1.854   1.812   4.152
24527WAT     H273824   1.942   1.926   4.229
24528WAT      O73825   0.915   6.889   8.635
24528WAT     H173826   0.890   6.956   8.564
24528WAT     H273827   0.971   6.933   8.705
24529WAT      O73828   8.737   1.016   0.431
24529WAT     H173829   8.740   0.947   0.504
24529WAT     H273830   8.822   1.014   0.379
24530WAT      O73831   8.329   1.829   4.039
24530WAT     H173832   8.239   1.868   4.060
24530WAT     H273833   8.339   1.741   4.085
24531WAT      O73834   7.206   5.374   4.566
24531WAT     H173835   7.301   5.390   4.591
24531WAT     H273836   7.167   5.302   4.624
24532WAT      O73837   2.026   1.367   0.688
24532WAT     H173838   2.123   1.345   0.692
24532WAT     H273839   2.009   1.428   0.611
24533WAT      O73840   4.263   9.644   4.107
24533WAT     H173841   4.252   9.729   4.159
24533WAT     H273842   4.295   9.664   4.015
24534WAT      O73843   9.881   6.617   5.229
24534WAT     H173844   9.837   6.543   5.178
24534WAT     H273845   9.935   6.673   5.166
24535WAT      O73846   5.622   7.725   8.204
24535WAT     H173847   5.672   7.677   8.132
24535WAT     H273848   5.670   7.809   8.228
24536WAT      O73849   4.495   6.195   6.661
24536WAT     H173850   4.450   6.226   6.577
24536WAT     H273851   4.523   6.100   6.651
24537WAT      O73852   6.653   7.742   4.715
24537WAT     H173853   6.657   7.711   4.810
24537WAT     H273854   6.719   7.816   4.701
24538WAT      O73855   6.524   6.393   5.347
24538WAT     H173856   6.496   6.390   5.251
24538WAT     H273857   6.460   6.341   5.403
24539WAT      O73858   7.271   8.843   2.236
24539WAT     H173859   7.268   8.744   2.221
24539WAT     H273860   7.233   8.890   2.157
24540WAT      O73861   4.516   6.370   0.688
24540WAT     H173862   4.461   6.391   0.607
24540WAT     H273863   4.463   6.390   0.770
24541WAT      O73864   1.639   1.151   1.461
24541WAT     H173865   1.610   1.057   1.480
24541WAT     H273866   1.704   1.181   1.532
24542WAT      O73867   1.155   8.755   2.226
24542WAT     H173868   1.135   8.661   2.197
24542WAT     H273869   1.080   8.788   2.284
24543WAT      O73870   1.502   9.257   1.793
24543WAT     H173871   1.402   9.253   1.793
24543WAT     H273872   1.539   9.165   1.778
24544WAT      O73873   1.955   9.679   5.588
24544WAT     H173874   2.004   9.715   5.509
24544WAT     H273875   1.990   9.588   5.610
24545WAT      O73876   5.566   6.853   9.876
24545WAT     H173877   5.636   6.802   9.827
24545WAT     H273878   5.610   6.925   9.931
24546WAT      O73879   4.125   8.404   6.806
24546WAT     H173880   4.103   8.501   6.801
24546WAT     H273881   4.209   8.392   6.860
24547WAT      O73882   7.995   7.330   1.200
24547WAT     H173883   7.997   7.252   1.263
24547WAT     H273884   8.087   7.348   1.166
24548WAT      O73885   4.922   7.237   6.725
24548WAT     H173886   4.887   7.163   6.783
24548WAT     H273887   4.930   7.204   6.631
24549WAT      O73888   7.104   0.220   0.563
24549WAT     H173889   7.119   0.177   0.652
24549WAT     H273890   7.191   0.252   0.526
24550WAT      O73891   9.172   7.402   8.304
24550WAT     H173892   9.138   7.478   8.248
24550WAT     H273893   9.259   7.429   8.346
24551WAT      O73894   4.643   0.339   4.557
24551WAT     H173895   4.743   0.329   4.548
24551WAT     H273896   4.621   0.359   4.653
24552WAT      O73897   2.680   0.960   7.593
24552WAT     H173898   2.653   1.051   7.624
24552WAT     H273899   2.603   0.917   7.545
24553WAT      O73900   0.888   1.830   1.646
24553WAT     H173901   0.941   1.892   1.705
24553WAT     H273902   0.838   1.765   1.703
24554WAT      O73903   0.389   7.953   2.164
24554WAT     H173904   0.366   7.999   2.078
24554WAT     H273905   0.456   7.881   2.146
24555WAT      O73906   9.420   7.097   7.673
24555WAT     H173907   9.414   7.012   7.622
24555WAT     H273908   9.429   7.174   7.609
24556WAT      O73909   0.535   0.515   0.282
24556WAT     H173910   0.465   0.467   0.229
24556WAT     H273911   0.514   0.507   0.379
24557WAT      O73912   4.918   0.152   3.161
24557WAT     H173913   4.891   0.215   3.088
24557WAT     H273914   4.926   0.059   3.124
24558WAT      O73915   5.086   1.744   4.681
24558WAT     H173916   5.159   1.783   4.625
24558WAT     H273917   5.016   1.813   4.697
24559WAT      O73918   5.881   3.268   9.550
24559WAT     H173919   5.923   3.350   9.590
24559WAT     H273920   5.789   3.257   9.587
24560WAT      O73921   2.387   8.967   6.308
24560WAT     H173922   2.374   9.063   6.281
24560WAT     H273923   2.298   8.928   6.334
24561WAT      O73924   3.631   2.530   6.285
24561WAT     H173925   3.700   2.594   6.251
24561WAT     H273926   3.545   2.545   6.235
24562WAT      O73927   3.965   4.664   3.955
24562WAT     H173928   3.923   4.715   4.031
24562WAT     H273929   3.919   4.688   3.870
24563WAT      O73930   9.741   3.138   9.361
24563WAT     H173931   9.831   3.102   9.334
24563WAT     H273932   9.680   3.062   9.381
24564WAT      O73933   1.864   3.270   7.070
24564WAT     H173934   1.955   3.231   7.086
24564WAT     H273935   1.866   3.324   6.986
24565WAT      O73936   1.509   4.841   0.198
24565WAT     H173937   1.502   4.750   0.158
24565WAT     H273938   1.589   4.845   0.257
24566WAT      O73939   9.648   4.339   1.681
24566WAT     H173940   9.746   4.325   1.666
24566WAT     H273941   9.614   4.270   1.744
24567WAT      O73942   4.620   9.082   3.978
24567WAT     H173943   4.534   9.095   3.929
24567WAT     H273944   4.602   9.079   4.076
24568WAT      O73945   7.242   6.379   7.569
24568WAT     H173946   7.243   6.293   7.518
24568WAT     H273947   7.334   6.418   7.573
24569WAT      O73948   1.143   7.737   9.879
24569WAT     H173949   1.112   7.712   9.971
24569WAT     H273950   1.196   7.822   9.884
24570WAT      O73951   0.245   8.593   3.181
24570WAT     H173952   0.337   8.590   3.143
24570WAT     H273953   0.202   8.503   3.172
24571WAT      O73954   0.544   7.489   2.901
24571WAT     H173955   0.635   7.503   2.940
24571WAT     H273956   0.514   7.396   2.919
24572WAT      O73957   9.660   7.756   4.655
24572WAT     H173958   9.753   7.722   4.670
24572WAT     H273959   9.658   7.816   4.576
24573WAT      O73960   9.165   2.800   7.593
24573WAT     H173961   9.188   2.895   7.613
24573WAT     H273962   9.152   2.750   7.678
24574WAT      O73963   6.110   3.984   6.810
24574WAT     H173964   6.099   4.058   6.745
24574WAT     H273965   6.100   3.896   6.764
24575WAT      O73966   1.767   4.766   8.569
24575WAT     H173967   1.760   4.821   8.486
24575WAT     H273968   1.675   4.738   8.597
24576WAT      O73969   3.438   7.129   0.050
24576WAT     H173970   3.385   7.054   0.088
24576WAT     H273971   3.437   7.207   0.114
24577WAT      O73972   2.510   3.497   0.127
24577WAT     H173973   2.522   3.576   0.187
24577WAT     H273974   2.599   3.471   0.089
24578WAT      O73975   7.550   9.143   0.160
24578WAT     H173976   7.531   9.090   0.077
24578WAT     H273977   7.498   9.104   0.236
24579WAT      O73978   8.870   4.590   3.842
24579WAT     H173979   8.916   4.617   3.758
24579WAT     H273980   8.780   4.633   3.846
24580WAT      O73981   7.978   6.204   2.205
24580WAT     H173982   8.003   6.111   2.177
24580WAT     H273983   7.999   6.267   2.130
24581WAT      O73984   7.797   5.784   3.321
24581WAT     H173985   7.871   5.759   3.257
24581WAT     H273986   7.836   5.834   3.399
24582WAT      O73987   7.996   5.002   3.361
24582WAT     H173988   7.956   5.062   3.292
24582WAT     H273989   7.943   5.007   3.445
24583WAT      O73990   1.800   9.729   6.147
24583WAT     H173991   1.896   9.729   6.120
24583WAT     H273992   1.785   9.803   6.213
24584WAT      O73993   1.365   1.963   2.897
24584WAT     H173994   1.381   1.878   2.847
24584WAT     H273995   1.351   2.037   2.831
24585WAT      O73996   5.176   4.721   1.157
24585WAT     H173997   5.082   4.711   1.125
24585WAT     H273998   5.178   4.721   1.257
24586WAT      O73999   1.949   7.750   6.166
24586WAT     H174000   2.003   7.816   6.113
24586WAT     H274001   1.868   7.796   6.203
24587WAT      O74002   5.739   2.344   7.637
24587WAT     H174003   5.833   2.355   7.671
24587WAT     H274004   5.739   2.341   7.538
24588WAT      O74005   8.965   4.665   8.559
24588WAT     H174006   9.000   4.602   8.490
24588WAT     H274007   9.017   4.751   8.556
24589WAT      O74008   7.873   0.018   0.380
24589WAT     H174009   7.938   0.079   0.334
24589WAT     H274010   7.839  -0.049   0.314
24590WAT      O74011   8.885   1.268   7.274
24590WAT     H174012   8.973   1.289   7.316
24590WAT     H274013   8.831   1.211   7.337
24591WAT      O74014   3.322   0.989   0.315
24591WAT     H174015   3.345   1.078   0.354
24591WAT     H274016   3.384   0.969   0.239
24592WAT      O74017   4.265   6.544   6.876
24592WAT     H174018   4.275   6.585   6.785
24592WAT     H274019   4.179   6.574   6.917
24593WAT      O74020   0.484   7.650   2.646
24593WAT     H174021   0.501   7.578   2.713
24593WAT     H274022   0.570   7.675   2.601
24594WAT      O74023   7.801   8.908   5.143
24594WAT     H174024   7.773   8.839   5.076
24594WAT     H274025   7.866   8.868   5.207
24595WAT      O74026   7.580   1.255   5.011
24595WAT     H174027   7.615   1.338   4.968
24595WAT     H274028   7.656   1.194   5.032
24596WAT      O74029   0.149   1.839   4.512
24596WAT     H174030   0.134   1.839   4.611
24596WAT     H274031   0.065   1.866   4.465
24597WAT      O74032   6.621   2.432   3.572
24597WAT     H174033   6.631   2.527   3.546
24597WAT     H274034   6.535   2.396   3.534
24598WAT      O74035   2.409   8.599   8.968
24598WAT     H174036   2.315   8.630   8.984
24598WAT     H274037   2.411   8.499   8.965
24599WAT      O74038   5.198   4.732   6.085
24599WAT     H174039   5.252   4.794   6.142
24599WAT     H274040   5.228   4.638   6.101
24600WAT      O74041   4.825   9.261   4.102
24600WAT     H174042   4.758   9.214   4.044
24600WAT     H274043   4.827   9.218   4.192
24601WAT      O74044   7.944   5.020   7.017
24601WAT     H174045   7.878   4.957   7.059
24601WAT     H274046   7.968   5.091   7.083
24602WAT      O74047   9.289   7.341   9.359
24602WAT     H174048   9.246   7.357   9.448
24602WAT     H274049   9.352   7.263   9.366
24603WAT      O74050   0.734   0.938   1.624
24603WAT     H174051   0.806   0.885   1.670
24603WAT     H274052   0.647   0.922   1.670
24604WAT      O74053   6.348   2.943   7.063
24604WAT     H174054   6.312   3.031   7.094
24604WAT     H274055   6.416   2.910   7.128
24605WAT      O74056   6.193   1.064   2.598
24605WAT     H174057   6.247   1.147   2.614
24605WAT     H274058   6.254   0.985   2.591
24606WAT      O74059   6.046   7.498   8.940
24606WAT     H174060   6.015   7.592   8.951
24606WAT     H274061   6.070   7.460   9.029
24607WAT      O74062   3.635   8.628   2.832
24607WAT     H174063   3.654   8.585   2.920
24607WAT     H274064   3.545   8.671   2.835
24608WAT      O74065   7.840   6.679   7.458
24608WAT     H174066   7.843   6.579   7.448
24608WAT     H274067   7.751   6.713   7.427
24609WAT      O74068   4.067   2.969   9.391
24609WAT     H174069   4.067   3.067   9.412
24609WAT     H274070   4.122   2.920   9.459
24610WAT      O74071   4.212   8.454   5.549
24610WAT     H174072   4.298   8.479   5.594
24610WAT     H274073   4.226   8.375   5.490
24611WAT      O74074   9.760   4.444   3.313
24611WAT     H174075   9.700   4.365   3.298
24611WAT     H274076   9.800   4.472   3.226
24612WAT      O74077   6.050   1.491   3.571
24612WAT     H174078   6.019   1.495   3.666
24612WAT     H274079   5.970   1.489   3.510
24613WAT      O74080   4.423   7.637   2.116
24613WAT     H174081   4.343   7.583   2.142
24613WAT     H274082   4.471   7.668   2.198
24614WAT      O74083   6.332   8.707   1.252
24614WAT     H174084   6.338   8.763   1.169
24614WAT     H274085   6.279   8.756   1.321
24615WAT      O74086   8.990   7.611   1.626
24615WAT     H174087   8.974   7.708   1.612
24615WAT     H274088   8.917   7.558   1.582
24616WAT      O74089   7.410   3.091   7.449
24616WAT     H174090   7.333   3.069   7.389
24616WAT     H274091   7.438   3.186   7.434
24617WAT      O74092   6.314   7.515   0.250
24617WAT     H174093   6.294   7.469   0.337
24617WAT     H274094   6.412   7.529   0.241
24618WAT      O74095   5.116   7.081   6.255
24618WAT     H174096   5.045   7.126   6.201
24618WAT     H274097   5.177   7.030   6.195
24619WAT      O74098   4.851   1.082   2.234
24619WAT     H174099   4.887   1.001   2.189
24619WAT     H274100   4.895   1.092   2.323
24620WAT      O74101   7.814   1.445   8.555
24620WAT     H174102   7.846   1.490   8.638
24620WAT     H274103   7.842   1.350   8.555
24621WAT      O74104   6.327   1.620   1.325
24621WAT     H174105   6.262   1.686   1.363
24621WAT     H274106   6.293   1.586   1.237
24622WAT      O74107   5.435   8.844   9.545
24622WAT     H174108   5.370   8.835   9.620
24622WAT     H274109   5.396   8.804   9.462
24623WAT      O74110   4.105   5.800   4.062
24623WAT     H174111   4.017   5.752   4.059
24623WAT     H274112   4.173   5.748   4.010
24624WAT      O74113   6.612   1.209   4.428
24624WAT     H174114   6.603   1.174   4.335
24624WAT     H274115   6.530   1.186   4.480
24625WAT      O74116   6.073   6.622   5.835
24625WAT     H174117   6.136   6.547   5.814
24625WAT     H274118   6.075   6.688   5.760
24626WAT      O74119   0.377   8.119   6.139
24626WAT     H174120   0.295   8.166   6.107
24626WAT     H274121   0.434   8.183   6.189
24627WAT      O74122   1.634   6.292   1.569
24627WAT     H174123   1.587   6.273   1.655
24627WAT     H274124   1.567   6.313   1.498
24628WAT      O74125   4.378   3.942   9.477
24628WAT     H174126   4.387   3.976   9.383
24628WAT     H274127   4.292   3.891   9.486
24629WAT      O74128   5.890   9.250   4.107
24629WAT     H174129   5.943   9.325   4.069
24629WAT     H274130   5.924   9.163   4.070
24630WAT      O74131   8.211   7.571   1.305
24630WAT     H174132   8.237   7.532   1.393
24630WAT     H274133   8.134   7.634   1.317
24631WAT      O74134   8.774   2.187   2.479
24631WAT     H174135   8.818   2.104   2.445
24631WAT     H274136   8.780   2.258   2.410
24632WAT      O74137   3.689   3.644   8.982
24632WAT     H174138   3.740   3.684   9.058
24632WAT     H274139   3.646   3.559   9.012
24633WAT      O74140   0.420   1.643   3.834
24633WAT     H174141   0.519   1.631   3.843
24633WAT     H274142   0.381   1.562   3.789
24634WAT      O74143   7.281   6.902   9.616
24634WAT     H174144   7.239   6.891   9.526
24634WAT     H274145   7.212   6.935   9.681
24635WAT      O74146   6.872   0.392   1.527
24635WAT     H174147   6.822   0.345   1.599
24635WAT     H274148   6.859   0.344   1.440
24636WAT      O74149   5.234   6.416   0.479
24636WAT     H174150   5.221   6.441   0.575
24636WAT     H274151   5.147   6.387   0.440
24637WAT      O74152   4.345   5.963   7.528
24637WAT     H174153   4.396   5.985   7.445
24637WAT     H274154   4.247   5.971   7.509
24638WAT      O74155   9.801   4.251   7.010
24638WAT     H174156   9.842   4.320   7.070
24638WAT     H274157   9.727   4.293   6.957
24639WAT      O74158   7.593   5.080   3.741
24639WAT     H174159   7.636   4.990   3.735
24639WAT     H274160   7.662   5.151   3.728
24640WAT      O74161   2.156   3.093   7.417
24640WAT     H174162   2.068   3.066   7.457
24640WAT     H274163   2.228   3.083   7.486
24641WAT      O74164   7.632   1.804   4.375
24641WAT     H174165   7.538   1.790   4.406
24641WAT     H274166   7.694   1.747   4.429
24642WAT      O74167   6.195   8.323   8.031
24642WAT     H174168   6.096   8.309   8.031
24642WAT     H274169   6.220   8.379   7.952
24643WAT      O74170   5.103   0.669   6.682
24643WAT     H174171   5.076   0.622   6.766
24643WAT     H274172   5.113   0.766   6.700
24644WAT      O74173   6.704   2.019   3.003
24644WAT     H174174   6.775   2.022   3.073
24644WAT     H274175   6.714   2.097   2.941
24645WAT      O74176   4.036   2.616   0.974
24645WAT     H174177   3.970   2.687   0.950
24645WAT     H274178   4.085   2.643   1.057
24646WAT      O74179   7.982   3.004   2.966
24646WAT     H174180   7.915   2.967   3.030
24646WAT     H274181   8.065   3.030   3.015
24647WAT      O74182   3.506   3.523   0.275
24647WAT     H174183   3.480   3.497   0.368
24647WAT     H274184   3.459   3.607   0.248
24648WAT      O74185   1.886   6.594   2.698
24648WAT     H174186   1.972   6.568   2.654
24648WAT     H274187   1.904   6.636   2.787
24649WAT      O74188   4.313   4.318   0.582
24649WAT     H174189   4.298   4.405   0.628
24649WAT     H274190   4.355   4.335   0.493
24650WAT      O74191   7.577   1.484   1.627
24650WAT     H174192   7.512   1.409   1.638
24650WAT     H274193   7.527   1.568   1.605
24651WAT      O74194   8.613   6.602   8.186
24651WAT     H174195   8.709   6.611   8.212
24651WAT     H274196   8.606   6.600   8.086
24652WAT      O74197   6.385   0.451   8.540
24652WAT     H174198   6.441   0.525   8.578
24652WAT     H274199   6.397   0.447   8.441
24653WAT      O74200   2.982   4.236   2.264
24653WAT     H174201   3.016   4.319   2.221
24653WAT     H274202   3.024   4.224   2.354
24654WAT      O74203   2.066   5.922   0.796
24654WAT     H174204   2.139   5.856   0.804
24654WAT     H274205   2.104   6.012   0.776
24655WAT      O74206   0.129   1.941   2.548
24655WAT     H174207   0.204   1.934   2.615
24655WAT     H274208   0.151   2.013   2.482
24656WAT      O74209   3.858   2.577   0.170
24656WAT     H174210   3.863   2.616   0.078
24656WAT     H274211   3.927   2.621   0.228
24657WAT      O74212   7.356   6.355   7.177
24657WAT     H174213   7.433   6.412   7.148
24657WAT     H274214   7.279   6.414   7.201
24658WAT      O74215   6.092   5.638   0.705
24658WAT     H174216   6.026   5.569   0.674
24658WAT     H274217   6.175   5.592   0.738
24659WAT      O74218   1.718   4.265   8.880
24659WAT     H174219   1.711   4.182   8.825
24659WAT     H274220   1.640   4.325   8.860
24660WAT      O74221   2.676   9.296   2.634
24660WAT     H174222   2.580   9.317   2.612
24660WAT     H274223   2.728   9.287   2.550
24661WAT      O74224   6.905   7.518   7.555
24661WAT     H174225   6.933   7.591   7.618
24661WAT     H274226   6.985   7.478   7.512
24662WAT      O74227   9.142   6.636   4.605
24662WAT     H174228   9.091   6.569   4.551
24662WAT     H274229   9.101   6.642   4.696
24663WAT      O74230   5.889   8.171   3.755
24663WAT     H174231   5.833   8.088   3.754
24663WAT     H274232   5.955   8.168   3.680
24664WAT      O74233   5.993   8.070   7.090
24664WAT     H174234   6.032   8.056   6.999
24664WAT     H274235   5.972   8.167   7.103
24665WAT      O74236   9.664   1.146   0.082
24665WAT     H174237   9.760   1.150   0.056
24665WAT     H274238   9.646   1.211   0.156
24666WAT      O74239   0.255   9.313   3.471
24666WAT     H174240   0.355   9.303   3.468
24666WAT     H274241   0.213   9.248   3.408
24667WAT      O74242   0.273   5.842   2.299
24667WAT     H174243   0.312   5.914   2.243
24667WAT     H274244   0.200   5.796   2.249
24668WAT      O74245   2.477   4.421   3.328
24668WAT     H174246   2.436   4.513   3.326
24668WAT     H274247   2.408   4.353   3.303
24669WAT      O74248   5.963   8.536   1.548
24669WAT     H174249   5.971   8.451   1.599
24669WAT     H274250   6.012   8.528   1.461
24670WAT      O74251   4.531   0.556   5.710
24670WAT     H174252   4.458   0.530   5.772
24670WAT     H274253   4.620   0.530   5.749
24671WAT      O74254   2.975   6.888   9.184
24671WAT     H174255   3.043   6.959   9.200
24671WAT     H274256   3.015   6.815   9.129
24672WAT      O74257   3.783   0.115   9.222
24672WAT     H174258   3.752   0.191   9.279
24672WAT     H274259   3.841   0.150   9.149
24673WAT      O74260   6.636   2.389   1.299
24673WAT     H174261   6.575   2.319   1.262
24673WAT     H274262   6.583   2.457   1.350
24674WAT      O74263   5.521   4.185   4.197
24674WAT     H174264   5.469   4.270   4.207
24674WAT     H274265   5.543   4.149   4.287
24675WAT      O74266   2.146   5.392   8.041
24675WAT     H174267   2.172   5.376   8.136
24675WAT     H274268   2.096   5.478   8.035
24676WAT      O74269   6.534   9.358   4.061
24676WAT     H174270   6.585   9.321   4.138
24676WAT     H274271   6.523   9.288   3.991
24677WAT      O74272   1.241   7.028   6.324
24677WAT     H174273   1.231   6.929   6.308
24677WAT     H274274   1.337   7.048   6.342
24678WAT      O74275   3.051   3.108   5.914
24678WAT     H174276   3.109   3.185   5.885
24678WAT     H274277   2.977   3.142   5.973
24679WAT      O74278   2.881   2.428   4.477
24679WAT     H174279   2.949   2.452   4.546
24679WAT     H274280   2.928   2.407   4.391
24680WAT      O74281   4.889   9.735   6.864
24680WAT     H174282   4.820   9.679   6.910
24680WAT     H274283   4.976   9.687   6.865
24681WAT      O74284   7.158   7.284   2.606
24681WAT     H174285   7.207   7.198   2.593
24681WAT     H274286   7.170   7.342   2.527
24682WAT      O74287   0.677   8.168   1.417
24682WAT     H174288   0.658   8.127   1.328
24682WAT     H274289   0.715   8.098   1.478
24683WAT      O74290   7.824   7.802   7.353
24683WAT     H174291   7.848   7.889   7.394
24683WAT     H274292   7.729   7.805   7.322
24684WAT      O74293   7.011   7.697   6.347
24684WAT     H174294   6.997   7.708   6.446
24684WAT     H274295   7.079   7.763   6.316
24685WAT      O74296   3.605   2.631   8.866
24685WAT     H174297   3.703   2.614   8.874
24685WAT     H274298   3.566   2.569   8.798
24686WAT      O74299   4.419   1.446   7.353
24686WAT     H174300   4.397   1.351   7.329
24686WAT     H274301   4.514   1.451   7.385
24687WAT      O74302   9.854   3.751   0.053
24687WAT     H174303   9.775   3.722  -0.001
24687WAT     H274304   9.878   3.845   0.028
24688WAT      O74305   9.150   2.654   5.322
24688WAT     H174306   9.069   2.674   5.378
24688WAT     H274307   9.153   2.555   5.303
24689WAT      O74308   2.008   7.175   1.939
24689WAT     H174309   1.961   7.134   2.017
24689WAT     H274310   2.025   7.105   1.870
24690WAT      O74311   0.904   2.869   5.855
24690WAT     H174312   0.907   2.778   5.812
24690WAT     H274313   0.825   2.919   5.820
24691WAT      O74314   3.522   6.926   5.014
24691WAT     H174315   3.493   6.842   4.969
24691WAT     H274316   3.614   6.951   4.985
24692WAT      O74317   1.340   8.185   8.174
24692WAT     H174318   1.438   8.199   8.161
24692WAT     H274319   1.324   8.142   8.263
24693WAT      O74320   1.724   7.557   8.972
24693WAT     H174321   1.632   7.592   8.990
24693WAT     H274322   1.780   7.630   8.931
24694WAT      O74323   4.884   7.488   6.833
24694WAT     H174324   4.895   7.409   6.774
24694WAT     H274325   4.788   7.517   6.832
24695WAT      O74326   4.537   2.065   8.106
24695WAT     H174327   4.570   1.989   8.163
24695WAT     H274328   4.612   2.098   8.049
24696WAT      O74329   0.757   1.686   1.854
24696WAT     H174330   0.728   1.641   1.939
24696WAT     H274331   0.701   1.653   1.778
24697WAT      O74332   7.936   7.314   3.172
24697WAT     H174333   7.991   7.394   3.198
24697WAT     H274334   7.996   7.243   3.135
24698WAT      O74335   6.872   1.534   7.462
24698WAT     H174336   6.957   1.497   7.499
24698WAT     H274337   6.798   1.523   7.529
24699WAT      O74338   1.265   4.621   0.465
24699WAT     H174339   1.344   4.596   0.408
24699WAT     H274340   1.195   4.663   0.408
24700WAT      O74341   7.798   6.975   3.385
24700WAT     H174342   7.786   6.986   3.287
24700WAT     H274343   7.728   6.913   3.421
24701WAT      O74344   1.188   1.939   1.801
24701WAT     H174345   1.192   1.862   1.738
24701WAT     H274346   1.228   1.912   1.889
24702WAT      O74347   2.005   2.273   4.040
24702WAT     H174348   1.983   2.190   3.988
24702WAT     H274349   2.014   2.350   3.977
24703WAT      O74350   7.389   6.738   0.510
24703WAT     H174351   7.489   6.743   0.506
24703WAT     H274352   7.353   6.711   0.421
24704WAT      O74353   2.143   6.424   5.955
24704WAT     H174354   2.044   6.436   5.941
24704WAT     H274355   2.169   6.463   6.043
24705WAT      O74356   8.207   6.981   5.986
24705WAT     H174357   8.260   6.962   5.904
24705WAT     H274358   8.267   6.981   6.066
24706WAT      O74359   4.344   7.360   2.911
24706WAT     H174360   4.392   7.442   2.942
24706WAT     H274361   4.405   7.282   2.915
24707WAT      O74362   7.544   0.217   4.121
24707WAT     H174363   7.604   0.238   4.199
24707WAT     H274364   7.483   0.294   4.104
24708WAT      O74365   1.464   7.788   5.313
24708WAT     H174366   1.423   7.754   5.398
24708WAT     H274367   1.443   7.725   5.238
24709WAT      O74368   6.236   3.173   7.116
24709WAT     H174369   6.172   3.179   7.039
24709WAT     H274370   6.204   3.230   7.191
24710WAT      O74371   0.447   7.571   9.499
24710WAT     H174372   0.457   7.488   9.554
24710WAT     H274373   0.352   7.579   9.468
24711WAT      O74374   2.603   9.638   8.372
24711WAT     H174375   2.618   9.717   8.313
24711WAT     H274376   2.663   9.563   8.344
24712WAT      O74377   7.738   7.822   1.461
24712WAT     H174378   7.706   7.822   1.367
24712WAT     H274379   7.721   7.732   1.502
24713WAT      O74380   7.874   7.599   2.288
24713WAT     H174381   7.913   7.543   2.214
24713WAT     H274382   7.775   7.585   2.292
24714WAT      O74383   7.743   8.353   7.541
24714WAT     H174384   7.687   8.366   7.459
24714WAT     H274385   7.808   8.279   7.525
24715WAT      O74386   2.817   6.966   4.365
24715WAT     H174387   2.825   7.040   4.298
24715WAT     H274388   2.722   6.936   4.371
24716WAT      O74389   9.402   4.001   2.918
24716WAT     H174390   9.421   4.031   2.825
24716WAT     H274391   9.411   3.901   2.923
24717WAT      O74392   8.885   7.399   4.044
24717WAT     H174393   8.885   7.384   4.143
24717WAT     H274394   8.794   7.380   4.007
24718WAT      O74395   9.807   5.131   4.218
24718WAT     H174396   9.794   5.081   4.303
24718WAT     H274397   9.739   5.204   4.211
24719WAT      O74398   4.417   6.304   6.442
24719WAT     H174399   4.485   6.290   6.369
24719WAT     H274400   4.413   6.401   6.466
24720WAT      O74401   2.552   8.993   0.780
24720WAT     H174402   2.494   9.031   0.707
24720WAT     H274403   2.630   8.945   0.739
24721WAT      O74404   1.923   7.322   0.994
24721WAT     H174405   1.837   7.367   1.015
24721WAT     H274406   1.998   7.388   0.998
24722WAT      O74407   4.681   3.534   3.980
24722WAT     H174408   4.620   3.611   4.002
24722WAT     H274409   4.759   3.567   3.927
24723WAT      O74410   7.555   3.735   0.177
24723WAT     H174411   7.544   3.773   0.269
24723WAT     H274412   7.576   3.809   0.113
24724WAT      O74413   6.787   0.844   0.731
24724WAT     H174414   6.756   0.786   0.655
24724WAT     H274415   6.723   0.835   0.808
24725WAT      O74416   2.658   2.581   9.022
24725WAT     H174417   2.643   2.532   9.109
24725WAT     H274418   2.576   2.634   8.999
24726WAT      O74419   6.464   1.444   0.366
24726WAT     H174420   6.452   1.400   0.277
24726WAT     H274421   6.411   1.528   0.370
24727WAT      O74422   8.101   5.776   3.500
24727WAT     H174423   8.168   5.717   3.455
24727WAT     H274424   8.135   5.870   3.501
24728WAT      O74425   6.160   6.816   1.662
24728WAT     H174426   6.133   6.784   1.753
24728WAT     H274427   6.256   6.842   1.663
24729WAT      O74428   6.100   7.822   1.909
24729WAT     H174429   6.188   7.865   1.891
24729WAT     H274430   6.032   7.893   1.930
24730WAT      O74431   6.164   7.423   3.734
24730WAT     H174432   6.158   7.377   3.823
24730WAT     H274433   6.072   7.442   3.700
24731WAT      O74434   1.458   4.804   2.401
24731WAT     H174435   1.417   4.885   2.444
24731WAT     H274436   1.524   4.833   2.331
24732WAT      O74437   2.039   7.581   7.381
24732WAT     H174438   1.992   7.534   7.456
24732WAT     H274439   2.030   7.526   7.297
24733WAT      O74440   1.657   7.826   2.161
24733WAT     H174441   1.662   7.913   2.111
24733WAT     H274442   1.683   7.751   2.101
24734WAT      O74443   7.830   5.863   5.947
24734WAT     H174444   7.777   5.782   5.971
24734WAT     H274445   7.825   5.930   6.021
24735WAT      O74446   3.316   3.435   9.202
24735WAT     H174447   3.383   3.375   9.244
24735WAT     H274448   3.241   3.380   9.164
24736WAT      O74449   2.264   2.881   3.696
24736WAT     H174450   2.331   2.856   3.625
24736WAT     H274451   2.303   2.953   3.754
24737WAT      O74452   0.216   8.566   4.510
24737WAT     H174453   0.164   8.497   4.560
24737WAT     H274454   0.301   8.525   4.476
24738WAT      O74455   9.141   0.949   2.882
24738WAT     H174456   9.059   0.917   2.835
24738WAT     H274457   9.120   1.031   2.935
24739WAT      O74458   4.936   5.593   3.393
24739WAT     H174459   4.986   5.552   3.317
24739WAT     H274460   4.935   5.531   3.471
24740WAT      O74461   0.081   7.672   4.558
24740WAT     H174462   0.047   7.642   4.469
24740WAT     H274463   0.158   7.615   4.585
24741WAT      O74464   5.145   7.523   1.045
24741WAT     H174465   5.057   7.570   1.038
24741WAT     H274466   5.208   7.561   0.976
24742WAT      O74467   9.449   2.431   4.496
24742WAT     H174468   9.379   2.445   4.567
24742WAT     H274469   9.534   2.399   4.538
24743WAT      O74470   4.111   7.090   7.659
24743WAT     H174471   4.185   7.127   7.715
24743WAT     H274472   4.132   7.104   7.563
24744WAT      O74473   7.438   5.410   9.516
24744WAT     H174474   7.490   5.479   9.566
24744WAT     H274475   7.389   5.454   9.440
24745WAT      O74476   7.809   5.779   0.195
24745WAT     H174477   7.769   5.793   0.286
24745WAT     H274478   7.811   5.866   0.146
24746WAT      O74479   8.376   0.396   6.022
24746WAT     H174480   8.426   0.390   6.108
24746WAT     H274481   8.278   0.388   6.039
24747WAT      O74482   8.101   2.807   7.585
24747WAT     H174483   8.084   2.717   7.545
24747WAT     H274484   8.084   2.804   7.684
24748WAT      O74485   2.998   4.242   8.332
24748WAT     H174486   3.045   4.330   8.327
24748WAT     H274487   2.910   4.249   8.286
24749WAT      O74488   9.564   3.237   4.250
24749WAT     H174489   9.657   3.200   4.252
24749WAT     H274490   9.504   3.178   4.304
24750WAT      O74491   8.785   0.940   1.922
24750WAT     H174492   8.806   0.862   1.863
24750WAT     H274493   8.867   0.997   1.931
24751WAT      O74494   9.320   9.653   3.678
24751WAT     H174495   9.396   9.632   3.617
24751WAT     H274496   9.297   9.750   3.671
24752WAT      O74497   0.015   7.129   9.337
24752WAT     H174498   0.001   7.187   9.257
24752WAT     H274499   0.053   7.041   9.309
24753WAT      O74500   1.037   9.231   0.240
24753WAT     H174501   1.007   9.279   0.322
24753WAT     H274502   1.092   9.293   0.183
24754WAT      O74503   9.044   8.873   1.106
24754WAT     H174504   9.073   8.827   1.189
24754WAT     H274505   9.124   8.907   1.056
24755WAT      O74506   8.588   6.754   5.126
24755WAT     H174507   8.578   6.694   5.047
24755WAT     H274508   8.500   6.763   5.173
24756WAT      O74509   4.763   1.497   9.424
24756WAT     H174510   4.796   1.403   9.413
24756WAT     H274511   4.838   1.555   9.456
24757WAT      O74512   1.221   2.967   9.216
24757WAT     H174513   1.313   2.942   9.245
24757WAT     H274514   1.156   2.946   9.289
24758WAT      O74515   3.112   7.575   8.632
24758WAT     H174516   3.072   7.664   8.658
24758WAT     H274517   3.178   7.588   8.558
24759WAT      O74518   5.909   9.781   3.387
24759WAT     H174519   5.994   9.821   3.352
24759WAT     H274520   5.848   9.760   3.311
24760WAT      O74521   0.191   3.466   6.827
24760WAT     H174522   0.162   3.374   6.803
24760WAT     H274523   0.173   3.528   6.750
24761WAT      O74524   5.658   7.868   7.134
24761WAT     H174525   5.637   7.834   7.042
24761WAT     H274526   5.753   7.844   7.157
24762WAT      O74527   1.400   8.617   6.664
24762WAT     H174528   1.377   8.527   6.701
24762WAT     H274529   1.392   8.686   6.737
24763WAT      O74530   6.860   2.136   3.203
24763WAT     H174531   6.878   2.078   3.283
24763WAT     H274532   6.934   2.124   3.136
24764WAT      O74533   8.012   5.261   7.194
24764WAT     H174534   8.012   5.320   7.114
24764WAT     H274535   8.106   5.236   7.217
24765WAT      O74536   8.862   9.338   7.552
24765WAT     H174537   8.800   9.416   7.543
24765WAT     H274538   8.830   9.278   7.624
24766WAT      O74539   9.074   5.557   1.134
24766WAT     H174540   9.032   5.477   1.178
24766WAT     H274541   9.107   5.619   1.205
24767WAT      O74542   6.762   6.935   4.942
24767WAT     H174543   6.814   6.891   4.869
24767WAT     H274544   6.738   6.866   5.011
24768WAT      O74545   0.703   4.435   2.949
24768WAT     H174546   0.791   4.483   2.951
24768WAT     H274547   0.635   4.489   2.999
24769WAT      O74548   9.829   0.062   0.432
24769WAT     H174549   9.884   0.145   0.416
24769WAT     H274550   9.857  -0.009   0.367
24770WAT      O74551   1.056   4.567   6.145
24770WAT     H174552   1.132   4.631   6.130
24770WAT     H274553   0.982   4.589   6.082
24771WAT      O74554   4.760   8.379   6.184
24771WAT     H174555   4.706   8.352   6.105
24771WAT     H274556   4.699   8.392   6.263
24772WAT      O74557   5.522   1.438   7.089
24772WAT     H174558   5.507   1.360   7.028
24772WAT     H274559   5.493   1.522   7.043
24773WAT      O74560   0.161   6.546   1.745
24773WAT     H174561   0.243   6.587   1.704
24773WAT     H274562   0.126   6.606   1.817
24774WAT      O74563   9.093   4.967   2.058
24774WAT     H174564   9.094   4.902   2.134
24774WAT     H274565   9.046   4.926   1.980
24775WAT      O74566   1.313   4.618   1.990
24775WAT     H174567   1.216   4.625   1.967
24775WAT     H274568   1.323   4.591   2.085
24776WAT      O74569   5.855   2.909   1.379
24776WAT     H174570   5.766   2.926   1.422
24776WAT     H274571   5.842   2.862   1.292
24777WAT      O74572   2.544   9.459   1.588
24777WAT     H174573   2.579   9.399   1.516
24777WAT     H274574   2.507   9.542   1.547
24778WAT      O74575   0.911   5.876   3.409
24778WAT     H174576   0.980   5.830   3.353
24778WAT     H274577   0.880   5.814   3.481
24779WAT      O74578   3.676   3.784   9.238
24779WAT     H174579   3.688   3.879   9.209
24779WAT     H274580   3.580   3.759   9.230
24780WAT      O74581   3.042   6.005   3.976
24780WAT     H174582   3.085   6.070   3.913
24780WAT     H274583   3.031   5.917   3.930
24781WAT      O74584   3.636   4.103   9.142
24781WAT     H174585   3.552   4.085   9.091
24781WAT     H274586   3.617   4.166   9.217
24782WAT      O74587   6.924   2.089   3.914
24782WAT     H174588   6.919   2.046   4.004
24782WAT     H274589   6.855   2.162   3.908
24783WAT      O74590   1.109   8.373   4.501
24783WAT     H174591   1.124   8.282   4.462
24783WAT     H274592   1.166   8.385   4.582
24784WAT      O74593   7.169   6.950   6.216
24784WAT     H174594   7.161   6.989   6.308
24784WAT     H274595   7.080   6.918   6.185
24785WAT      O74596   8.030   5.984   2.610
24785WAT     H174597   8.087   6.066   2.603
24785WAT     H274598   8.052   5.936   2.695
24786WAT      O74599   6.503   8.198   4.295
24786WAT     H174600   6.520   8.114   4.346
24786WAT     H274601   6.405   8.209   4.279
24787WAT      O74602   4.985   1.759   7.091
24787WAT     H174603   4.928   1.764   7.172
24787WAT     H274604   5.007   1.663   7.071
24788WAT      O74605   6.432   0.230   6.893
24788WAT     H174606   6.370   0.286   6.840
24788WAT     H274607   6.387   0.144   6.918
24789WAT      O74608   2.211   7.968   3.060
24789WAT     H174609   2.125   8.010   3.089
24789WAT     H274610   2.287   8.022   3.095
24790WAT      O74611   0.019   3.668   4.951
24790WAT     H174612  -0.061   3.699   5.004
24790WAT     H274613   0.023   3.718   4.865
24791WAT      O74614   0.344   2.457   9.241
24791WAT     H174615   0.367   2.538   9.187
24791WAT     H274616   0.344   2.376   9.182
24792WAT      O74617   0.929   2.952   0.435
24792WAT     H174618   1.022   2.976   0.406
24792WAT     H274619   0.912   2.855   0.417
24793WAT      O74620   7.926   1.718   6.079
24793WAT     H174621   7.877   1.788   6.027
24793WAT     H274622   8.024   1.734   6.072
24794WAT      O74623   4.166   6.647   2.943
24794WAT     H174624   4.091   6.662   3.008
24794WAT     H274625   4.131   6.655   2.850
24795WAT      O74626   3.463   7.021   4.548
24795WAT     H174627   3.493   7.080   4.473
24795WAT     H274628   3.367   7.039   4.569
24796WAT      O74629   2.765   8.413   6.151
24796WAT     H174630   2.698   8.488   6.148
24796WAT     H274631   2.857   8.451   6.164
24797WAT      O74632   5.340   9.089   0.847
24797WAT     H174633   5.311   9.118   0.938
24797WAT     H274634   5.329   9.165   0.782
24798WAT      O74635   3.305   6.222   0.797
24798WAT     H174636   3.228   6.192   0.853
24798WAT     H274637   3.351   6.142   0.758
24799WAT      O74638   3.488   3.461   0.013
24799WAT     H174639   3.516   3.492   0.104
24799WAT     H274640   3.473   3.362   0.015
24800WAT      O74641   3.719   7.318   1.615
24800WAT     H174642   3.752   7.224   1.623
24800WAT     H274643   3.773   7.378   1.674
24801WAT      O74644   6.080   9.157   6.781
24801WAT     H174645   6.125   9.150   6.692
24801WAT     H274646   5.989   9.197   6.768
24802WAT      O74647   2.626   2.081   0.640
24802WAT     H174648   2.700   2.029   0.598
24802WAT     H274649   2.664   2.142   0.710
24803WAT      O74650   0.969   2.434   7.847
24803WAT     H174651   0.950   2.356   7.787
24803WAT     H274652   0.989   2.401   7.939
24804WAT      O74653   9.595   6.437   7.633
24804WAT     H174654   9.552   6.392   7.555
24804WAT     H274655   9.580   6.382   7.715
24805WAT      O74656   9.237   0.275   1.349
24805WAT     H174657   9.292   0.345   1.303
24805WAT     H274658   9.292   0.193   1.361
24806WAT      O74659   7.633   2.720   8.225
24806WAT     H174660   7.714   2.715   8.284
24806WAT     H274661   7.637   2.646   8.157
24807WAT      O74662   4.469   3.186   7.637
24807WAT     H174663   4.447   3.102   7.686
24807WAT     H274664   4.508   3.164   7.548
24808WAT      O74665   7.854   2.420   3.952
24808WAT     H174666   7.831   2.333   3.995
24808WAT     H274667   7.914   2.473   4.014
24809WAT      O74668   0.706   5.842   5.401
24809WAT     H174669   0.658   5.923   5.368
24809WAT     H274670   0.696   5.768   5.335
24810WAT      O74671   6.872   4.857   9.276
24810WAT     H174672   6.818   4.848   9.360
24810WAT     H274673   6.901   4.766   9.245
24811WAT      O74674   6.736   8.737   4.896
24811WAT     H174675   6.731   8.710   4.992
24811WAT     H274676   6.719   8.658   4.838
24812WAT      O74677   2.667   6.580   6.309
24812WAT     H174678   2.742   6.638   6.277
24812WAT     H274679   2.705   6.496   6.347
24813WAT      O74680   3.864   9.662   3.465
24813WAT     H174681   3.775   9.664   3.419
24813WAT     H274682   3.878   9.749   3.513
24814WAT      O74683   1.473   2.991   4.186
24814WAT     H174684   1.417   2.909   4.174
24814WAT     H274685   1.495   3.002   4.283
24815WAT      O74686   9.057   4.472   1.183
24815WAT     H174687   8.958   4.473   1.165
24815WAT     H274688   9.087   4.565   1.206
24816WAT      O74689   3.281   0.734   0.711
24816WAT     H174690   3.303   0.798   0.785
24816WAT     H274691   3.263   0.643   0.749
24817WAT      O74692   5.860   4.871   9.537
24817WAT     H174693   5.938   4.913   9.584
24817WAT     H274694   5.840   4.782   9.578
24818WAT      O74695   0.171   7.470   8.921
24818WAT     H174696   0.230   7.418   8.858
24818WAT     H274697   0.228   7.528   8.979
24819WAT      O74698   8.122   4.675   0.762
24819WAT     H174699   8.175   4.742   0.709
24819WAT     H274700   8.121   4.587   0.714
24820WAT      O74701   1.007   7.699   3.686
24820WAT     H174702   1.016   7.698   3.785
24820WAT     H274703   1.045   7.785   3.650
24821WAT      O74704   1.439   8.306   5.495
24821WAT     H174705   1.501   8.319   5.417
24821WAT     H274706   1.403   8.213   5.494
24822WAT      O74707   8.237   8.801   1.600
24822WAT     H174708   8.335   8.783   1.588
24822WAT     H274709   8.212   8.785   1.696
24823WAT      O74710   5.994   8.259   4.377
24823WAT     H174711   6.051   8.303   4.446
24823WAT     H274712   5.970   8.167   4.408
24824WAT      O74713   7.920   5.478   5.991
24824WAT     H174714   7.864   5.540   5.935
24824WAT     H274715   7.902   5.496   6.087
24825WAT      O74716   8.109   7.848   6.250
24825WAT     H174717   8.079   7.922   6.189
24825WAT     H274718   8.194   7.809   6.215
24826WAT      O74719   3.706   2.483   2.651
24826WAT     H174720   3.724   2.448   2.559
24826WAT     H274721   3.710   2.583   2.650
24827WAT      O74722   0.165   8.454   3.958
24827WAT     H174723   0.077   8.487   3.992
24827WAT     H274724   0.174   8.356   3.978
24828WAT      O74725   4.515   0.628   0.772
24828WAT     H174726   4.593   0.646   0.832
24828WAT     H274727   4.515   0.692   0.696
24829WAT      O74728   2.179   8.915   2.067
24829WAT     H174729   2.143   8.978   1.998
24829WAT     H274730   2.212   8.832   2.022
24830WAT      O74731   3.143   7.238   8.037
24830WAT     H174732   3.071   7.278   8.094
24830WAT     H274733   3.165   7.147   8.071
24831WAT      O74734   0.774   9.810   9.404
24831WAT     H174735   0.685   9.792   9.362
24831WAT     H274736   0.777   9.768   9.495
24832WAT      O74737   5.921   5.246   8.961
24832WAT     H174738   5.923   5.305   8.880
24832WAT     H274739   5.884   5.157   8.937
24833WAT      O74740   5.088   0.729   5.110
24833WAT     H174741   5.072   0.767   5.201
24833WAT     H274742   5.125   0.636   5.119
24834WAT      O74743   9.140   7.293   4.387
24834WAT     H174744   9.052   7.339   4.376
24834WAT     H274745   9.159   7.280   4.484
24835WAT      O74746   7.852   4.715   0.369
24835WAT     H174747   7.919   4.642   0.380
24835WAT     H274748   7.874   4.768   0.287
24836WAT      O74749   2.361   9.725   3.672
24836WAT     H174750   2.334   9.654   3.738
24836WAT     H274751   2.295   9.726   3.596
24837WAT      O74752   1.375   0.803   9.509
24837WAT     H174753   1.446   0.871   9.529
24837WAT     H274754   1.418   0.716   9.487
24838WAT      O74755   2.819   7.450   6.644
24838WAT     H174756   2.756   7.525   6.623
24838WAT     H274757   2.913   7.483   6.644
24839WAT      O74758   6.244   7.230   0.851
24839WAT     H174759   6.298   7.199   0.772
24839WAT     H274760   6.224   7.152   0.910
24840WAT      O74761   1.727   4.116   4.680
24840WAT     H174762   1.693   4.191   4.624
24840WAT     H274763   1.700   4.029   4.640
24841WAT      O74764   3.203   1.702   1.539
24841WAT     H174765   3.280   1.653   1.499
24841WAT     H274766   3.197   1.794   1.500
24842WAT      O74767   5.538   2.592   6.736
24842WAT     H174768   5.518   2.507   6.784
24842WAT     H274769   5.602   2.647   6.790
24843WAT      O74770   5.982   5.541   3.289
24843WAT     H174771   5.963   5.451   3.328
24843WAT     H274772   6.080   5.548   3.270
24844WAT      O74773   9.321   0.723   3.876
24844WAT     H174774   9.279   0.660   3.811
24844WAT     H274775   9.292   0.698   3.969
24845WAT      O74776   4.895   7.641   1.839
24845WAT     H174777   4.815   7.653   1.898
24845WAT     H274778   4.910   7.724   1.787
24846WAT      O74779   5.893   7.367   4.072
24846WAT     H174780   5.831   7.429   4.025
24846WAT     H274781   5.884   7.275   4.034
24847WAT      O74782   9.082   6.222   3.261
24847WAT     H174783   9.072   6.289   3.187
24847WAT     H274784   9.179   6.210   3.281
24848WAT      O74785   4.627   0.757   1.514
24848WAT     H174786   4.567   0.770   1.594
24848WAT     H274787   4.580   0.791   1.433
24849WAT      O74788   5.182   3.127   5.552
24849WAT     H174789   5.122   3.169   5.620
24849WAT     H274790   5.183   3.028   5.564
24850WAT      O74791   4.688   4.611   0.988
24850WAT     H174792   4.647   4.694   0.949
24850WAT     H274793   4.675   4.611   1.087
24851WAT      O74794   9.212   7.614   2.949
24851WAT     H174795   9.226   7.702   2.903
24851WAT     H274796   9.298   7.585   2.992
24852WAT      O74797   9.419   6.195   0.276
24852WAT     H174798   9.365   6.268   0.318
24852WAT     H274799   9.359   6.131   0.228
24853WAT      O74800   2.014   1.272   4.391
24853WAT     H174801   2.012   1.213   4.311
24853WAT     H274802   2.055   1.360   4.366
24854WAT      O74803   9.369   9.537   0.988
24854WAT     H174804   9.366   9.437   0.984
24854WAT     H274805   9.298   9.575   0.929
24855WAT      O74806   1.578   3.635   7.186
24855WAT     H174807   1.515   3.625   7.263
24855WAT     H274808   1.612   3.545   7.159
24856WAT      O74809   5.216   5.120   7.431
24856WAT     H174810   5.187   5.069   7.512
24856WAT     H274811   5.190   5.216   7.441
24857WAT      O74812   7.501   8.594   9.374
24857WAT     H174813   7.567   8.536   9.326
24857WAT     H274814   7.474   8.670   9.315
24858WAT      O74815   3.245   8.357   4.114
24858WAT     H174816   3.293   8.307   4.042
24858WAT     H274817   3.158   8.311   4.135
24859WAT      O74818   4.258   3.405   9.582
24859WAT     H174819   4.291   3.472   9.515
24859WAT     H274820   4.165   3.377   9.558
24860WAT      O74821   6.041   6.251   1.803
24860WAT     H174822   6.035   6.162   1.848
24860WAT     H274823   6.081   6.240   1.712
24861WAT      O74824   4.924   7.074   0.249
24861WAT     H174825   4.875   7.091   0.164
24861WAT     H274826   4.989   6.999   0.236
24862WAT      O74827   7.491   4.661   7.019
24862WAT     H174828   7.497   4.580   7.077
24862WAT     H274829   7.581   4.705   7.015
24863WAT      O74830   0.952   3.777   5.573
24863WAT     H174831   0.888   3.817   5.639
24863WAT     H274832   0.903   3.713   5.514
24864WAT      O74833   1.099   3.669   6.334
24864WAT     H174834   1.194   3.700   6.329
24864WAT     H274835   1.096   3.576   6.369
24865WAT      O74836   5.971   6.172   2.265
24865WAT     H174837   5.888   6.177   2.320
24865WAT     H274838   5.962   6.233   2.186
24866WAT      O74839   3.209   1.923   7.501
24866WAT     H174840   3.241   2.008   7.460
24866WAT     H274841   3.287   1.874   7.541
24867WAT      O74842   2.521   3.554   5.790
24867WAT     H174843   2.559   3.569   5.699
24867WAT     H274844   2.426   3.521   5.781
24868WAT      O74845   8.773   2.152   1.627
24868WAT     H174846   8.815   2.243   1.622
24868WAT     H274847   8.808   2.095   1.553
24869WAT      O74848   6.524   7.848   5.431
24869WAT     H174849   6.445   7.792   5.458
24869WAT     H274850   6.553   7.903   5.510
24870WAT      O74851   6.047   4.053   7.892
24870WAT     H174852   5.972   4.114   7.866
24870WAT     H274853   6.117   4.104   7.941
24871WAT      O74854   6.569   6.955   2.669
24871WAT     H174855   6.518   7.036   2.641
24871WAT     H274856   6.629   6.926   2.594
24872WAT      O74857   0.635   9.051   3.118
24872WAT     H174858   0.693   9.096   3.050
24872WAT     H274859   0.591   8.971   3.078
24873WAT      O74860   2.206   5.633   0.281
24873WAT     H174861   2.262   5.553   0.260
24873WAT     H274862   2.121   5.628   0.229
24874WAT      O74863   6.657   2.114   6.387
24874WAT     H174864   6.653   2.110   6.287
24874WAT     H274865   6.576   2.070   6.426
24875WAT      O74866   7.395   1.894   9.169
24875WAT     H174867   7.397   1.813   9.110
24875WAT     H274868   7.346   1.873   9.254
24876WAT      O74869   2.707   1.007   0.557
24876WAT     H174870   2.700   1.074   0.484
24876WAT     H274871   2.803   0.989   0.577
24877WAT      O74872   3.079   3.547   7.749
24877WAT     H174873   3.000   3.509   7.701
24877WAT     H274874   3.140   3.591   7.683
24878WAT      O74875   6.816   3.045   0.995
24878WAT     H174876   6.765   3.059   1.079
24878WAT     H274877   6.911   3.073   1.008
24879WAT      O74878   9.426   6.387   2.811
24879WAT     H174879   9.493   6.353   2.745
24879WAT     H274880   9.441   6.342   2.899
24880WAT      O74881   5.379   1.909   0.127
24880WAT     H174882   5.290   1.911   0.080
24880WAT     H274883   5.393   1.819   0.168
24881WAT      O74884   0.488   8.365   8.071
24881WAT     H174885   0.571   8.326   8.111
24881WAT     H274886   0.420   8.379   8.143
24882WAT      O74887   8.317   7.443   5.618
24882WAT     H174888   8.412   7.475   5.628
24882WAT     H274889   8.303   7.362   5.674
24883WAT      O74890   3.439   7.206   7.730
24883WAT     H174891   3.529   7.239   7.759
24883WAT     H274892   3.436   7.107   7.737
24884WAT      O74893   8.683   6.349   5.522
24884WAT     H174894   8.674   6.297   5.436
24884WAT     H274895   8.648   6.294   5.598
24885WAT      O74896   6.423   8.821   9.374
24885WAT     H174897   6.496   8.814   9.305
24885WAT     H274898   6.367   8.902   9.355
24886WAT      O74899   8.200   2.781   0.100
24886WAT     H174900   8.237   2.758   0.010
24886WAT     H274901   8.109   2.741   0.110
24887WAT      O74902   4.202   7.275   9.642
24887WAT     H174903   4.176   7.272   9.738
24887WAT     H274904   4.121   7.264   9.585
24888WAT      O74905   2.334   1.239   6.660
24888WAT     H174906   2.355   1.333   6.685
24888WAT     H274907   2.354   1.226   6.563
24889WAT      O74908   2.198   8.026   4.977
24889WAT     H174909   2.162   7.939   5.010
24889WAT     H274910   2.258   8.010   4.899
24890WAT      O74911   3.287   0.417   0.061
24890WAT     H174912   3.203   0.363   0.057
24890WAT     H274913   3.360   0.363   0.102
24891WAT      O74914   9.624   1.548   8.168
24891WAT     H174915   9.680   1.627   8.145
24891WAT     H274916   9.681   1.478   8.212
24892WAT      O74917   0.583   3.045   4.416
24892WAT     H174918   0.660   2.983   4.402
24892WAT     H274919   0.509   3.020   4.354
24893WAT      O74920   0.946   5.250   2.863
24893WAT     H174921   1.043   5.241   2.887
24893WAT     H274922   0.926   5.190   2.785
24894WAT      O74923   6.534   5.100   1.827
24894WAT     H174924   6.442   5.070   1.851
24894WAT     H274925   6.599   5.028   1.851
24895WAT      O74926   6.460   5.326   8.149
24895WAT     H174927   6.551   5.286   8.157
24895WAT     H274928   6.432   5.363   8.237
24896WAT      O74929   1.162   8.340   1.628
24896WAT     H174930   1.068   8.366   1.652
24896WAT     H274931   1.207   8.418   1.584
24897WAT      O74932   9.435   4.593   7.878
24897WAT     H174933   9.359   4.654   7.854
24897WAT     H274934   9.419   4.503   7.839
24898WAT      O74935   4.974   4.669   7.374
24898WAT     H174936   5.000   4.710   7.462
24898WAT     H274937   4.927   4.737   7.318
24899WAT      O74938   2.512   8.762   4.738
24899WAT     H174939   2.508   8.820   4.657
24899WAT     H274940   2.494   8.667   4.712
24900WAT      O74941   2.258   8.145   1.986
24900WAT     H174942   2.186   8.173   2.049
24900WAT     H274943   2.342   8.124   2.037
24901WAT      O74944   7.548   4.339   1.733
24901WAT     H174945   7.570   4.281   1.655
24901WAT     H274946   7.539   4.282   1.815
24902WAT      O74947   7.453   2.181   2.215
24902WAT     H174948   7.393   2.206   2.139
24902WAT     H274949   7.541   2.228   2.205
24903WAT      O74950   4.100   8.709   1.115
24903WAT     H174951   4.005   8.689   1.139
24903WAT     H274952   4.118   8.807   1.127
24904WAT      O74953   8.644   1.090   7.185
24904WAT     H174954   8.700   1.153   7.130
24904WAT     H274955   8.667   1.101   7.282
24905WAT      O74956   4.385   1.933   4.384
24905WAT     H174957   4.381   1.954   4.286
24905WAT     H274958   4.366   1.836   4.398
24906WAT      O74959   3.530   4.201   9.602
24906WAT     H174960   3.536   4.255   9.518
24906WAT     H274961   3.580   4.247   9.675
24907WAT      O74962   2.984   6.709   8.558
24907WAT     H174963   3.025   6.645   8.623
24907WAT     H274964   3.057   6.756   8.508
24908WAT      O74965   6.709   8.236   7.236
24908WAT     H174966   6.656   8.271   7.159
24908WAT     H274967   6.668   8.150   7.267
24909WAT      O74968   8.512   2.060   9.822
24909WAT     H174969   8.422   2.019   9.804
24909WAT     H274970   8.532   2.128   9.751
24910WAT      O74971   6.405   3.030   4.384
24910WAT     H174972   6.398   2.930   4.383
24910WAT     H274973   6.501   3.057   4.378
24911WAT      O74974   2.464   8.041   8.271
24911WAT     H174975   2.429   7.973   8.335
24911WAT     H274976   2.431   8.132   8.298
24912WAT      O74977   3.566   9.677   4.868
24912WAT     H174978   3.472   9.709   4.850
24912WAT     H274979   3.628   9.720   4.803
24913WAT      O74980   0.223   3.188   4.171
24913WAT     H174981   0.143   3.194   4.112
24913WAT     H274982   0.242   3.278   4.211
24914WAT      O74983   4.331   7.782   9.121
24914WAT     H174984   4.402   7.815   9.183
24914WAT     H274985   4.294   7.695   9.156
24915WAT      O74986   0.293   5.855   6.362
24915WAT     H174987   0.392   5.845   6.354
24915WAT     H274988   0.249   5.774   6.322
24916WAT      O74989   8.282   5.499   8.294
24916WAT     H174990   8.260   5.421   8.236
24916WAT     H274991   8.331   5.467   8.376
24917WAT      O74992   5.902   1.176   4.160
24917WAT     H174993   5.980   1.142   4.107
24917WAT     H274994   5.819   1.171   4.104
24918WAT      O74995   9.334   7.091   3.289
24918WAT     H174996   9.405   7.035   3.332
24918WAT     H274997   9.375   7.175   3.255
24919WAT      O74998   4.010   9.335   0.030
24919WAT     H174999   3.937   9.392   0.068
24919WAT     H275000   4.040   9.269   0.099
24920WAT      O75001   4.473   7.133   6.040
24920WAT     H175002   4.427   7.215   6.007
24920WAT     H275003   4.473   7.133   6.140
24921WAT      O75004   0.660   5.060   3.237
24921WAT     H175005   0.601   4.993   3.283
24921WAT     H275006   0.626   5.077   3.145
24922WAT      O75007   0.020   2.939   6.648
24922WAT     H175008   0.091   2.942   6.578
24922WAT     H275009  -0.068   2.916   6.606
24923WAT      O75010   0.986   1.172   8.085
24923WAT     H175011   1.013   1.249   8.143
24923WAT     H275012   0.940   1.207   8.003
24924WAT      O75013   1.066   9.686   7.417
24924WAT     H175014   1.056   9.617   7.489
24924WAT     H275015   1.020   9.771   7.447
24925WAT      O75016   1.756   4.885   3.228
24925WAT     H175017   1.852   4.861   3.209
24925WAT     H275018   1.753   4.976   3.269
24926WAT      O75019   6.344   2.540   2.123
24926WAT     H175020   6.395   2.622   2.097
24926WAT     H275021   6.370   2.512   2.216
24927WAT      O75022   4.010   4.581   0.334
24927WAT     H175023   4.002   4.679   0.348
24927WAT     H275024   4.046   4.538   0.417
24928WAT      O75025   5.648   8.630   0.032
24928WAT     H175026   5.639   8.676  -0.056
24928WAT     H275027   5.695   8.542   0.020
24929WAT      O75028   1.219   7.176   7.613
24929WAT     H175029   1.120   7.179   7.620
24929WAT     H275030   1.260   7.235   7.683
24930WAT      O75031   6.283   9.521   6.364
24930WAT     H175032   6.266   9.618   6.376
24930WAT     H275033   6.366   9.508   6.309
24931WAT      O75034   6.556   5.004   8.926
24931WAT     H175035   6.473   4.978   8.877
24931WAT     H275036   6.561   4.953   9.012
24932WAT      O75037   3.056   4.779   1.880
24932WAT     H175038   3.134   4.725   1.847
24932WAT     H275039   3.010   4.729   1.953
24933WAT      O75040   8.052   3.954   1.757
24933WAT     H175041   8.088   4.001   1.837
24933WAT     H275042   7.967   3.908   1.779
24934WAT      O75043   7.493   6.568   2.496
24934WAT     H175044   7.511   6.598   2.589
24934WAT     H275045   7.508   6.645   2.433
24935WAT      O75046   9.754   5.746   1.492
24935WAT     H175047   9.689   5.681   1.531
24935WAT     H275048   9.706   5.807   1.429
24936WAT      O75049   1.446   7.474   7.367
24936WAT     H175050   1.485   7.537   7.300
24936WAT     H275051   1.387   7.524   7.430
24937WAT      O75052   4.970   2.668   2.834
24937WAT     H175053   4.918   2.735   2.887
24937WAT     H275054   4.974   2.582   2.884
24938WAT      O75055   7.183   8.981   9.431
24938WAT     H175056   7.224   9.005   9.519
24938WAT     H275057   7.112   8.912   9.445
24939WAT      O75058   5.660   6.394   6.378
24939WAT     H175059   5.741   6.442   6.413
24939WAT     H275060   5.687   6.304   6.345
24940WAT      O75061   3.789   9.374   3.447
24940WAT     H175062   3.869   9.425   3.415
24940WAT     H275063   3.723   9.365   3.372
24941WAT      O75064   6.979   5.394   2.762
24941WAT     H175065   6.959   5.487   2.730
24941WAT     H275066   6.939   5.380   2.852
24942WAT      O75067   9.032   7.896   6.993
24942WAT     H175068   9.066   7.811   7.033
24942WAT     H275069   9.094   7.971   7.016
24943WAT      O75070   3.050   5.416   9.201
24943WAT     H175071   2.970   5.476   9.205
24943WAT     H275072   3.042   5.345   9.271
24944WAT      O75073   9.067   2.521   0.905
24944WAT     H175074   9.050   2.433   0.860
24944WAT     H275075   9.043   2.513   1.002
24945WAT      O75076   6.994   3.016   2.765
24945WAT     H175077   6.901   3.025   2.802
24945WAT     H275078   7.060   3.032   2.837
24946WAT      O75079   0.837   5.207   9.285
24946WAT     H175080   0.876   5.233   9.373
24946WAT     H275081   0.762   5.270   9.262
24947WAT      O75082   2.937   2.957   3.838
24947WAT     H175083   2.981   2.869   3.820
24947WAT     H275084   3.004   3.031   3.829
24948WAT      O75085   0.187   0.119   1.619
24948WAT     H175086   0.274   0.159   1.647
24948WAT     H275087   0.170   0.140   1.523
24949WAT      O75088   0.049   8.383   0.939
24949WAT     H175089   0.069   8.286   0.952
24949WAT     H275090   0.021   8.399   0.844
24950WAT      O75091   6.554   4.099   0.134
24950WAT     H175092   6.633   4.039   0.125
24950WAT     H275093   6.490   4.062   0.201
24951WAT      O75094   7.913   2.163   9.781
24951WAT     H175095   7.962   2.123   9.859
24951WAT     H275096   7.975   2.170   9.703
24952WAT      O75097   2.871   8.663   1.256
24952WAT     H175098   2.935   8.739   1.267
24952WAT     H275099   2.813   8.679   1.177
24953WAT      O75100   4.915   4.160   3.331
24953WAT     H175101   4.839   4.198   3.384
24953WAT     H275102   4.965   4.095   3.388
24954WAT      O75103   1.824   6.301   8.783
24954WAT     H175104   1.732   6.308   8.742
24954WAT     H275105   1.893   6.321   8.713
24955WAT      O75106   7.749   8.925   1.241
24955WAT     H175107   7.662   8.883   1.213
24955WAT     H275108   7.731   8.998   1.307
24956WAT      O75109   8.047   3.541   2.205
24956WAT     H175110   8.125   3.493   2.164
24956WAT     H275111   7.985   3.474   2.246
24957WAT      O75112   2.091   6.715   9.367
24957WAT     H175113   2.097   6.743   9.462
24957WAT     H275114   2.053   6.622   9.362
24958WAT      O75115   6.219   1.262   5.452
24958WAT     H175116   6.216   1.307   5.541
24958WAT     H275117   6.235   1.330   5.381
24959WAT      O75118   1.665   6.754   0.682
24959WAT     H175119   1.750   6.719   0.720
24959WAT     H275120   1.671   6.853   0.672
24960WAT      O75121   2.625   1.375   6.997
24960WAT     H175122   2.547   1.361   7.058
24960WAT     H275123   2.707   1.396   7.050
24961WAT      O75124   7.916   9.356   1.721
24961WAT     H175125   7.867   9.383   1.805
24961WAT     H275126   8.000   9.308   1.746
24962WAT      O75127   3.539   3.067   2.887
24962WAT     H175128   3.480   3.000   2.932
24962WAT     H275129   3.633   3.032   2.884
24963WAT      O75130   1.352   5.161   5.059
24963WAT     H175131   1.280   5.219   5.098
24963WAT     H275132   1.335   5.148   4.961
24964WAT      O75133   6.378   1.648   0.038
24964WAT     H175134   6.285   1.610   0.035
24964WAT     H275135   6.377   1.733   0.091
24965WAT      O75136   2.971   5.599   4.785
24965WAT     H175137   3.033   5.558   4.718
24965WAT     H275138   2.940   5.689   4.751
24966WAT      O75139   4.581   8.555   8.176
24966WAT     H175140   4.567   8.603   8.089
24966WAT     H275141   4.493   8.526   8.212
24967WAT      O75142   2.934   0.643   6.539
24967WAT     H175143   2.880   0.596   6.610
24967WAT     H275144   3.012   0.688   6.582
24968WAT      O75145   7.120   2.551   1.792
24968WAT     H175146   7.078   2.638   1.819
24968WAT     H275147   7.098   2.532   1.696
24969WAT      O75148   9.163   4.680   9.543
24969WAT     H175149   9.071   4.666   9.580
24969WAT     H275150   9.168   4.770   9.500
24970WAT      O75151   5.084   8.987   1.751
24970WAT     H175152   5.103   9.082   1.727
24970WAT     H275153   5.157   8.954   1.811
24971WAT      O75154   8.168   4.404   6.636
24971WAT     H175155   8.213   4.475   6.689
24971WAT     H275156   8.101   4.446   6.575
24972WAT      O75157   7.848   1.405   7.907
24972WAT     H175158   7.794   1.443   7.831
24972WAT     H275159   7.848   1.306   7.901
24973WAT      O75160   2.697   9.207   4.064
24973WAT     H175161   2.648   9.124   4.036
24973WAT     H275162   2.795   9.194   4.050
24974WAT      O75163   3.770   5.910   4.071
24974WAT     H175164   3.789   5.814   4.054
24974WAT     H275165   3.693   5.919   4.135
24975WAT      O75166   8.549   1.646   5.238
24975WAT     H175167   8.534   1.547   5.233
24975WAT     H275168   8.614   1.674   5.167
24976WAT      O75169   6.996   0.416   6.103
24976WAT     H175170   7.080   0.390   6.150
24976WAT     H275171   6.960   0.501   6.142
24977WAT      O75172   6.693   5.172   7.078
24977WAT     H175173   6.608   5.196   7.032
24977WAT     H275174   6.720   5.079   7.053
24978WAT      O75175   5.738   9.006   6.360
24978WAT     H175176   5.771   9.082   6.304
24978WAT     H275177   5.666   8.958   6.311
24979WAT      O75178   5.502   8.226   6.444
24979WAT     H175179   5.439   8.295   6.480
24979WAT     H275180   5.571   8.205   6.513
24980WAT      O75181   8.829   3.428   6.793
24980WAT     H175182   8.817   3.452   6.696
24980WAT     H275183   8.739   3.427   6.837
24981WAT      O75184   3.809   2.693   9.813
24981WAT     H175185   3.715   2.722   9.833
24981WAT     H275186   3.866   2.774   9.797
24982WAT      O75187   8.790   6.453   4.649
24982WAT     H175188   8.701   6.415   4.624
24982WAT     H275189   8.794   6.550   4.625
24983WAT      O75190   1.480   8.190   9.447
24983WAT     H175191   1.566   8.178   9.498
24983WAT     H275192   1.495   8.162   9.352
24984WAT      O75193   6.471   5.424   3.426
24984WAT     H175194   6.446   5.521   3.436
24984WAT     H275195   6.499   5.388   3.515
24985WAT      O75196   9.665   4.211   5.712
24985WAT     H175197   9.614   4.244   5.791
24985WAT     H275198   9.709   4.288   5.666
24986WAT      O75199   1.811   1.004   7.378
24986WAT     H175200   1.906   0.975   7.393
24986WAT     H275201   1.809   1.080   7.313
24987WAT      O75202   5.248   2.321   0.714
24987WAT     H175203   5.182   2.378   0.763
24987WAT     H275204   5.266   2.238   0.766
24988WAT      O75205   2.058   9.023   5.670
24988WAT     H175206   2.058   8.925   5.685
24988WAT     H275207   2.133   9.047   5.607
24989WAT      O75208   0.829   7.810   2.986
24989WAT     H175209   0.729   7.820   2.989
24989WAT     H275210   0.857   7.732   3.042
24990WAT      O75211   3.786   8.754   0.185
24990WAT     H175212   3.779   8.757   0.284
24990WAT     H275213   3.710   8.805   0.144
24991WAT      O75214   1.733   6.260   4.469
24991WAT     H175215   1.663   6.267   4.398
24991WAT     H275216   1.814   6.311   4.440
24992WAT      O75217   4.921   3.313   0.978
24992WAT     H175218   4.855   3.368   1.029
24992WAT     H275219   4.930   3.350   0.885
24993WAT      O75220   6.262   5.694   8.888
24993WAT     H175221   6.287   5.656   8.799
24993WAT     H275222   6.247   5.620   8.953
24994WAT      O75223   6.331   7.797   5.806
24994WAT     H175224   6.415   7.768   5.851
24994WAT     H275225   6.340   7.892   5.775
24995WAT      O75226   8.471   5.647   4.227
24995WAT     H175227   8.402   5.574   4.227
24995WAT     H275228   8.479   5.684   4.134
24996WAT      O75229   1.507   0.569   8.375
24996WAT     H175230   1.555   0.614   8.299
24996WAT     H275231   1.511   0.628   8.456
24997WAT      O75232   1.108   0.611   5.549
24997WAT     H175233   1.036   0.661   5.501
24997WAT     H275234   1.191   0.666   5.550
24998WAT      O75235   8.134   7.871   7.174
24998WAT     H175236   8.051   7.910   7.133
24998WAT     H275237   8.149   7.911   7.264
24999WAT      O75238   7.320   6.593   2.187
24999WAT     H175239   7.384   6.516   2.180
24999WAT     H275240   7.332   6.653   2.108
25000WAT      O75241   1.142   7.473   4.845
25000WAT     H175242   1.200   7.483   4.925
25000WAT     H275243   1.155   7.552   4.784
25001WAT      O75244   3.917   3.077   7.283
25001WAT     H175245   4.011   3.106   7.268
25001WAT     H275246   3.895   3.001   7.223
25002WAT      O75247   8.930   1.104   0.855
25002WAT     H175248   8.852   1.151   0.896
25002WAT     H275249   8.984   1.170   0.802
25003WAT      O75250   2.604   0.696   6.457
25003WAT     H175251   2.548   0.691   6.540
25003WAT     H275252   2.581   0.779   6.406
25004WAT      O75253   0.617   6.616   9.211
25004WAT     H175254   0.659   6.610   9.301
25004WAT     H275255   0.540   6.552   9.206
25005WAT      O75256   7.065   7.766   7.995
25005WAT     H175257   7.039   7.783   8.090
25005WAT     H275258   7.159   7.797   7.980
25006WAT      O75259   6.548   3.923   4.265
25006WAT     H175260   6.648   3.923   4.258
25006WAT     H275261   6.516   3.828   4.272
25007WAT      O75262   5.749   0.257   5.469
25007WAT     H175263   5.830   0.305   5.433
25007WAT     H275264   5.667   0.308   5.446
25008WAT      O75265   5.876   6.463   7.933
25008WAT     H175266   5.942   6.500   7.999
25008WAT     H275267   5.916   6.465   7.842
25009WAT      O75268   4.253   4.693   6.589
25009WAT     H175269   4.173   4.711   6.532
25009WAT     H275270   4.240   4.606   6.638
25010WAT      O75271   1.932   8.412   8.094
25010WAT     H175272   1.930   8.323   8.048
25010WAT     H275273   1.861   8.416   8.164
25011WAT      O75274   4.311   6.733   2.589
25011WAT     H175275   4.218   6.723   2.553
25011WAT     H275276   4.315   6.816   2.646
25012WAT      O75277   9.573   2.775   4.120
25012WAT     H175278   9.663   2.788   4.161
25012WAT     H275279   9.536   2.864   4.092
25013WAT      O75280   9.446   3.742   7.453
25013WAT     H175281   9.414   3.790   7.535
25013WAT     H275282   9.546   3.746   7.449
25014WAT      O75283   5.445   8.961   9.123
25014WAT     H175284   5.524   8.918   9.168
25014WAT     H275285   5.477   9.020   9.049
25015WAT      O75286   8.378   9.745   6.403
25015WAT     H175287   8.377   9.652   6.441
25015WAT     H275288   8.451   9.751   6.334
25016WAT      O75289   1.052   9.662   7.129
25016WAT     H175290   0.973   9.723   7.126
25016WAT     H275291   1.066   9.631   7.224
25017WAT      O75292   5.110   3.583   6.943
25017WAT     H175293   5.166   3.666   6.938
25017WAT     H275294   5.065   3.569   6.855
25018WAT      O75295   3.594   0.644   2.464
25018WAT     H175296   3.671   0.649   2.401
25018WAT     H275297   3.536   0.566   2.440
25019WAT      O75298   9.563   7.524   6.316
25019WAT     H175299   9.585   7.455   6.385
25019WAT     H275300   9.475   7.503   6.275
25020WAT      O75301   0.359   0.186   9.408
25020WAT     H175302   0.308   0.271   9.422
25020WAT     H275303   0.389   0.179   9.313
25021WAT      O75304   9.579   3.849   3.139
25021WAT     H175305   9.597   3.946   3.124
25021WAT     H275306   9.666   3.799   3.141
25022WAT      O75307   7.385   7.528   0.057
25022WAT     H175308   7.376   7.495   0.151
25022WAT     H275309   7.386   7.628   0.058
25023WAT      O75310   8.608   6.863   2.344
25023WAT     H175311   8.690   6.873   2.287
25023WAT     H275312   8.635   6.852   2.439
25024WAT      O75313   8.175   1.700   1.111
25024WAT     H175314   8.157   1.755   1.193
25024WAT     H275315   8.101   1.634   1.098
25025WAT      O75316   2.286   1.394   2.988
25025WAT     H175317   2.309   1.382   3.085
25025WAT     H275318   2.370   1.404   2.935
25026WAT      O75319   3.518   2.486   5.127
25026WAT     H175320   3.568   2.400   5.135
25026WAT     H275321   3.431   2.470   5.081
25027WAT      O75322   0.532   1.913   4.224
25027WAT     H175323   0.496   1.822   4.201
25027WAT     H275324   0.570   1.956   4.142
25028WAT      O75325   2.216   9.809   7.960
25028WAT     H175326   2.272   9.891   7.968
25028WAT     H275327   2.275   9.729   7.946
25029WAT      O75328   3.955   7.923   6.500
25029WAT     H175329   4.011   7.949   6.421
25029WAT     H275330   3.922   7.829   6.488
25030WAT      O75331   4.835   9.586   0.733
25030WAT     H175332   4.807   9.494   0.762
25030WAT     H275333   4.755   9.634   0.696
25031WAT      O75334   7.367   1.309   1.275
25031WAT     H175335   7.347   1.315   1.373
25031WAT     H275336   7.297   1.358   1.224
25032WAT      O75337   8.482   8.418   3.382
25032WAT     H175338   8.562   8.475   3.399
25032WAT     H275339   8.511   8.331   3.342
25033WAT      O75340   3.152   5.090   6.056
25033WAT     H175341   3.215   5.041   5.996
25033WAT     H275342   3.121   5.029   6.129
25034WAT      O75343   1.140   8.839   9.638
25034WAT     H175344   1.125   8.750   9.681
25034WAT     H275345   1.183   8.826   9.548
25035WAT      O75346   9.597   2.150   8.620
25035WAT     H175347   9.683   2.139   8.568
25035WAT     H275348   9.559   2.060   8.641
25036WAT      O75349   6.085   0.144   5.690
25036WAT     H175350   6.094   0.200   5.608
25036WAT     H275351   6.002   0.089   5.683
25037WAT      O75352   4.411   6.694   1.506
25037WAT     H175353   4.341   6.678   1.436
25037WAT     H275354   4.374   6.669   1.595
25038WAT      O75355   9.326   7.847   7.192
25038WAT     H175356   9.295   7.807   7.278
25038WAT     H275357   9.359   7.940   7.208
25039WAT      O75358   7.368   6.841   6.540
25039WAT     H175359   7.287   6.875   6.493
25039WAT     H275360   7.341   6.776   6.611
25040WAT      O75361   4.042   6.516   2.091
25040WAT     H175362   4.057   6.594   2.030
25040WAT     H275363   3.975   6.454   2.049
25041WAT      O75364   1.630   0.004   2.617
25041WAT     H175365   1.669  -0.060   2.684
25041WAT     H275366   1.585   0.079   2.665
25042WAT      O75367   4.966   5.866   5.619
25042WAT     H175368   4.886   5.809   5.638
25042WAT     H275369   4.980   5.930   5.695
25043WAT      O75370   7.237   9.499   2.571
25043WAT     H175371   7.309   9.460   2.515
25043WAT     H275372   7.277   9.546   2.650
25044WAT      O75373   1.932   2.716   5.075
25044WAT     H175374   1.972   2.721   4.984
25044WAT     H275375   1.993   2.663   5.135
25045WAT      O75376   1.798   1.930   2.563
25045WAT     H175377   1.879   1.872   2.557
25045WAT     H275378   1.790   1.968   2.655
25046WAT      O75379   7.981   2.385   1.094
25046WAT     H175380   8.045   2.318   1.132
25046WAT     H275381   8.024   2.431   1.017
25047WAT      O75382   2.356   2.612   1.492
25047WAT     H175383   2.325   2.642   1.401
25047WAT     H275384   2.314   2.524   1.514
25048WAT      O75385   9.539   5.653   3.987
25048WAT     H175386   9.560   5.729   4.049
25048WAT     H275387   9.621   5.598   3.973
25049WAT      O75388   9.192   5.573   8.546
25049WAT     H175389   9.239   5.542   8.464
25049WAT     H275390   9.135   5.498   8.582
25050WAT      O75391   8.075   5.411   9.832
25050WAT     H175392   7.999   5.377   9.887
25050WAT     H275393   8.046   5.488   9.777
25051WAT      O75394   9.081   2.668   3.848
25051WAT     H175395   9.095   2.673   3.749
25051WAT     H275396   8.992   2.627   3.868
25052WAT      O75397   5.566   4.030   7.678
25052WAT     H175398   5.635   3.983   7.623
25052WAT     H275399   5.479   4.031   7.629
25053WAT      O75400   0.474   7.427   1.550
25053WAT     H175401   0.508   7.463   1.638
25053WAT     H275402   0.441   7.334   1.563
25054WAT      O75403   6.699   7.813   7.623
25054WAT     H175404   6.751   7.881   7.572
25054WAT     H275405   6.713   7.827   7.721
25055WAT      O75406   9.507   0.502   7.173
25055WAT     H175407   9.496   0.404   7.158
25055WAT     H275408   9.418   0.547   7.165
25056WAT      O75409   5.167   0.852   3.442
25056WAT     H175410   5.179   0.866   3.541
25056WAT     H275411   5.158   0.754   3.424
25057WAT      O75412   3.604   5.204   7.945
25057WAT     H175413   3.696   5.237   7.967
25057WAT     H275414   3.578   5.238   7.855
25058WAT      O75415   6.855   5.278   4.462
25058WAT     H175416   6.899   5.361   4.427
25058WAT     H275417   6.858   5.207   4.393
25059WAT      O75418   4.008   5.719   7.222
25059WAT     H175419   4.015   5.805   7.172
25059WAT     H275420   4.097   5.696   7.261
25060WAT      O75421   0.141   7.493   5.495
25060WAT     H175422   0.224   7.539   5.526
25060WAT     H275423   0.113   7.425   5.564
25061WAT      O75424   1.684   7.766   5.898
25061WAT     H175425   1.594   7.723   5.888
25061WAT     H275426   1.755   7.696   5.896
25062WAT      O75427   5.258   4.139   2.882
25062WAT     H175428   5.316   4.164   2.959
25062WAT     H275429   5.162   4.152   2.907
25063WAT      O75430   0.112   6.633   8.625
25063WAT     H175431   0.123   6.677   8.715
25063WAT     H275432   0.096   6.535   8.638
25064WAT      O75433   8.525   2.551   9.230
25064WAT     H175434   8.587   2.473   9.240
25064WAT     H275435   8.540   2.616   9.304
25065WAT      O75436   4.244   1.925   6.839
25065WAT     H175437   4.191   1.840   6.839
25065WAT     H275438   4.201   1.991   6.777
25066WAT      O75439   3.679   1.944   9.174
25066WAT     H175440   3.620   1.931   9.254
25066WAT     H275441   3.771   1.970   9.204
25067WAT      O75442   8.449   3.672   4.514
25067WAT     H175443   8.477   3.697   4.606
25067WAT     H275444   8.468   3.575   4.499
25068WAT      O75445   1.967   2.126   0.632
25068WAT     H175446   1.878   2.139   0.674
25068WAT     H275447   1.958   2.068   0.551
25069WAT      O75448   1.542   8.367   5.759
25069WAT     H175449   1.492   8.337   5.677
25069WAT     H275450   1.601   8.294   5.791
25070WAT      O75451   3.256   8.883   6.157
25070WAT     H175452   3.255   8.971   6.112
25070WAT     H275453   3.332   8.880   6.223
25071WAT      O75454   2.798   3.290   3.235
25071WAT     H175455   2.798   3.363   3.167
25071WAT     H275456   2.708   3.246   3.236
25072WAT      O75457   9.043   3.817   0.947
25072WAT     H175458   9.002   3.835   1.036
25072WAT     H275459   9.051   3.719   0.933
25073WAT      O75460   3.340   0.960   1.713
25073WAT     H175461   3.326   1.010   1.799
25073WAT     H275462   3.263   0.897   1.699
25074WAT      O75463   2.197   3.586   6.603
25074WAT     H175464   2.225   3.655   6.536
25074WAT     H275465   2.273   3.565   6.664
25075WAT      O75466   0.319   4.500   0.990
25075WAT     H175467   0.286   4.421   1.042
25075WAT     H275468   0.352   4.469   0.901
25076WAT      O75469   5.085   8.860   5.112
25076WAT     H175470   5.029   8.810   5.178
25076WAT     H275471   5.026   8.899   5.041
25077WAT      O75472   0.800   9.793   7.146
25077WAT     H175473   0.726   9.819   7.208
25077WAT     H275474   0.848   9.875   7.114
25078WAT      O75475   8.988   2.786   0.825
25078WAT     H175476   9.027   2.694   0.818
25078WAT     H275477   8.991   2.817   0.920
25079WAT      O75478   7.609   6.905   4.230
25079WAT     H175479   7.629   6.840   4.157
25079WAT     H275480   7.530   6.962   4.204
25080WAT      O75481   5.534   6.643   3.486
25080WAT     H175482   5.628   6.662   3.514
25080WAT     H275483   5.530   6.555   3.439
25081WAT      O75484   4.633   1.415   2.928
25081WAT     H175485   4.605   1.484   2.995
25081WAT     H275486   4.720   1.441   2.888
25082WAT      O75487   7.867   6.684   2.584
25082WAT     H175488   7.881   6.603   2.642
25082WAT     H275489   7.908   6.667   2.494
25083WAT      O75490   7.491   5.088   9.853
25083WAT     H175491   7.406   5.040   9.874
25083WAT     H275492   7.492   5.111   9.756
25084WAT      O75493   6.143   3.453   9.492
25084WAT     H175494   6.064   3.513   9.507
25084WAT     H275495   6.226   3.499   9.524
25085WAT      O75496   3.877   2.569   5.415
25085WAT     H175497   3.920   2.657   5.395
25085WAT     H275498   3.912   2.500   5.353
25086WAT      O75499   6.950   6.369   2.302
25086WAT     H175500   6.858   6.407   2.305
25086WAT     H275501   6.962   6.316   2.218
25087WAT      O75502   1.722   6.700   8.120
25087WAT     H175503   1.658   6.636   8.162
25087WAT     H275504   1.784   6.736   8.190
25088WAT      O75505   0.875   8.425   5.165
25088WAT     H175506   0.831   8.424   5.076
25088WAT     H275507   0.899   8.332   5.192
25089WAT      O75508   0.352   0.274   0.185
25089WAT     H175509   0.442   0.284   0.144
25089WAT     H275510   0.307   0.363   0.190
25090WAT      O75511   5.695   6.195   1.150
25090WAT     H175512   5.774   6.146   1.114
25090WAT     H275513   5.643   6.135   1.210
25091WAT      O75514   3.740   8.764   6.174
25091WAT     H175515   3.810   8.835   6.164
25091WAT     H275516   3.654   8.806   6.202
25092WAT      O75517   7.978   5.418   3.048
25092WAT     H175518   7.893   5.367   3.063
25092WAT     H275519   8.039   5.364   2.989
25093WAT      O75520   0.208   8.853   0.174
25093WAT     H175521   0.261   8.938   0.182
25093WAT     H275522   0.166   8.832   0.262
25094WAT      O75523   0.194   6.713   0.027
25094WAT     H175524   0.256   6.671  -0.039
25094WAT     H275525   0.206   6.813   0.024
25095WAT      O75526   7.278   4.090   3.213
25095WAT     H175527   7.300   4.007   3.264
25095WAT     H275528   7.191   4.078   3.164
25096WAT      O75529   0.145   2.718   4.379
25096WAT     H175530   0.162   2.816   4.394
25096WAT     H275531   0.102   2.679   4.460
25097WAT      O75532   0.067   9.378   7.123
25097WAT     H175533  -0.019   9.429   7.115
25097WAT     H275534   0.133   9.431   7.177
25098WAT      O75535   0.285   5.919   8.612
25098WAT     H175536   0.277   5.987   8.538
25098WAT     H275537   0.306   5.830   8.572
25099WAT      O75538   5.887   8.212   5.186
25099WAT     H175539   5.897   8.257   5.098
25099WAT     H275540   5.808   8.151   5.184
25100WAT      O75541   7.870   1.033   3.038
25100WAT     H175542   7.848   0.942   3.001
25100WAT     H275543   7.957   1.028   3.087
25101WAT      O75544   0.158   4.540   9.260
25101WAT     H175545   0.134   4.637   9.266
25101WAT     H275546   0.257   4.529   9.270
25102WAT      O75547   8.771   9.521   2.692
25102WAT     H175548   8.847   9.535   2.627
25102WAT     H275549   8.746   9.424   2.694
25103WAT      O75550   2.661   9.610   4.977
25103WAT     H175551   2.580   9.556   5.002
25103WAT     H275552   2.633   9.702   4.951
25104WAT      O75553   9.725   0.108   3.365
25104WAT     H175554   9.774   0.191   3.392
25104WAT     H275555   9.789   0.031   3.359
25105WAT      O75556   0.316   3.381   5.700
25105WAT     H175557   0.238   3.433   5.665
25105WAT     H275558   0.388   3.444   5.731
25106WAT      O75559   8.376   8.471   1.186
25106WAT     H175560   8.420   8.559   1.202
25106WAT     H275561   8.277   8.482   1.190
25107WAT      O75562   9.459   0.144   8.559
25107WAT     H175563   9.432   0.131   8.655
25107WAT     H275564   9.427   0.066   8.505
25108WAT      O75565   2.862   6.414   2.348
25108WAT     H175566   2.814   6.466   2.419
25108WAT     H275567   2.921   6.346   2.391
25109WAT      O75568   1.354   1.491   1.239
25109WAT     H175569   1.431   1.436   1.272
25109WAT     H275570   1.349   1.485   1.140
25110WAT      O75571   4.467   7.583   3.315
25110WAT     H175572   4.464   7.491   3.354
25110WAT     H275573   4.410   7.644   3.370
25111WAT      O75574   8.728   7.034   8.026
25111WAT     H175575   8.802   7.005   8.085
25111WAT     H275576   8.718   7.133   8.030
25112WAT      O75577   4.026   3.869   1.981
25112WAT     H175578   4.114   3.843   1.941
25112WAT     H275579   4.010   3.815   2.064
25113WAT      O75580   3.666   9.254   8.339
25113WAT     H175581   3.639   9.158   8.333
25113WAT     H275582   3.606   9.310   8.281
25114WAT      O75583   0.042   9.566   9.218
25114WAT     H175584   0.050   9.531   9.311
25114WAT     H275585   0.102   9.515   9.157
25115WAT      O75586   1.786   2.793   7.874
25115WAT     H175587   1.823   2.790   7.781
25115WAT     H275588   1.854   2.756   7.938
25116WAT      O75589   6.628   9.613   6.375
25116WAT     H175590   6.642   9.685   6.306
25116WAT     H275591   6.574   9.539   6.335
25117WAT      O75592   3.782   7.434   1.140
25117WAT     H175593   3.877   7.454   1.162
25117WAT     H275594   3.779   7.372   1.061
25118WAT      O75595   0.079   9.179   6.285
25118WAT     H175596   0.067   9.080   6.285
25118WAT     H275597   0.140   9.206   6.359
25119WAT      O75598   2.035   6.352   2.260
25119WAT     H175599   1.995   6.359   2.169
25119WAT     H275600   2.074   6.260   2.272
25120WAT      O75601   2.480   3.794   7.071
25120WAT     H175602   2.416   3.871   7.065
25120WAT     H275603   2.438   3.713   7.029
25121WAT      O75604   6.103   5.485   1.715
25121WAT     H175605   6.188   5.441   1.686
25121WAT     H275606   6.025   5.434   1.679
25122WAT      O75607   5.016   8.203   7.015
25122WAT     H175608   4.931   8.226   6.967
25122WAT     H275609   5.086   8.270   6.990
25123WAT      O75610   3.683   6.121   0.081
25123WAT     H175611   3.751   6.117   0.154
25123WAT     H275612   3.728   6.113  -0.008
25124WAT      O75613   7.771   9.701   5.373
25124WAT     H175614   7.841   9.772   5.384
25124WAT     H275615   7.809   9.613   5.403
25125WAT      O75616   9.824   5.201   2.525
25125WAT     H175617   9.884   5.163   2.597
25125WAT     H275618   9.798   5.294   2.550
25126WAT      O75619   1.145   3.352   2.504
25126WAT     H175620   1.112   3.356   2.410
25126WAT     H275621   1.107   3.429   2.556
25127WAT      O75622   8.903   3.833   2.725
25127WAT     H175623   8.831   3.834   2.655
25127WAT     H275624   8.871   3.881   2.806
25128WAT      O75625   7.317   5.025   6.230
25128WAT     H175626   7.308   4.967   6.312
25128WAT     H275627   7.235   5.016   6.174
25129WAT      O75628   3.152   1.157   5.292
25129WAT     H175629   3.100   1.116   5.217
25129WAT     H275630   3.250   1.141   5.278
25130WAT      O75631   0.900   3.078   4.735
25130WAT     H175632   0.904   3.068   4.636
25130WAT     H275633   0.905   2.988   4.778
25131WAT      O75634   3.849   1.216   5.484
25131WAT     H175635   3.837   1.304   5.439
25131WAT     H275636   3.942   1.183   5.468
25132WAT      O75637   4.907   5.029   3.104
25132WAT     H175638   4.818   5.001   3.140
25132WAT     H275639   4.969   4.950   3.103
25133WAT      O75640   9.136   8.865   1.798
25133WAT     H175641   9.046   8.828   1.773
25133WAT     H275642   9.135   8.964   1.786
25134WAT      O75643   4.565   4.543   9.782
25134WAT     H175644   4.560   4.511   9.687
25134WAT     H275645   4.495   4.497   9.837
25135WAT      O75646   7.068   7.527   8.243
25135WAT     H175647   6.975   7.492   8.253
25135WAT     H275648   7.068   7.626   8.254
25136WAT      O75649   1.934   9.088   0.899
25136WAT     H175650   2.008   9.141   0.940
25136WAT     H275651   1.972   9.008   0.852
25137WAT      O75652   3.901   0.039   9.449
25137WAT     H175653   3.879   0.042   9.352
25137WAT     H275654   3.966   0.111   9.472
25138WAT      O75655   9.196   3.772   2.112
25138WAT     H175656   9.135   3.798   2.188
25138WAT     H275657   9.163   3.686   2.071
25139WAT      O75658   0.297   6.061   2.135
25139WAT     H175659   0.372   6.127   2.143
25139WAT     H275660   0.210   6.110   2.130
25140WAT      O75661   8.260   7.030   5.053
25140WAT     H175662   8.208   6.951   5.020
25140WAT     H275663   8.234   7.111   5.001
25141WAT      O75664   2.650   0.644   3.087
25141WAT     H175665   2.575   0.627   3.023
25141WAT     H275666   2.668   0.742   3.092
25142WAT      O75667   3.602   6.926   7.066
25142WAT     H175668   3.546   6.956   6.989
25142WAT     H275669   3.655   7.004   7.101
25143WAT      O75670   4.693   9.656   2.095
25143WAT     H175671   4.618   9.602   2.057
25143WAT     H275672   4.757   9.682   2.023
25144WAT      O75673   2.676   6.968   6.571
25144WAT     H175674   2.602   6.958   6.505
25144WAT     H275675   2.646   7.025   6.647
25145WAT      O75676   7.880   1.767   0.774
25145WAT     H175677   7.813   1.770   0.700
25145WAT     H275678   7.833   1.761   0.862
25146WAT      O75679   8.164   8.147   5.601
25146WAT     H175680   8.125   8.102   5.521
25146WAT     H275681   8.242   8.094   5.634
25147WAT      O75682   3.281   3.474   9.726
25147WAT     H175683   3.354   3.490   9.793
25147WAT     H275684   3.235   3.388   9.747
25148WAT      O75685   1.611   0.582   5.459
25148WAT     H175686   1.586   0.654   5.523
25148WAT     H275687   1.663   0.511   5.508
25149WAT      O75688   1.299   4.126   0.334
25149WAT     H175689   1.383   4.177   0.354
25149WAT     H275690   1.237   4.183   0.280
25150WAT      O75691   2.076   1.970   6.162
25150WAT     H175692   2.123   2.038   6.105
25150WAT     H275693   2.128   1.885   6.162
25151WAT      O75694   0.587   4.170   6.158
25151WAT     H175695   0.586   4.226   6.241
25151WAT     H275696   0.498   4.127   6.146
25152WAT      O75697   0.436   4.510   9.305
25152WAT     H175698   0.477   4.590   9.263
25152WAT     H275699   0.461   4.506   9.401
25153WAT      O75700   2.464   0.603   4.058
25153WAT     H175701   2.496   0.528   4.002
25153WAT     H275702   2.542   0.658   4.088
25154WAT      O75703   3.292   5.465   3.992
25154WAT     H175704   3.347   5.383   4.009
25154WAT     H275705   3.266   5.468   3.896
25155WAT      O75706   7.288   2.165   7.799
25155WAT     H175707   7.198   2.164   7.842
25155WAT     H275708   7.307   2.076   7.759
25156WAT      O75709   7.317   5.677   3.280
25156WAT     H175710   7.304   5.612   3.355
25156WAT     H275711   7.406   5.722   3.290
25157WAT      O75712   9.252   6.598   2.679
25157WAT     H175713   9.187   6.535   2.636
25157WAT     H275714   9.323   6.545   2.726
25158WAT      O75715   4.657   1.661   2.582
25158WAT     H175716   4.721   1.737   2.568
25158WAT     H275717   4.708   1.575   2.586
25159WAT      O75718   2.255   0.862   1.654
25159WAT     H175719   2.251   0.789   1.585
25159WAT     H275720   2.350   0.892   1.665
25160WAT      O75721   6.416   0.553   9.348
25160WAT     H175722   6.440   0.636   9.298
25160WAT     H275723   6.351   0.500   9.294
25161WAT      O75724   3.672   2.944   6.255
25161WAT     H175725   3.672   2.940   6.155
25161WAT     H275726   3.660   3.038   6.285
25162WAT      O75727   2.476   5.307   2.639
25162WAT     H175728   2.419   5.295   2.557
25162WAT     H275729   2.444   5.386   2.690
25163WAT      O75730   6.888   3.042   2.137
25163WAT     H175731   6.977   3.057   2.093
25163WAT     H275732   6.857   3.128   2.179
25164WAT      O75733   4.490   1.642   1.517
25164WAT     H175734   4.586   1.639   1.546
25164WAT     H275735   4.444   1.559   1.548
25165WAT      O75736   9.607   6.272   5.626
25165WAT     H175737   9.520   6.264   5.674
25165WAT     H275738   9.598   6.335   5.549
25166WAT      O75739   8.873   6.561   6.268
25166WAT     H175740   8.839   6.532   6.178
25166WAT     H275741   8.935   6.639   6.256
25167WAT      O75742   2.659   9.713   8.617
25167WAT     H175743   2.661   9.627   8.667
25167WAT     H275744   2.644   9.695   8.520
25168WAT      O75745   0.605   8.967   1.867
25168WAT     H175746   0.700   8.969   1.836
25168WAT     H275747   0.559   9.051   1.840
25169WAT      O75748   3.197   6.764   9.869
25169WAT     H175749   3.262   6.815   9.924
25169WAT     H275750   3.156   6.691   9.924
25170WAT      O75751   9.645   9.450   7.046
25170WAT     H175752   9.686   9.502   6.971
25170WAT     H275753   9.621   9.512   7.120
25171WAT      O75754   8.069   5.938   0.584
25171WAT     H175755   8.047   6.009   0.516
25171WAT     H275756   8.040   5.969   0.674
25172WAT      O75757   2.356   9.760   8.988
25172WAT     H175758   2.371   9.854   8.960
25172WAT     H275759   2.405   9.742   9.073
25173WAT      O75760   1.801   6.960   5.297
25173WAT     H175761   1.857   7.000   5.371
25173WAT     H275762   1.707   6.951   5.329
25174WAT      O75763   3.313   4.384   7.154
25174WAT     H175764   3.264   4.336   7.227
25174WAT     H275765   3.356   4.318   7.093
25175WAT      O75766   1.885   5.003   7.061
25175WAT     H175767   1.874   4.953   7.147
25175WAT     H275768   1.914   5.096   7.081
25176WAT      O75769   5.070   8.477   9.726
25176WAT     H175770   5.134   8.496   9.651
25176WAT     H275771   4.996   8.544   9.724
25177WAT      O75772   1.379   6.289   5.638
25177WAT     H175773   1.376   6.257   5.733
25177WAT     H275774   1.294   6.263   5.592
25178WAT      O75775   9.290   4.898   6.205
25178WAT     H175776   9.318   4.808   6.240
25178WAT     H275777   9.361   4.965   6.225
25179WAT      O75778   1.457   4.300   2.022
25179WAT     H175779   1.485   4.395   2.005
25179WAT     H275780   1.489   4.272   2.112
25180WAT      O75781   4.781   0.246   2.568
25180WAT     H175782   4.787   0.166   2.628
25180WAT     H275783   4.862   0.304   2.582
25181WAT      O75784   4.484   9.473   1.987
25181WAT     H175785   4.428   9.504   1.911
25181WAT     H275786   4.432   9.481   2.072
25182WAT      O75787   7.015   5.447   5.061
25182WAT     H175788   6.916   5.462   5.057
25182WAT     H275789   7.040   5.369   5.004
25183WAT      O75790   5.254   0.709   8.679
25183WAT     H175791   5.340   0.667   8.648
25183WAT     H275792   5.250   0.803   8.646
25184WAT      O75793   0.258   9.193   7.870
25184WAT     H175794   0.171   9.147   7.854
25184WAT     H275795   0.290   9.174   7.963
25185WAT      O75796   3.573   2.844   9.860
25185WAT     H175797   3.578   2.853   9.959
25185WAT     H275798   3.479   2.824   9.833
25186WAT      O75799   2.903   7.421   1.874
25186WAT     H175800   2.929   7.326   1.887
25186WAT     H275801   2.856   7.432   1.786
25187WAT      O75802   6.178   0.002   4.887
25187WAT     H175803   6.144   0.058   4.811
25187WAT     H275804   6.186  -0.093   4.857
25188WAT      O75805   4.174   6.769   0.712
25188WAT     H175806   4.093   6.710   0.711
25188WAT     H275807   4.164   6.840   0.643
25189WAT      O75808   7.504   3.496   3.275
25189WAT     H175809   7.450   3.571   3.237
25189WAT     H275810   7.592   3.531   3.309
25190WAT      O75811   0.469   3.907   1.831
25190WAT     H175812   0.444   3.917   1.928
25190WAT     H275813   0.423   3.977   1.778
25191WAT      O75814   0.039   9.172   1.258
25191WAT     H175815  -0.008   9.240   1.315
25191WAT     H275816  -0.021   9.094   1.243
25192WAT      O75817   8.097   6.674   4.143
25192WAT     H175818   8.013   6.667   4.198
25192WAT     H275819   8.103   6.596   4.081
25193WAT      O75820   8.482   5.005   8.144
25193WAT     H175821   8.518   4.993   8.237
25193WAT     H275822   8.557   5.029   8.082
25194WAT      O75823   2.526   8.551   0.551
25194WAT     H175824   2.617   8.531   0.516
25194WAT     H275825   2.492   8.635   0.509
25195WAT      O75826   9.630   9.350   5.040
25195WAT     H175827   9.728   9.372   5.041
25195WAT     H275828   9.591   9.370   5.130
25196WAT      O75829   2.012   4.431   0.467
25196WAT     H175830   2.049   4.357   0.411
25196WAT     H275831   1.944   4.394   0.531
25197WAT      O75832   2.303   3.167   9.609
25197WAT     H175833   2.235   3.218   9.557
25197WAT     H275834   2.324   3.217   9.694
25198WAT      O75835   8.008   1.644   4.582
25198WAT     H175836   8.059   1.730   4.588
25198WAT     H275837   8.054   1.583   4.518
25199WAT      O75838   1.101   2.561   2.148
25199WAT     H175839   1.013   2.526   2.179
25199WAT     H275840   1.160   2.485   2.122
25200WAT      O75841   2.165   3.663   5.370
25200WAT     H175842   2.154   3.624   5.279
25200WAT     H275843   2.081   3.647   5.423
25201WAT      O75844   7.247   1.124   0.272
25201WAT     H175845   7.223   1.169   0.186
25201WAT     H275846   7.325   1.063   0.258
25202WAT      O75847   8.201   2.551   7.904
25202WAT     H175848   8.133   2.541   7.976
25202WAT     H275849   8.210   2.647   7.879
25203WAT      O75850   0.738   0.706   7.940
25203WAT     H175851   0.652   0.663   7.967
25203WAT     H275852   0.776   0.659   7.861
25204WAT      O75853   4.618   6.945   2.014
25204WAT     H175854   4.708   6.974   1.981
25204WAT     H275855   4.604   6.980   2.107
25205WAT      O75856   5.903   0.587   5.630
25205WAT     H175857   5.946   0.559   5.715
25205WAT     H275858   5.806   0.561   5.631
25206WAT      O75859   7.878   2.009   9.117
25206WAT     H175860   7.853   1.972   9.206
25206WAT     H275861   7.971   2.045   9.121
25207WAT      O75862   4.691   2.636   6.116
25207WAT     H175863   4.728   2.649   6.024
25207WAT     H275864   4.629   2.558   6.116
25208WAT      O75865   1.638   1.326   4.941
25208WAT     H175866   1.701   1.252   4.916
25208WAT     H275867   1.670   1.412   4.901
25209WAT      O75868   1.139   8.543   8.413
25209WAT     H175869   1.148   8.582   8.321
25209WAT     H275870   1.096   8.611   8.473
25210WAT      O75871   9.253   6.879   9.174
25210WAT     H175872   9.201   6.963   9.157
25210WAT     H275873   9.279   6.838   9.086
25211WAT      O75874   1.111   0.318   8.354
25211WAT     H175875   1.051   0.398   8.367
25211WAT     H275876   1.057   0.235   8.366
25212WAT      O75877   2.949   4.832   0.857
25212WAT     H175878   3.033   4.819   0.910
25212WAT     H275879   2.931   4.750   0.802
25213WAT      O75880   7.703   2.214   0.047
25213WAT     H175881   7.634   2.143   0.032
25213WAT     H275882   7.783   2.195  -0.009
25214WAT      O75883   7.615   8.501   6.692
25214WAT     H175884   7.589   8.557   6.771
25214WAT     H275885   7.686   8.436   6.719
25215WAT      O75886   4.118   3.568   7.711
25215WAT     H175887   4.143   3.651   7.661
25215WAT     H275888   4.171   3.491   7.676
25216WAT      O75889   8.965   6.273   2.229
25216WAT     H175890   8.949   6.357   2.280
25216WAT     H275891   8.944   6.194   2.286
25217WAT      O75892   3.520   2.751   1.843
25217WAT     H175893   3.534   2.780   1.938
25217WAT     H275894   3.427   2.715   1.833
25218WAT      O75895   5.549   8.094   7.022
25218WAT     H175896   5.608   8.085   6.942
25218WAT     H275897   5.565   8.017   7.084
25219WAT      O75898   4.716   4.949   6.617
25219WAT     H175899   4.661   4.996   6.548
25219WAT     H275900   4.662   4.938   6.700
25220WAT      O75901   1.499   5.850   2.023
25220WAT     H175902   1.455   5.918   2.081
25220WAT     H275903   1.457   5.851   1.932
25221WAT      O75904   1.965   4.403   8.814
25221WAT     H175905   2.035   4.342   8.776
25221WAT     H275906   1.897   4.350   8.864
25222WAT      O75907   0.861   4.587   9.689
25222WAT     H175908   0.766   4.557   9.696
25222WAT     H275909   0.918   4.530   9.748
25223WAT      O75910   5.659   1.802   2.176
25223WAT     H175911   5.628   1.876   2.117
25223WAT     H275912   5.711   1.840   2.253
25224WAT      O75913   9.508   1.105   2.156
25224WAT     H175914   9.509   1.194   2.200
25224WAT     H275915   9.440   1.104   2.083
25225WAT      O75916   4.463   1.482   5.740
25225WAT     H175917   4.545   1.464   5.686
25225WAT     H275918   4.474   1.567   5.792
25226WAT      O75919   9.850   0.402   0.778
25226WAT     H175920   9.901   0.319   0.758
25226WAT     H275921   9.914   0.478   0.791
25227WAT      O75922   5.882   5.333   4.098
25227WAT     H175923   5.935   5.375   4.171
25227WAT     H275924   5.834   5.403   4.046
25228WAT      O75925   8.061   7.434   0.382
25228WAT     H175926   8.096   7.469   0.469
25228WAT     H275927   7.970   7.471   0.365
25229WAT      O75928   1.071   8.873   5.980
25229WAT     H175929   1.119   8.931   6.046
25229WAT     H275930   1.040   8.929   5.903
25230WAT      O75931   1.174   0.096   7.195
25230WAT     H175932   1.215   0.011   7.226
25230WAT     H275933   1.180   0.102   7.096
25231WAT      O75934   3.948   8.041   6.738
25231WAT     H175935   3.933   7.997   6.650
25231WAT     H275936   3.919   7.979   6.811
25232WAT      O75937   7.379   3.108   6.038
25232WAT     H175938   7.455   3.082   6.098
25232WAT     H275939   7.301   3.134   6.095
25233WAT      O75940   4.056   1.487   5.185
25233WAT     H175941   3.975   1.476   5.242
25233WAT     H275942   4.036   1.460   5.091
25234WAT      O75943   7.992   6.031   1.696
25234WAT     H175944   7.957   6.104   1.637
25234WAT     H275945   7.940   6.029   1.781
25235WAT      O75946   0.378   2.433   0.509
25235WAT     H175947   0.294   2.481   0.483
25235WAT     H275948   0.457   2.484   0.475
25236WAT      O75949   8.804   4.985   6.060
25236WAT     H175950   8.759   5.021   6.141
25236WAT     H275951   8.837   4.892   6.078
25237WAT      O75952   7.480   2.973   4.811
25237WAT     H175953   7.417   2.896   4.811
25237WAT     H275954   7.557   2.953   4.871
25238WAT      O75955   4.857   2.256   6.867
25238WAT     H175956   4.830   2.288   6.776
25238WAT     H275957   4.938   2.198   6.860
25239WAT      O75958   0.178   3.493   7.211
25239WAT     H175959   0.121   3.495   7.129
25239WAT     H275960   0.272   3.472   7.185
25240WAT      O75961   4.917   1.909   0.770
25240WAT     H175962   4.928   1.997   0.816
25240WAT     H275963   4.872   1.844   0.831
25241WAT      O75964   4.389   9.584   0.848
25241WAT     H175965   4.365   9.512   0.782
25241WAT     H275966   4.470   9.555   0.899
25242WAT      O75967   7.941   3.475   8.029
25242WAT     H175968   8.007   3.481   7.954
25242WAT     H275969   7.908   3.567   8.051
25243WAT      O75970   4.048   7.900   4.780
25243WAT     H175971   4.100   7.819   4.754
25243WAT     H275972   4.101   7.982   4.760
25244WAT      O75973   9.876   5.751   0.121
25244WAT     H175974   9.847   5.675   0.063
25244WAT     H275975   9.963   5.786   0.088
25245WAT      O75976   6.363   3.052   0.821
25245WAT     H175977   6.309   3.122   0.867
25245WAT     H275978   6.365   3.071   0.723
25246WAT      O75979   2.393   6.014   4.217
25246WAT     H175980   2.459   6.021   4.292
25246WAT     H275981   2.308   5.973   4.250
25247WAT      O75982   9.563   3.469   7.956
25247WAT     H175983   9.613   3.482   8.042
25247WAT     H275984   9.520   3.379   7.955
25248WAT      O75985   2.371   4.567   6.853
25248WAT     H175986   2.450   4.513   6.883
25248WAT     H275987   2.366   4.651   6.907
25249WAT      O75988   5.938   3.676   0.785
25249WAT     H175989   5.851   3.664   0.833
25249WAT     H275990   6.014   3.660   0.848
25250WAT      O75991   9.660   9.053   0.435
25250WAT     H175992   9.703   8.981   0.381
25250WAT     H275993   9.640   9.131   0.376
25251WAT      O75994   3.380   3.907   2.643
25251WAT     H175995   3.285   3.889   2.617
25251WAT     H275996   3.386   3.994   2.691
25252WAT      O75997   9.053   8.624   9.297
25252WAT     H175998   9.126   8.574   9.343
25252WAT     H275999   8.977   8.637   9.361
25253WAT      O76000   9.051   3.539   2.046
25253WAT     H176001   9.011   3.581   1.965
25253WAT     H276002   9.019   3.444   2.053
25254WAT      O76003   2.455   5.980   6.535
25254WAT     H176004   2.473   6.073   6.502
25254WAT     H276005   2.464   5.978   6.635
25255WAT      O76006   8.469   8.530   2.486
25255WAT     H176007   8.496   8.435   2.496
25255WAT     H276008   8.549   8.589   2.498
25256WAT      O76009   9.285   0.487   4.659
25256WAT     H176010   9.305   0.425   4.735
25256WAT     H276011   9.258   0.434   4.579
25257WAT      O76012   1.650   2.206   0.471
25257WAT     H176013   1.591   2.146   0.417
25257WAT     H276014   1.672   2.163   0.558
25258WAT      O76015   1.883   4.925   7.360
25258WAT     H176016   1.843   4.882   7.441
25258WAT     H276017   1.838   5.012   7.341
25259WAT      O76018   7.257   1.106   7.479
25259WAT     H176019   7.291   1.016   7.451
25259WAT     H276020   7.177   1.129   7.425
25260WAT      O76021   4.543   3.810   0.164
25260WAT     H176022   4.541   3.758   0.249
25260WAT     H276023   4.503   3.756   0.090
25261WAT      O76024   6.303   6.119   0.702
25261WAT     H176025   6.241   6.046   0.672
25261WAT     H276026   6.356   6.089   0.781
25262WAT      O76027   4.376   5.447   4.995
25262WAT     H176028   4.428   5.373   5.039
25262WAT     H276029   4.330   5.411   4.914
25263WAT      O76030   3.548   7.488   3.584
25263WAT     H176031   3.592   7.471   3.495
25263WAT     H276032   3.488   7.567   3.577
25264WAT      O76033   3.796   1.564   7.629
25264WAT     H176034   3.820   1.657   7.601
25264WAT     H276035   3.745   1.520   7.555
25265WAT      O76036   2.941   2.371   7.762
25265WAT     H176037   2.852   2.353   7.719
25265WAT     H276038   2.926   2.408   7.854
25266WAT      O76039   8.134   1.867   0.024
25266WAT     H176040   8.193   1.924  -0.033
25266WAT     H276041   8.076   1.925   0.081
25267WAT      O76042   7.427   3.017   8.905
25267WAT     H176043   7.498   2.949   8.922
25267WAT     H276044   7.462   3.089   8.846
25268WAT      O76045   7.786   3.560   1.753
25268WAT     H176046   7.846   3.489   1.789
25268WAT     H276047   7.735   3.602   1.828
25269WAT      O76048   4.776   1.368   8.114
25269WAT     H176049   4.677   1.373   8.113
25269WAT     H276050   4.806   1.303   8.185
25270WAT      O76051   7.054   0.095   6.122
25270WAT     H176052   7.142   0.138   6.103
25270WAT     H276053   7.019   0.127   6.210
25271WAT      O76054   7.876   4.294   5.044
25271WAT     H176055   7.907   4.199   5.036
25271WAT     H276056   7.952   4.355   5.021
25272WAT      O76057   9.530   2.792   8.533
25272WAT     H176058   9.438   2.816   8.565
25272WAT     H276059   9.573   2.729   8.598
25273WAT      O76060   5.183   6.218   8.814
25273WAT     H176061   5.245   6.242   8.889
25273WAT     H276062   5.232   6.168   8.743
25274WAT      O76063   6.835   6.309   0.473
25274WAT     H176064   6.820   6.403   0.443
25274WAT     H276065   6.917   6.305   0.530
25275WAT      O76066   1.682   8.756   2.778
25275WAT     H176067   1.694   8.729   2.683
25275WAT     H276068   1.713   8.682   2.838
25276WAT      O76069   6.056   6.765   1.944
25276WAT     H176070   5.988   6.837   1.956
25276WAT     H276071   6.096   6.742   2.032
25277WAT      O76072   0.917   4.105   0.502
25277WAT     H176073   0.878   4.186   0.458
25277WAT     H276074   0.971   4.054   0.435
25278WAT      O76075   8.980   1.548   1.834
25278WAT     H176076   8.999   1.510   1.925
25278WAT     H276077   9.040   1.626   1.817
25279WAT      O76078   0.244   5.129   1.763
25279WAT     H176079   0.195   5.147   1.848
25279WAT     H276080   0.187   5.155   1.685
25280WAT      O76081   7.541   5.833   7.659
25280WAT     H176082   7.547   5.791   7.749
25280WAT     H276083   7.555   5.763   7.589
25281WAT      O76084   1.640   1.206   5.648
25281WAT     H176085   1.697   1.288   5.654
25281WAT     H276086   1.595   1.202   5.559
25282WAT      O76087   3.999   2.857   4.036
25282WAT     H176088   3.909   2.898   4.018
25282WAT     H276089   4.058   2.869   3.956
25283WAT      O76090   7.489   5.690   9.148
25283WAT     H176091   7.535   5.641   9.074
25283WAT     H276092   7.423   5.629   9.193
25284WAT      O76093   0.383   8.459   2.644
25284WAT     H176094   0.385   8.492   2.739
25284WAT     H276095   0.293   8.479   2.604
25285WAT      O76096   9.003   3.868   1.632
25285WAT     H176097   9.037   3.906   1.718
25285WAT     H276098   9.081   3.836   1.577
25286WAT      O76099   8.751   2.113   5.300
25286WAT     H176100   8.795   2.195   5.265
25286WAT     H276101   8.667   2.095   5.247
25287WAT      O76102   3.309   2.213   3.717
25287WAT     H176103   3.297   2.313   3.724
25287WAT     H276104   3.387   2.185   3.771
25288WAT      O76105   0.505   7.194   0.134
25288WAT     H176106   0.440   7.141   0.188
25288WAT     H276107   0.551   7.134   0.069
25289WAT      O76108   6.649   5.122   2.773
25289WAT     H176109   6.700   5.135   2.858
25289WAT     H276110   6.565   5.176   2.776
25290WAT      O76111   8.100   8.977   1.888
25290WAT     H176112   8.024   8.931   1.933
25290WAT     H276113   8.175   8.913   1.875
25291WAT      O76114   7.623   1.302   1.233
25291WAT     H176115   7.671   1.245   1.300
25291WAT     H276116   7.530   1.321   1.267
25292WAT      O76117   0.741   4.616   7.336
25292WAT     H176118   0.808   4.682   7.369
25292WAT     H276119   0.788   4.531   7.312
25293WAT      O76120   8.711   8.789   4.687
25293WAT     H176121   8.684   8.878   4.648
25293WAT     H276122   8.643   8.720   4.661
25294WAT      O76123   0.736   9.211   2.928
25294WAT     H176124   0.780   9.193   2.840
25294WAT     H276125   0.656   9.269   2.915
25295WAT      O76126   5.339   3.406   6.891
25295WAT     H176127   5.260   3.424   6.949
25295WAT     H276128   5.364   3.488   6.841
25296WAT      O76129   5.139   1.264   9.480
25296WAT     H176130   5.107   1.205   9.555
25296WAT     H276131   5.063   1.279   9.416
25297WAT      O76132   1.115   4.361   0.269
25297WAT     H176133   1.091   4.456   0.248
25297WAT     H276134   1.051   4.300   0.222
25298WAT      O76135   9.662   5.381   8.519
25298WAT     H176136   9.713   5.423   8.444
25298WAT     H276137   9.589   5.443   8.548
25299WAT      O76138   8.406   6.903   9.697
25299WAT     H176139   8.371   6.997   9.704
25299WAT     H276140   8.356   6.854   9.626
25300WAT      O76141   5.376   2.456   3.732
25300WAT     H176142   5.402   2.552   3.741
25300WAT     H276143   5.390   2.426   3.638
25301WAT      O76144   4.794   6.424   6.202
25301WAT     H176145   4.886   6.425   6.163
25301WAT     H276146   4.798   6.458   6.296
25302WAT      O76147   1.607   8.246   8.157
25302WAT     H176148   1.634   8.237   8.061
25302WAT     H276149   1.634   8.336   8.190
25303WAT      O76150   6.682   3.722   4.006
25303WAT     H176151   6.713   3.774   3.926
25303WAT     H276152   6.734   3.751   4.086
25304WAT      O76153   7.435   6.746   8.222
25304WAT     H176154   7.420   6.674   8.289
25304WAT     H276155   7.349   6.792   8.202
25305WAT      O76156   1.915   5.204   7.634
25305WAT     H176157   1.999   5.248   7.604
25305WAT     H276158   1.927   5.105   7.636
25306WAT      O76159   5.692   4.441   2.002
25306WAT     H176160   5.631   4.413   2.076
25306WAT     H276161   5.767   4.375   1.995
25307WAT      O76162   9.037   4.378   4.444
25307WAT     H176163   9.133   4.354   4.458
25307WAT     H276164   8.989   4.300   4.403
25308WAT      O76165   0.765   3.325   0.157
25308WAT     H176166   0.780   3.273   0.073
25308WAT     H276167   0.670   3.316   0.186
25309WAT      O76168   8.342   0.953   1.949
25309WAT     H176169   8.407   0.997   1.887
25309WAT     H276170   8.343   1.000   2.037
25310WAT      O76171   4.361   5.233   0.670
25310WAT     H176172   4.323   5.289   0.596
25310WAT     H276173   4.375   5.290   0.751
25311WAT      O76174   3.918   7.729   9.439
25311WAT     H176175   3.845   7.764   9.498
25311WAT     H276176   3.978   7.805   9.411
25312WAT      O76177   6.183   7.349   4.008
25312WAT     H176178   6.241   7.425   4.038
25312WAT     H276179   6.090   7.364   4.043
25313WAT      O76180   5.211   6.674   8.601
25313WAT     H176181   5.173   6.665   8.693
25313WAT     H276182   5.151   6.631   8.534
25314WAT      O76183   7.050   3.375   1.735
25314WAT     H176184   7.035   3.381   1.834
25314WAT     H276185   6.975   3.421   1.687
25315WAT      O76186   4.991   5.663   7.984
25315WAT     H176187   5.009   5.589   8.049
25315WAT     H276188   4.900   5.653   7.946
25316WAT      O76189   8.405   4.595   2.746
25316WAT     H176190   8.337   4.667   2.734
25316WAT     H276191   8.485   4.631   2.794
25317WAT      O76192   7.823   4.406   2.435
25317WAT     H176193   7.796   4.338   2.368
25317WAT     H276194   7.789   4.380   2.525
25318WAT      O76195   4.701   6.809   1.559
25318WAT     H176196   4.737   6.767   1.476
25318WAT     H276197   4.621   6.864   1.537
25319WAT      O76198   8.965   7.852   9.844
25319WAT     H176199   8.892   7.887   9.902
25319WAT     H276200   8.926   7.813   9.760
25320WAT      O76201   3.634   4.841   8.841
25320WAT     H176202   3.687   4.758   8.827
25320WAT     H276203   3.546   4.818   8.883
25321WAT      O76204   9.707   3.495   8.175
25321WAT     H176205   9.788   3.554   8.176
25321WAT     H276206   9.643   3.525   8.246
25322WAT      O76207   7.833   1.978   4.274
25322WAT     H176208   7.748   1.934   4.304
25322WAT     H276209   7.882   2.014   4.354
25323WAT      O76210   9.328   2.862   2.806
25323WAT     H176211   9.348   2.809   2.724
25323WAT     H276212   9.356   2.810   2.887
25324WAT      O76213   0.846   7.986   6.489
25324WAT     H176214   0.868   7.922   6.562
25324WAT     H276215   0.833   8.077   6.527
25325WAT      O76216   4.544   7.195   3.647
25325WAT     H176217   4.497   7.160   3.728
25325WAT     H276218   4.637   7.157   3.643
25326WAT      O76219   5.168   5.726   8.195
25326WAT     H176220   5.081   5.719   8.146
25326WAT     H276221   5.189   5.639   8.239
25327WAT      O76222   6.267   1.220   2.919
25327WAT     H176223   6.307   1.151   2.858
25327WAT     H276224   6.185   1.259   2.876
25328WAT      O76225   5.688   6.382   0.414
25328WAT     H176226   5.620   6.312   0.437
25328WAT     H276227   5.697   6.388   0.315
25329WAT      O76228   3.175   7.592   4.150
25329WAT     H176229   3.178   7.623   4.055
25329WAT     H276230   3.163   7.493   4.153
25330WAT      O76231   0.371   8.846   7.278
25330WAT     H176232   0.293   8.878   7.331
25330WAT     H276233   0.360   8.872   7.182
25331WAT      O76234   9.330   4.120   8.252
25331WAT     H176235   9.255   4.134   8.188
25331WAT     H276236   9.374   4.032   8.235
25332WAT      O76237   8.810   5.441   4.410
25332WAT     H176238   8.724   5.471   4.452
25332WAT     H276239   8.820   5.342   4.421
25333WAT      O76240   3.644   9.093   5.757
25333WAT     H176241   3.712   9.103   5.685
25333WAT     H276242   3.650   9.001   5.796
25334WAT      O76243   6.063   4.848   1.497
25334WAT     H176244   6.034   4.784   1.425
25334WAT     H276245   5.982   4.884   1.543
25335WAT      O76246   1.153   5.758   6.323
25335WAT     H176247   1.069   5.805   6.295
25335WAT     H276248   1.175   5.783   6.417
25336WAT      O76249   2.016   5.255   7.098
25336WAT     H176250   2.029   5.341   7.048
25336WAT     H276251   1.980   5.274   7.189
25337WAT      O76252   2.020   8.310   4.540
25337WAT     H176253   2.081   8.241   4.500
25337WAT     H276254   2.074   8.385   4.577
25338WAT      O76255   8.251   4.724   8.813
25338WAT     H176256   8.259   4.818   8.845
25338WAT     H276257   8.302   4.713   8.728
25339WAT      O76258   7.397   9.345   8.218
25339WAT     H176259   7.434   9.422   8.166
25339WAT     H276260   7.441   9.260   8.187
25340WAT      O76261   1.609   2.261   3.118
25340WAT     H176262   1.686   2.299   3.170
25340WAT     H276263   1.640   2.180   3.068
25341WAT      O76264   6.626   8.709   2.629
25341WAT     H176265   6.631   8.744   2.535
25341WAT     H276266   6.707   8.654   2.648
25342WAT      O76267   7.917   8.880   2.054
25342WAT     H176268   7.992   8.835   2.101
25342WAT     H276269   7.838   8.885   2.115
25343WAT      O76270   0.192   9.416   7.714
25343WAT     H176271   0.226   9.338   7.767
25343WAT     H276272   0.180   9.389   7.619
25344WAT      O76273   8.662   9.029   1.497
25344WAT     H176274   8.627   9.117   1.463
25344WAT     H276275   8.621   9.010   1.587
25345WAT      O76276   2.205   2.644   4.476
25345WAT     H176277   2.131   2.705   4.504
25345WAT     H276278   2.226   2.658   4.379
25346WAT      O76279   2.609   0.356   7.719
25346WAT     H176280   2.627   0.284   7.652
25346WAT     H276281   2.588   0.442   7.671
25347WAT      O76282   7.131   7.022   7.392
25347WAT     H176283   7.072   7.019   7.311
25347WAT     H276284   7.226   7.029   7.364
25348WAT      O76285   9.123   5.513   3.070
25348WAT     H176286   9.194   5.447   3.096
25348WAT     H276287   9.152   5.562   2.989
25349WAT      O76288   1.789   4.902   0.033
25349WAT     H176289   1.777   4.892   0.132
25349WAT     H276290   1.862   4.967   0.015
25350WAT      O76291   4.286   7.921   1.815
25350WAT     H176292   4.347   7.845   1.792
25350WAT     H276293   4.192   7.893   1.799
25351WAT      O76294   7.547   5.056   8.923
25351WAT     H176295   7.453   5.026   8.942
25351WAT     H276296   7.563   5.054   8.824
25352WAT      O76297   5.346   3.323   0.596
25352WAT     H176298   5.429   3.273   0.574
25352WAT     H276299   5.270   3.259   0.606
25353WAT      O76300   3.542   9.548   9.140
25353WAT     H176301   3.485   9.528   9.061
25353WAT     H276302   3.572   9.462   9.181
25354WAT      O76303   6.986   9.331   6.220
25354WAT     H176304   6.944   9.419   6.198
25354WAT     H276305   6.990   9.275   6.137
25355WAT      O76306   1.307   9.357   7.977
25355WAT     H176307   1.222   9.308   7.961
25355WAT     H276308   1.382   9.311   7.928
25356WAT      O76309   9.592   0.502   9.355
25356WAT     H176310   9.564   0.406   9.359
25356WAT     H276311   9.623   0.524   9.262
25357WAT      O76312   1.704   7.406   8.453
25357WAT     H176313   1.606   7.397   8.465
25357WAT     H276314   1.723   7.475   8.382
25358WAT      O76315   2.032   3.618   1.295
25358WAT     H176316   2.040   3.701   1.351
25358WAT     H276317   2.117   3.565   1.303
25359WAT      O76318   0.488   2.473   5.298
25359WAT     H176319   0.513   2.453   5.203
25359WAT     H276320   0.568   2.467   5.356
25360WAT      O76321   1.161   5.687   7.703
25360WAT     H176322   1.074   5.685   7.654
25360WAT     H276323   1.182   5.782   7.730
25361WAT      O76324   8.401   3.600   2.733
25361WAT     H176325   8.339   3.567   2.662
25361WAT     H276326   8.410   3.532   2.806
25362WAT      O76327   6.964   5.993   4.337
25362WAT     H176328   7.061   6.002   4.317
25362WAT     H276329   6.944   5.900   4.367
25363WAT      O76330   7.880   8.193   2.822
25363WAT     H176331   7.863   8.212   2.919
25363WAT     H276332   7.822   8.117   2.793
25364WAT      O76333   2.925   5.545   8.769
25364WAT     H176334   2.828   5.524   8.756
25364WAT     H276335   2.936   5.643   8.785
25365WAT      O76336   3.945   0.550   6.737
25365WAT     H176337   3.974   0.532   6.643
25365WAT     H276338   3.905   0.468   6.776
25366WAT      O76339   5.316   1.820   3.982
25366WAT     H176340   5.414   1.814   3.964
25366WAT     H276341   5.294   1.769   4.065
25367WAT      O76342   7.977   5.501   5.294
25367WAT     H176343   8.033   5.443   5.352
25367WAT     H276344   8.001   5.597   5.309
25368WAT      O76345   2.472   0.565   8.058
25368WAT     H176346   2.467   0.628   7.980
25368WAT     H276347   2.391   0.507   8.060
25369WAT      O76348   5.647   5.972   2.586
25369WAT     H176349   5.706   5.974   2.667
25369WAT     H276350   5.622   5.877   2.566
25370WAT      O76351   9.491   0.541   2.591
25370WAT     H176352   9.468   0.638   2.576
25370WAT     H276353   9.535   0.505   2.509
25371WAT      O76354   8.391   2.175   4.570
25371WAT     H176355   8.396   2.268   4.606
25371WAT     H276356   8.354   2.177   4.477
25372WAT      O76357   3.391   9.727   5.866
25372WAT     H176358   3.488   9.747   5.852
25372WAT     H276359   3.379   9.629   5.878
25373WAT      O76360   8.278   7.217   7.765
25373WAT     H176361   8.305   7.125   7.738
25373WAT     H276362   8.237   7.265   7.688
25374WAT      O76363   1.413   7.266   8.015
25374WAT     H176364   1.378   7.306   8.099
25374WAT     H276365   1.509   7.239   8.028
25375WAT      O76366   3.748   2.318   4.213
25375WAT     H176367   3.711   2.259   4.284
25375WAT     H276368   3.732   2.414   4.237
25376WAT      O76369   6.295   1.887   8.110
25376WAT     H176370   6.288   1.945   8.029
25376WAT     H276371   6.292   1.944   8.192
25377WAT      O76372   2.557   3.856   1.923
25377WAT     H176373   2.516   3.897   2.004
25377WAT     H276374   2.618   3.781   1.951
25378WAT      O76375   9.769   3.829   6.473
25378WAT     H176376   9.752   3.737   6.507
25378WAT     H276377   9.854   3.831   6.420
25379WAT      O76378   1.545   9.717   1.861
25379WAT     H176379   1.482   9.720   1.783
25379WAT     H276380   1.494   9.699   1.945
25380WAT      O76381   9.027   4.332   0.826
25380WAT     H176382   8.936   4.312   0.862
25380WAT     H276383   9.095   4.273   0.869
25381WAT      O76384   8.208   8.945   5.855
25381WAT     H176385   8.112   8.929   5.831
25381WAT     H276386   8.249   9.006   5.787
25382WAT      O76387   3.892   8.564   7.615
25382WAT     H176388   3.809   8.615   7.590
25382WAT     H276389   3.962   8.578   7.545
25383WAT      O76390   3.198   0.969   4.664
25383WAT     H176391   3.123   1.031   4.639
25383WAT     H276392   3.236   0.927   4.581
25384WAT      O76393   3.433   3.965   1.299
25384WAT     H176394   3.517   4.008   1.266
25384WAT     H276395   3.420   3.877   1.254
25385WAT      O76396   2.730   4.444   4.504
25385WAT     H176397   2.828   4.461   4.520
25385WAT     H276398   2.690   4.524   4.459
25386WAT      O76399   7.242   5.170   1.647
25386WAT     H176400   7.247   5.071   1.645
25386WAT     H276401   7.153   5.200   1.614
25387WAT      O76402   1.483   1.667   6.199
25387WAT     H176403   1.417   1.693   6.269
25387WAT     H276404   1.436   1.658   6.111
25388WAT      O76405   5.586   5.320   6.570
25388WAT     H176406   5.492   5.343   6.547
25388WAT     H276407   5.632   5.401   6.607
25389WAT      O76408   2.936   6.653   5.055
25389WAT     H176409   2.842   6.650   5.024
25389WAT     H276410   2.939   6.689   5.148
25390WAT      O76411   3.542   7.213   3.287
25390WAT     H176412   3.588   7.293   3.326
25390WAT     H276413   3.491   7.241   3.205
25391WAT      O76414   1.624   9.477   0.951
25391WAT     H176415   1.639   9.403   0.885
25391WAT     H276416   1.670   9.560   0.919
25392WAT      O76417   7.051   5.536   2.259
25392WAT     H176418   7.016   5.442   2.258
25392WAT     H276419   7.134   5.541   2.204
25393WAT      O76420   6.112   0.869   5.265
25393WAT     H176421   6.088   0.853   5.361
25393WAT     H276422   6.185   0.938   5.261
25394WAT      O76423   2.299   0.584   8.472
25394WAT     H176424   2.385   0.634   8.462
25394WAT     H276425   2.315   0.502   8.528
25395WAT      O76426   6.158   3.951   4.801
25395WAT     H176427   6.063   3.926   4.779
25395WAT     H276428   6.183   4.034   4.751
25396WAT      O76429   1.729   8.762   4.159
25396WAT     H176430   1.750   8.860   4.167
25396WAT     H276431   1.811   8.709   4.180
25397WAT      O76432   2.430   3.149   7.964
25397WAT     H176433   2.419   3.084   8.039
25397WAT     H276434   2.355   3.215   7.964
25398WAT      O76435   3.646   4.032   2.590
25398WAT     H176436   3.683   4.051   2.499
25398WAT     H276437   3.546   4.028   2.584
25399WAT      O76438   9.125   2.121   0.501
25399WAT     H176439   9.144   2.162   0.590
25399WAT     H276440   9.173   2.034   0.493
25400WAT      O76441   0.449   2.120   9.383
25400WAT     H176442   0.541   2.100   9.350
25400WAT     H276443   0.451   2.204   9.438
25401WAT      O76444   1.601   4.047   6.284
25401WAT     H176445   1.517   4.040   6.338
25401WAT     H276446   1.670   4.098   6.336
25402WAT      O76447   0.448   1.079   9.704
25402WAT     H176448   0.391   1.066   9.623
25402WAT     H276449   0.540   1.042   9.686
25403WAT      O76450   4.180   0.516   3.749
25403WAT     H176451   4.235   0.449   3.698
25403WAT     H276452   4.133   0.471   3.825
25404WAT      O76453   8.406   3.386   9.359
25404WAT     H176454   8.494   3.365   9.401
25404WAT     H276455   8.409   3.478   9.319
25405WAT      O76456   3.486   4.597   7.974
25405WAT     H176457   3.583   4.624   7.981
25405WAT     H276458   3.457   4.553   8.058
25406WAT      O76459   1.947   3.224   6.328
25406WAT     H176460   1.968   3.127   6.312
25406WAT     H276461   2.019   3.263   6.385
25407WAT      O76462   6.644   8.303   4.879
25407WAT     H176463   6.640   8.214   4.832
25407WAT     H276464   6.645   8.288   4.978
25408WAT      O76465   5.768   0.540   0.054
25408WAT     H176466   5.724   0.546   0.143
25408WAT     H276467   5.865   0.522   0.066
25409WAT      O76468   4.963   1.534   5.487
25409WAT     H176469   5.020   1.574   5.415
25409WAT     H276470   4.993   1.441   5.506
25410WAT      O76471   0.005   0.102   5.727
25410WAT     H176472   0.071   0.053   5.784
25410WAT     H276473   0.006   0.062   5.635
25411WAT      O76474   7.602   8.139   1.832
25411WAT     H176475   7.618   8.041   1.848
25411WAT     H276476   7.565   8.180   1.916
25412WAT      O76477   5.655   9.753   6.520
25412WAT     H176478   5.716   9.791   6.451
25412WAT     H276479   5.707   9.733   6.603
25413WAT      O76480   1.136   4.216   4.218
25413WAT     H176481   1.094   4.138   4.265
25413WAT     H276482   1.229   4.193   4.192
25414WAT      O76483   9.448   7.767   5.909
25414WAT     H176484   9.464   7.805   5.817
25414WAT     H276485   9.532   7.771   5.962
25415WAT      O76486   8.529   2.686   7.046
25415WAT     H176487   8.586   2.763   7.077
25415WAT     H276488   8.454   2.673   7.110
25416WAT      O76489   2.766   8.526   8.500
25416WAT     H176490   2.764   8.574   8.587
25416WAT     H276491   2.792   8.430   8.515
25417WAT      O76492   0.138   0.506   3.834
25417WAT     H176493   0.045   0.524   3.864
25417WAT     H276494   0.165   0.572   3.764
25418WAT      O76495   8.341   2.631   9.783
25418WAT     H176496   8.350   2.709   9.720
25418WAT     H276497   8.394   2.648   9.865
25419WAT      O76498   8.231   4.735   7.925
25419WAT     H176499   8.289   4.796   7.872
25419WAT     H276500   8.234   4.643   7.886
25420WAT      O76501   7.208   4.192   0.066
25420WAT     H176502   7.263   4.158  -0.010
25420WAT     H276503   7.232   4.142   0.149
25421WAT      O76504   0.460   3.797   7.226
25421WAT     H176505   0.429   3.865   7.293
25421WAT     H276506   0.473   3.842   7.138
25422WAT      O76507   8.315   7.482   3.372
25422WAT     H176508   8.233   7.517   3.327
25422WAT     H276509   8.390   7.547   3.359
25423WAT      O76510   8.378   2.743   4.504
25423WAT     H176511   8.410   2.833   4.474
25423WAT     H276512   8.278   2.743   4.508
25424WAT      O76513   9.408   0.841   0.940
25424WAT     H176514   9.469   0.770   0.906
25424WAT     H276515   9.319   0.802   0.961
25425WAT      O76516   0.354   0.181   5.466
25425WAT     H176517   0.359   0.126   5.383
25425WAT     H276518   0.262   0.219   5.475
25426WAT      O76519   6.520   1.421   8.887
25426WAT     H176520   6.547   1.374   8.802
25426WAT     H276521   6.580   1.499   8.902
25427WAT      O76522   4.983   5.803   6.865
25427WAT     H176523   4.948   5.742   6.794
25427WAT     H276524   5.035   5.750   6.932
25428WAT      O76525   0.878   8.487   4.557
25428WAT     H176526   0.797   8.429   4.542
25428WAT     H276527   0.960   8.434   4.536
25429WAT      O76528   6.808   0.629   3.093
25429WAT     H176529   6.820   0.647   3.191
25429WAT     H276530   6.725   0.575   3.078
25430WAT      O76531   6.514   7.388   9.725
25430WAT     H176532   6.482   7.331   9.649
25430WAT     H276533   6.455   7.373   9.805
25431WAT      O76534   9.811   8.580   6.445
25431WAT     H176535   9.795   8.499   6.502
25431WAT     H276536   9.883   8.636   6.487
25432WAT      O76537   0.803   8.602   3.541
25432WAT     H176538   0.722   8.611   3.599
25432WAT     H276539   0.859   8.685   3.548
25433WAT      O76540   3.791   2.918   2.400
25433WAT     H176541   3.766   2.997   2.455
25433WAT     H276542   3.773   2.937   2.304
25434WAT      O76543   5.910   1.698   2.056
25434WAT     H176544   5.817   1.729   2.076
25434WAT     H276545   5.937   1.731   1.965
25435WAT      O76546   1.306   7.953   4.349
25435WAT     H176547   1.337   7.939   4.255
25435WAT     H276548   1.237   8.026   4.350
25436WAT      O76549   8.891   3.238   3.702
25436WAT     H176550   8.910   3.336   3.710
25436WAT     H276551   8.796   3.224   3.676
25437WAT      O76552   2.784   2.045   5.682
25437WAT     H176553   2.771   2.101   5.599
25437WAT     H276554   2.694   2.016   5.716
25438WAT      O76555   6.181   8.587   2.175
25438WAT     H176556   6.229   8.544   2.099
25438WAT     H276557   6.231   8.668   2.205
25439WAT      O76558   8.686   1.743   0.250
25439WAT     H176559   8.661   1.662   0.197
25439WAT     H276560   8.734   1.808   0.190
25440WAT      O76561   2.103   0.192   3.376
25440WAT     H176562   2.082   0.220   3.283
25440WAT     H276563   2.168   0.116   3.375
25441WAT      O76564   9.783   4.618   0.371
25441WAT     H176565   9.835   4.558   0.431
25441WAT     H276566   9.700   4.571   0.340
25442WAT      O76567   5.667   9.834   9.072
25442WAT     H176568   5.732   9.763   9.045
25442WAT     H276569   5.581   9.821   9.023
25443WAT      O76570   2.254   1.768   6.140
25443WAT     H176571   2.289   1.739   6.051
25443WAT     H276572   2.300   1.716   6.213
25444WAT      O76573   3.143   8.634   3.215
25444WAT     H176574   3.090   8.603   3.136
25444WAT     H276575   3.183   8.555   3.262
25445WAT      O76576   5.695   5.030   8.838
25445WAT     H176577   5.638   4.956   8.803
25445WAT     H276578   5.697   5.105   8.771
25446WAT      O76579   8.366   0.404   4.553
25446WAT     H176580   8.358   0.327   4.616
25446WAT     H276581   8.318   0.484   4.590
25447WAT      O76582   1.921   1.580   8.344
25447WAT     H176583   1.998   1.598   8.405
25447WAT     H276584   1.894   1.484   8.353
25448WAT      O76585   2.443   7.265   4.298
25448WAT     H176586   2.374   7.257   4.227
25448WAT     H276587   2.411   7.327   4.370
25449WAT      O76588   4.640   7.136   7.757
25449WAT     H176589   4.633   7.089   7.670
25449WAT     H276590   4.648   7.235   7.741
25450WAT      O76591   5.816   4.885   1.650
25450WAT     H176592   5.786   4.791   1.636
25450WAT     H276593   5.773   4.921   1.733
25451WAT      O76594   0.647   6.411   1.976
25451WAT     H176595   0.695   6.465   2.046
25451WAT     H276596   0.571   6.464   1.938
25452WAT      O76597   2.050   5.532   2.325
25452WAT     H176598   2.043   5.534   2.425
25452WAT     H276599   2.003   5.611   2.286
25453WAT      O76600   0.955   6.163   7.850
25453WAT     H176601   0.922   6.114   7.770
25453WAT     H276602   0.886   6.229   7.880
25454WAT      O76603   3.871   7.430   6.870
25454WAT     H176604   3.898   7.523   6.845
25454WAT     H276605   3.925   7.400   6.948
25455WAT      O76606   5.228   4.450   1.857
25455WAT     H176607   5.313   4.405   1.884
25455WAT     H276608   5.151   4.388   1.873
25456WAT      O76609   0.296   4.894   6.971
25456WAT     H176610   0.301   4.808   6.920
25456WAT     H276611   0.287   4.970   6.907
25457WAT      O76612   7.282   4.440   2.000
25457WAT     H176613   7.229   4.396   2.073
25457WAT     H276614   7.369   4.393   1.988
25458WAT      O76615   6.900   6.906   1.744
25458WAT     H176616   6.981   6.963   1.736
25458WAT     H276617   6.819   6.959   1.718
25459WAT      O76618   3.961   8.517   6.091
25459WAT     H176619   3.951   8.601   6.144
25459WAT     H276620   4.042   8.467   6.121
25460WAT      O76621   2.461   9.664   1.387
25460WAT     H176622   2.415   9.580   1.359
25460WAT     H276623   2.535   9.685   1.322
25461WAT      O76624   0.022   4.611   0.792
25461WAT     H176625   0.117   4.603   0.759
25461WAT     H276626  -0.031   4.533   0.759
25462WAT      O76627   4.325   9.327   8.980
25462WAT     H176628   4.359   9.408   9.028
25462WAT     H276629   4.234   9.346   8.943
25463WAT      O76630   5.243   5.432   8.437
25463WAT     H176631   5.293   5.498   8.494
25463WAT     H276632   5.238   5.344   8.486
25464WAT      O76633   8.922   2.447   2.064
25464WAT     H176634   8.996   2.398   2.111
25464WAT     H276635   8.904   2.533   2.111
25465WAT      O76636   2.782   2.247   3.008
25465WAT     H176637   2.766   2.216   2.915
25465WAT     H276638   2.702   2.297   3.041
25466WAT      O76639   4.843   2.144   5.193
25466WAT     H176640   4.930   2.114   5.155
25466WAT     H276641   4.790   2.191   5.122
25467WAT      O76642   4.726   3.344   1.971
25467WAT     H176643   4.780   3.299   2.042
25467WAT     H276644   4.732   3.292   1.886
25468WAT      O76645   3.517   2.702   7.110
25468WAT     H176646   3.422   2.734   7.117
25468WAT     H276647   3.576   2.778   7.086
25469WAT      O76648   7.162   3.002   7.019
25469WAT     H176649   7.190   2.907   7.032
25469WAT     H276650   7.085   3.006   6.956
25470WAT      O76651   2.118   5.410   9.297
25470WAT     H176652   2.074   5.321   9.288
25470WAT     H276653   2.067   5.466   9.362
25471WAT      O76654   9.257   9.318   5.833
25471WAT     H176655   9.163   9.306   5.803
25471WAT     H276656   9.263   9.302   5.932
25472WAT      O76657   9.790   0.255   3.749
25472WAT     H176658   9.816   0.335   3.803
25472WAT     H276659   9.696   0.230   3.770
25473WAT      O76660   2.053   4.607   2.733
25473WAT     H176661   2.064   4.508   2.722
25473WAT     H276662   1.959   4.627   2.761
25474WAT      O76663   4.544   2.492   3.426
25474WAT     H176664   4.464   2.550   3.436
25474WAT     H276665   4.588   2.479   3.515
25475WAT      O76666   2.917   8.324   6.509
25475WAT     H176667   2.920   8.321   6.609
25475WAT     H276668   2.895   8.233   6.474
25476WAT      O76669   7.247   0.323   3.765
25476WAT     H176670   7.185   0.400   3.779
25476WAT     H276671   7.198   0.237   3.783
25477WAT      O76672   5.676   7.117   8.970
25477WAT     H176673   5.739   7.195   8.965
25477WAT     H276674   5.651   7.088   8.878
25478WAT      O76675   5.615   9.393   2.367
25478WAT     H176676   5.556   9.422   2.443
25478WAT     H276677   5.559   9.383   2.285
25479WAT      O76678   1.138   6.187   9.556
25479WAT     H176679   1.178   6.198   9.466
25479WAT     H276680   1.158   6.095   9.591
25480WAT      O76681   5.795   2.308   6.468
25480WAT     H176682   5.837   2.285   6.555
25480WAT     H276683   5.751   2.227   6.429
25481WAT      O76684   4.789   3.381   5.854
25481WAT     H176685   4.728   3.429   5.916
25481WAT     H276686   4.849   3.446   5.809
25482WAT      O76687   7.466   9.244   6.966
25482WAT     H176688   7.505   9.309   7.030
25482WAT     H276689   7.528   9.167   6.954
25483WAT      O76690   3.291   6.259   8.395
25483WAT     H176691   3.193   6.241   8.391
25483WAT     H276692   3.313   6.335   8.334
25484WAT      O76693   1.633   9.010   3.622
25484WAT     H176694   1.718   9.021   3.674
25484WAT     H276695   1.599   8.917   3.635
25485WAT      O76696   3.988   1.206   5.999
25485WAT     H176697   3.992   1.106   5.992
25485WAT     H276698   4.076   1.241   6.031
25486WAT      O76699   7.853   3.895   9.487
25486WAT     H176700   7.764   3.860   9.516
25486WAT     H276701   7.912   3.819   9.461
25487WAT      O76702   7.608   6.396   4.129
25487WAT     H176703   7.598   6.390   4.030
25487WAT     H276704   7.518   6.407   4.171
25488WAT      O76705   6.763   6.655   9.694
25488WAT     H176706   6.783   6.572   9.643
25488WAT     H276707   6.826   6.728   9.666
25489WAT      O76708   5.566   0.760   2.715
25489WAT     H176709   5.661   0.737   2.693
25489WAT     H276710   5.514   0.675   2.728
25490WAT      O76711   5.960   0.152   1.239
25490WAT     H176712   5.930   0.065   1.199
25490WAT     H276713   5.924   0.228   1.185
25491WAT      O76714   8.178   5.572   0.395
25491WAT     H176715   8.109   5.563   0.323
25491WAT     H276716   8.187   5.485   0.443
25492WAT      O76717   9.845   4.821   7.770
25492WAT     H176718   9.776   4.787   7.835
25492WAT     H276719   9.894   4.898   7.810
25493WAT      O76720   9.456   2.502   5.921
25493WAT     H176721   9.434   2.418   5.971
25493WAT     H276722   9.382   2.524   5.858
25494WAT      O76723   3.767   3.432   0.180
25494WAT     H176724   3.679   3.472   0.206
25494WAT     H276725   3.756   3.334   0.166
25495WAT      O76726   6.411   6.256   0.494
25495WAT     H176727   6.353   6.323   0.448
25495WAT     H276728   6.365   6.223   0.576
25496WAT      O76729   1.779   9.026   3.127
25496WAT     H176730   1.879   9.026   3.115
25496WAT     H276731   1.735   9.036   3.037
25497WAT      O76732   2.462   7.162   1.792
25497WAT     H176733   2.385   7.225   1.800
25497WAT     H276734   2.429   7.071   1.766
25498WAT      O76735   7.123   0.112   9.673
25498WAT     H176736   7.142   0.168   9.753
25498WAT     H276737   7.199   0.120   9.608
25499WAT      O76738   7.744   6.456   1.015
25499WAT     H176739   7.737   6.364   1.051
25499WAT     H276740   7.720   6.456   0.918
25500WAT      O76741   5.370   8.475   3.504
25500WAT     H176742   5.430   8.414   3.452
25500WAT     H276743   5.377   8.453   3.602
25501WAT      O76744   3.904   6.608   6.109
25501WAT     H176745   3.991   6.589   6.064
25501WAT     H276746   3.839   6.535   6.089
25502WAT      O76747   9.224   9.284   2.753
25502WAT     H176748   9.312   9.241   2.735
25502WAT     H276749   9.170   9.287   2.668
25503WAT      O76750   6.254   3.421   4.571
25503WAT     H176751   6.240   3.470   4.484
25503WAT     H276752   6.352   3.412   4.589
25504WAT      O76753   1.430   3.785   5.945
25504WAT     H176754   1.493   3.855   5.911
25504WAT     H276755   1.475   3.696   5.941
25505WAT      O76756   9.281   4.298   0.617
25505WAT     H176757   9.226   4.300   0.700
25505WAT     H276758   9.329   4.210   0.611
25506WAT      O76759   1.111   0.202   6.876
25506WAT     H176760   1.083   0.267   6.805
25506WAT     H276761   1.136   0.115   6.832
25507WAT      O76762   5.040   5.021   4.433
25507WAT     H176763   5.057   4.931   4.474
25507WAT     H276764   5.125   5.057   4.393
25508WAT      O76765   5.384   6.750   1.341
25508WAT     H176766   5.372   6.848   1.329
25508WAT     H276767   5.413   6.730   1.434
25509WAT      O76768   1.199   2.711   3.441
25509WAT     H176769   1.130   2.759   3.387
25509WAT     H276770   1.263   2.777   3.480
25510WAT      O76771   0.522   3.276   2.234
25510WAT     H176772   0.439   3.232   2.268
25510WAT     H276773   0.579   3.305   2.312
25511WAT      O76774   3.422   9.415   1.614
25511WAT     H176775   3.506   9.468   1.619
25511WAT     H276776   3.382   9.408   1.706
25512WAT      O76777   8.656   2.939   2.174
25512WAT     H176778   8.640   2.863   2.238
25512WAT     H276779   8.715   2.908   2.100
25513WAT      O76780   8.947   8.393   8.434
25513WAT     H176781   8.986   8.349   8.353
25513WAT     H276782   8.932   8.490   8.415
25514WAT      O76783   5.384   5.494   2.297
25514WAT     H176784   5.426   5.424   2.354
25514WAT     H276785   5.299   5.526   2.340
25515WAT      O76786   4.335   8.899   1.559
25515WAT     H176787   4.280   8.982   1.554
25515WAT     H276788   4.358   8.868   1.466
25516WAT      O76789   9.049   7.896   0.961
25516WAT     H176790   9.080   7.985   0.994
25516WAT     H276791   9.039   7.899   0.861
25517WAT      O76792   8.819   7.941   8.039
25517WAT     H176793   8.895   7.936   8.105
25517WAT     H276794   8.780   7.849   8.027
25518WAT      O76795   7.568   5.150   6.329
25518WAT     H176796   7.641   5.209   6.361
25518WAT     H276797   7.592   5.055   6.346
25519WAT      O76798   7.729   7.573   2.616
25519WAT     H176799   7.808   7.625   2.649
25519WAT     H276800   7.669   7.633   2.563
25520WAT      O76801   8.402   1.934   4.718
25520WAT     H176802   8.484   1.877   4.717
25520WAT     H276803   8.422   2.021   4.672
25521WAT      O76804   5.854   9.773   1.152
25521WAT     H176805   5.908   9.689   1.160
25521WAT     H276806   5.797   9.768   1.070
25522WAT      O76807   5.303   0.687   0.635
25522WAT     H176808   5.324   0.660   0.729
25522WAT     H276809   5.353   0.628   0.571
25523WAT      O76810   1.094   7.471   9.035
25523WAT     H176811   1.178   7.513   9.068
25523WAT     H276812   1.026   7.542   9.016
25524WAT      O76813   5.359   4.146   5.867
25524WAT     H176814   5.279   4.205   5.880
25524WAT     H276815   5.439   4.202   5.847
25525WAT      O76816   2.279   8.353   1.050
25525WAT     H176817   2.187   8.357   1.011
25525WAT     H276818   2.295   8.435   1.105
25526WAT      O76819   2.684   7.817   0.449
25526WAT     H176820   2.654   7.835   0.543
25526WAT     H276821   2.770   7.765   0.450
25527WAT      O76822   6.491   2.820   7.292
25527WAT     H176823   6.556   2.745   7.283
25527WAT     H276824   6.424   2.799   7.363
25528WAT      O76825   5.116   6.231   9.793
25528WAT     H176826   5.150   6.160   9.855
25528WAT     H276827   5.142   6.208   9.699
25529WAT      O76828   0.325   3.580   9.078
25529WAT     H176829   0.278   3.636   9.146
25529WAT     H276830   0.265   3.565   9.000
25530WAT      O76831   9.163   1.505   5.518
25530WAT     H176832   9.231   1.469   5.454
25530WAT     H276833   9.077   1.522   5.470
25531WAT      O76834   4.641   8.796   6.258
25531WAT     H176835   4.688   8.721   6.304
25531WAT     H276836   4.678   8.883   6.290
25532WAT      O76837   8.482   1.982   7.855
25532WAT     H176838   8.424   2.040   7.912
25532WAT     H276839   8.557   2.037   7.818
25533WAT      O76840   6.735   8.521   5.990
25533WAT     H176841   6.792   8.527   6.072
25533WAT     H276842   6.770   8.583   5.920
25534WAT      O76843   7.443   3.253   4.868
25534WAT     H176844   7.473   3.158   4.855
25534WAT     H276845   7.404   3.287   4.782
25535WAT      O76846   9.800   5.319   1.414
25535WAT     H176847   9.793   5.298   1.317
25535WAT     H276848   9.895   5.309   1.443
25536WAT      O76849   5.001   8.650   2.664
25536WAT     H176850   5.008   8.556   2.631
25536WAT     H276851   4.905   8.672   2.681
25537WAT      O76852   4.796   2.246   7.724
25537WAT     H176853   4.789   2.331   7.671
25537WAT     H276854   4.867   2.188   7.684
25538WAT      O76855   6.789   5.057   7.911
25538WAT     H176856   6.836   5.037   7.824
25538WAT     H276857   6.715   5.123   7.894
25539WAT      O76858   8.845   7.088   9.023
25539WAT     H176859   8.850   7.024   8.947
25539WAT     H276860   8.796   7.170   8.994
25540WAT      O76861   9.844   3.769   8.427
25540WAT     H176862   9.839   3.739   8.332
25540WAT     H276863   9.785   3.849   8.439
25541WAT      O76864   0.048   7.862   2.086
25541WAT     H176865   0.111   7.919   2.033
25541WAT     H276866   0.066   7.765   2.067
25542WAT      O76867   7.831   5.542   1.498
25542WAT     H176868   7.879   5.630   1.486
25542WAT     H276869   7.853   5.482   1.421
25543WAT      O76870   8.833   6.966   4.329
25543WAT     H176871   8.824   6.883   4.274
25543WAT     H276872   8.888   6.946   4.410
25544WAT      O76873   4.913   7.751   1.057
25544WAT     H176874   4.877   7.759   1.150
25544WAT     H276875   4.853   7.692   1.003
25545WAT      O76876   7.714   6.012   6.333
25545WAT     H176877   7.808   6.022   6.302
25545WAT     H276878   7.662   6.093   6.308
25546WAT      O76879   0.025   0.409   7.641
25546WAT     H176880  -0.068   0.406   7.676
25546WAT     H276881   0.075   0.483   7.687
25547WAT      O76882   8.888   4.748   6.149
25547WAT     H176883   8.853   4.655   6.160
25547WAT     H276884   8.977   4.745   6.105
25548WAT      O76885   6.950   6.189   2.059
25548WAT     H176886   7.023   6.240   2.013
25548WAT     H276887   6.861   6.222   2.028
25549WAT      O76888   6.446   6.010   9.486
25549WAT     H176889   6.545   6.004   9.496
25549WAT     H276890   6.418   5.965   9.401
25550WAT      O76891   2.018   6.431   4.302
25550WAT     H176892   2.049   6.460   4.212
25550WAT     H276893   1.949   6.496   4.336
25551WAT      O76894   2.049   3.113   1.309
25551WAT     H176895   2.124   3.054   1.338
25551WAT     H276896   2.031   3.181   1.380
25552WAT      O76897   7.721   5.038   0.310
25552WAT     H176898   7.820   5.050   0.314
25552WAT     H276899   7.684   5.034   0.402
25553WAT      O76900   2.794   4.811   3.916
25553WAT     H176901   2.873   4.751   3.927
25553WAT     H276902   2.768   4.814   3.819
25554WAT      O76903   9.279   4.012   5.574
25554WAT     H176904   9.210   3.940   5.569
25554WAT     H276905   9.307   4.024   5.670
25555WAT      O76906   1.433   7.965   8.789
25555WAT     H176907   1.470   7.943   8.880
25555WAT     H276908   1.501   7.941   8.719
25556WAT      O76909   1.797   9.697   4.687
25556WAT     H176910   1.716   9.644   4.662
25556WAT     H276911   1.776   9.757   4.764
25557WAT      O76912   4.007   4.573   6.448
25557WAT     H176913   4.057   4.490   6.472
25557WAT     H276914   3.934   4.588   6.515
25558WAT      O76915   2.254   9.409   9.051
25558WAT     H176916   2.210   9.359   8.976
25558WAT     H276917   2.348   9.378   9.061
25559WAT      O76918   0.794   3.317   5.064
25559WAT     H176919   0.758   3.236   5.017
25559WAT     H276920   0.817   3.387   4.997
25560WAT      O76921   5.474   0.490   3.637
25560WAT     H176922   5.435   0.526   3.722
25560WAT     H276923   5.481   0.564   3.570
25561WAT      O76924   0.404   9.091   2.273
25561WAT     H176925   0.309   9.095   2.241
25561WAT     H276926   0.405   9.074   2.372
25562WAT      O76927   6.986   8.939   8.626
25562WAT     H176928   7.047   9.007   8.585
25562WAT     H276929   6.910   8.986   8.672
25563WAT      O76930   3.889   0.923   9.584
25563WAT     H176931   3.797   0.963   9.591
25563WAT     H276932   3.926   0.909   9.675
25564WAT      O76933   2.356   7.964   6.784
25564WAT     H176934   2.425   8.020   6.738
25564WAT     H276935   2.373   7.965   6.883
25565WAT      O76936   9.589   1.123   3.600
25565WAT     H176937   9.566   1.178   3.680
25565WAT     H276938   9.686   1.133   3.579
25566WAT      O76939   3.773   3.011   3.893
25566WAT     H176940   3.830   3.092   3.884
25566WAT     H276941   3.749   2.996   3.989
25567WAT      O76942   7.196   1.606   4.298
25567WAT     H176943   7.163   1.636   4.208
25567WAT     H276944   7.140   1.530   4.330
25568WAT      O76945   6.884   2.492   6.018
25568WAT     H176946   6.933   2.434   5.953
25568WAT     H276947   6.842   2.569   5.969
25569WAT      O76948   7.787   9.000   1.801
25569WAT     H176949   7.760   9.096   1.813
25569WAT     H276950   7.849   8.973   1.874
25570WAT      O76951   4.687   5.140   7.638
25570WAT     H176952   4.754   5.212   7.619
25570WAT     H276953   4.676   5.082   7.557
25571WAT      O76954   4.971   4.545   4.163
25571WAT     H176955   4.933   4.530   4.255
25571WAT     H276956   4.957   4.462   4.108
25572WAT      O76957   7.136   0.217   4.062
25572WAT     H176958   7.046   0.197   4.024
25572WAT     H276959   7.200   0.143   4.039
25573WAT      O76960   1.219   1.012   2.523
25573WAT     H176961   1.198   0.995   2.619
25573WAT     H276962   1.318   1.004   2.508
25574WAT      O76963   8.937   3.128   8.040
25574WAT     H176964   8.990   3.211   8.022
25574WAT     H276965   8.983   3.074   8.110
25575WAT      O76966   8.127   8.322   1.391
25575WAT     H176967   8.106   8.266   1.472
25575WAT     H276968   8.093   8.276   1.309
25576WAT      O76969   7.432   4.507   4.286
25576WAT     H176970   7.492   4.488   4.208
25576WAT     H276971   7.470   4.463   4.368
25577WAT      O76972   8.841   9.227   4.647
25577WAT     H176973   8.910   9.161   4.679
25577WAT     H276974   8.873   9.320   4.667
25578WAT      O76975   7.497   1.674   5.518
25578WAT     H176976   7.466   1.745   5.455
25578WAT     H276977   7.464   1.695   5.610
25579WAT      O76978   6.619   1.424   8.591
25579WAT     H176979   6.644   1.503   8.648
25579WAT     H276980   6.698   1.365   8.578
25580WAT      O76981   8.387   2.729   5.338
25580WAT     H176982   8.316   2.722   5.408
25580WAT     H276983   8.352   2.693   5.252
25581WAT      O76984   8.266   2.617   5.142
25581WAT     H176985   8.194   2.547   5.153
25581WAT     H276986   8.258   2.658   5.051
25582WAT      O76987   1.181   4.548   8.844
25582WAT     H176988   1.218   4.484   8.777
25582WAT     H276989   1.190   4.641   8.809
25583WAT      O76990   0.240   7.820   2.367
25583WAT     H176991   0.288   7.735   2.387
25583WAT     H276992   0.288   7.870   2.295
25584WAT      O76993   8.664   4.125   2.042
25584WAT     H176994   8.602   4.059   2.085
25584WAT     H276995   8.707   4.083   1.962
25585WAT      O76996   3.609   0.835   8.369
25585WAT     H176997   3.589   0.754   8.424
25585WAT     H276998   3.604   0.812   8.272
25586WAT      O76999   9.633   9.809   4.646
25586WAT     H177000   9.616   9.893   4.595
25586WAT     H277001   9.663   9.737   4.584
25587WAT      O77002   0.556   1.089   0.652
25587WAT     H177003   0.488   1.064   0.720
25587WAT     H277004   0.613   1.164   0.687
25588WAT      O77005   8.870   9.667   6.106
25588WAT     H177006   8.887   9.685   6.009
25588WAT     H277007   8.923   9.588   6.135
25589WAT      O77008   2.517   8.463   3.970
25589WAT     H177009   2.611   8.436   3.948
25589WAT     H277010   2.488   8.535   3.908
25590WAT      O77011   5.509   2.399   6.268
25590WAT     H177012   5.512   2.410   6.368
25590WAT     H277013   5.597   2.364   6.236
25591WAT      O77014   5.591   1.617   4.466
25591WAT     H177015   5.589   1.631   4.368
25591WAT     H277016   5.546   1.693   4.512
25592WAT      O77017   3.902   6.459   6.977
25592WAT     H177018   3.815   6.496   7.009
25592WAT     H277019   3.941   6.518   6.907
25593WAT      O77020   3.755   8.898   7.742
25593WAT     H177021   3.701   8.878   7.823
25593WAT     H277022   3.752   8.819   7.680
25594WAT      O77023   0.035   6.602   2.405
25594WAT     H177024  -0.064   6.595   2.418
25594WAT     H277025   0.064   6.694   2.430
25595WAT      O77026   5.133   5.240   8.202
25595WAT     H177027   5.199   5.181   8.155
25595WAT     H277028   5.042   5.223   8.165
25596WAT      O77029   2.979   1.368   0.601
25596WAT     H177030   3.019   1.452   0.639
25596WAT     H277031   3.019   1.288   0.646
25597WAT      O77032   6.517   6.040   5.320
25597WAT     H177033   6.586   6.106   5.290
25597WAT     H277034   6.470   6.075   5.401
25598WAT      O77035   3.911   8.361   2.038
25598WAT     H177036   3.823   8.404   2.021
25598WAT     H277037   3.920   8.280   1.978
25599WAT      O77038   0.841   2.180   4.449
25599WAT     H177039   0.793   2.262   4.417
25599WAT     H277040   0.819   2.103   4.389
25600WAT      O77041   9.372   7.820   9.257
25600WAT     H177042   9.430   7.836   9.337
25600WAT     H277043   9.412   7.749   9.200
25601WAT      O77044   0.728   0.171   8.451
25601WAT     H177045   0.694   0.260   8.420
25601WAT     H277046   0.650   0.111   8.469
25602WAT      O77047   6.688   1.263   9.822
25602WAT     H177048   6.669   1.228   9.730
25602WAT     H277049   6.696   1.186   9.886
25603WAT      O77050   4.557   4.463   4.122
25603WAT     H177051   4.621   4.414   4.182
25603WAT     H277052   4.579   4.561   4.124
25604WAT      O77053   4.844   2.118   1.921
25604WAT     H177054   4.823   2.151   1.829
25604WAT     H277055   4.825   2.020   1.927
25605WAT      O77056   3.142   6.908   6.739
25605WAT     H177057   3.115   6.821   6.780
25605WAT     H277058   3.197   6.891   6.657
25606WAT      O77059   3.451   0.529   0.939
25606WAT     H177060   3.526   0.595   0.926
25606WAT     H277061   3.482   0.455   0.998
25607WAT      O77062   9.491   3.524   6.708
25607WAT     H177063   9.448   3.517   6.798
25607WAT     H277064   9.443   3.465   6.643
25608WAT      O77065   9.428   8.139   6.057
25608WAT     H177066   9.504   8.153   5.993
25608WAT     H277067   9.366   8.218   6.053
25609WAT      O77068   0.369   3.923   4.097
25609WAT     H177069   0.460   3.963   4.085
25609WAT     H277070   0.314   3.944   4.016
25610WAT      O77071   8.166   1.952   1.251
25610WAT     H177072   8.073   1.936   1.219
25610WAT     H277073   8.169   1.942   1.351
25611WAT      O77074   8.740   2.470   1.027
25611WAT     H177075   8.658   2.506   0.983
25611WAT     H277076   8.720   2.381   1.068
25612WAT      O77077   8.029   2.175   5.230
25612WAT     H177078   7.935   2.157   5.203
25612WAT     H277079   8.045   2.138   5.321
25613WAT      O77080   7.450   1.126   9.820
25613WAT     H177081   7.482   1.205   9.872
25613WAT     H277082   7.509   1.047   9.841
25614WAT      O77083   3.495   3.150   6.370
25614WAT     H177084   3.579   3.201   6.351
25614WAT     H277085   3.416   3.206   6.345
25615WAT      O77086   0.636   4.738   8.291
25615WAT     H177087   0.567   4.752   8.220
25615WAT     H277088   0.725   4.720   8.248
25616WAT      O77089   6.790   0.622   1.094
25616WAT     H177090   6.737   0.665   1.021
25616WAT     H277091   6.743   0.540   1.126
25617WAT      O77092   0.907   5.704   2.822
25617WAT     H177093   0.813   5.712   2.855
25617WAT     H277094   0.957   5.640   2.880
25618WAT      O77095   7.491   9.433   6.372
25618WAT     H177096   7.408   9.393   6.334
25618WAT     H277097   7.524   9.506   6.312
25619WAT      O77098   5.394   6.528   3.042
25619WAT     H177099   5.313   6.486   3.000
25619WAT     H277100   5.451   6.569   2.971
25620WAT      O77101   1.213   4.625   4.996
25620WAT     H177102   1.265   4.540   5.005
25620WAT     H277103   1.236   4.687   5.071
25621WAT      O77104   1.670   5.214   0.327
25621WAT     H177105   1.625   5.287   0.377
25621WAT     H277106   1.604   5.170   0.266
25622WAT      O77107   0.203   9.652   2.538
25622WAT     H177108   0.154   9.647   2.625
25622WAT     H277109   0.247   9.741   2.530
25623WAT      O77110   7.726   6.800   9.150
25623WAT     H177111   7.725   6.896   9.120
25623WAT     H277112   7.664   6.790   9.229
25624WAT      O77113   0.607   7.707   8.671
25624WAT     H177114   0.560   7.689   8.584
25624WAT     H277115   0.669   7.784   8.659
25625WAT      O77116   8.305   5.490   5.334
25625WAT     H177117   8.262   5.407   5.369
25625WAT     H277118   8.371   5.465   5.262
25626WAT      O77119   1.592   7.254   7.353
25626WAT     H177120   1.645   7.269   7.437
25626WAT     H277121   1.526   7.329   7.342
25627WAT      O77122   8.769   9.797   2.718
25627WAT     H177123   8.727   9.707   2.705
25627WAT     H277124   8.820   9.822   2.635
25628WAT      O77125   3.387   2.114   6.389
25628WAT     H177126   3.348   2.112   6.297
25628WAT     H277127   3.319   2.151   6.453
25629WAT      O77128   7.799   4.392   8.424
25629WAT     H177129   7.828   4.461   8.358
25629WAT     H277130   7.721   4.426   8.476
25630WAT      O77131   7.088   2.747   3.187
25630WAT     H177132   7.025   2.712   3.256
25630WAT     H277133   7.118   2.838   3.213
25631WAT      O77134   5.292   2.378   1.480
25631WAT     H177135   5.263   2.343   1.569
25631WAT     H277136   5.215   2.376   1.417
25632WAT      O77137   0.051   1.422   5.128
25632WAT     H177138   0.123   1.353   5.126
25632WAT     H277139   0.058   1.474   5.213
25633WAT      O77140   6.564   7.728   4.979
25633WAT     H177141   6.534   7.816   4.940
25633WAT     H277142   6.578   7.739   5.078
25634WAT      O77143   4.765   6.941   7.157
25634WAT     H177144   4.744   6.853   7.197
25634WAT     H277145   4.860   6.943   7.126
25635WAT      O77146   8.503   8.841   7.418
25635WAT     H177147   8.435   8.771   7.442
25635WAT     H277148   8.530   8.831   7.323
25636WAT      O77149   3.362   6.463   3.669
25636WAT     H177150   3.341   6.548   3.718
25636WAT     H277151   3.459   6.441   3.682
25637WAT      O77152   9.637   4.254   1.255
25637WAT     H177153   9.595   4.164   1.261
25637WAT     H277154   9.731   4.245   1.223
25638WAT      O77155   2.993   0.748   9.252
25638WAT     H177156   3.021   0.688   9.177
25638WAT     H277157   2.985   0.695   9.336
25639WAT      O77158   3.144   4.385   2.005
25639WAT     H177159   3.068   4.369   1.942
25639WAT     H277160   3.226   4.409   1.952
25640WAT      O77161   6.996   2.233   1.552
25640WAT     H177162   7.028   2.281   1.470
25640WAT     H277163   7.074   2.201   1.605
25641WAT      O77164   4.711   3.055   8.849
25641WAT     H177165   4.797   3.005   8.845
25641WAT     H277166   4.725   3.149   8.818
25642WAT      O77167   7.815   5.550   7.663
25642WAT     H177168   7.861   5.627   7.707
25642WAT     H277169   7.735   5.583   7.613
25643WAT      O77170   2.104   7.758   2.962
25643WAT     H177171   2.148   7.837   3.005
25643WAT     H277172   2.173   7.697   2.924
25644WAT      O77173   5.816   9.549   8.549
25644WAT     H177174   5.846   9.642   8.529
25644WAT     H277175   5.740   9.551   8.613
25645WAT      O77176   3.742   8.942   7.352
25645WAT     H177177   3.825   8.986   7.318
25645WAT     H277178   3.699   8.891   7.278
25646WAT      O77179   2.374   8.208   9.711
25646WAT     H177180   2.366   8.167   9.620
25646WAT     H277181   2.433   8.151   9.768
25647WAT      O77182   2.165   0.832   9.365
25647WAT     H177183   2.165   0.929   9.387
25647WAT     H277184   2.080   0.790   9.398
25648WAT      O77185   5.145   6.791   2.672
25648WAT     H177186   5.141   6.877   2.723
25648WAT     H277187   5.075   6.729   2.707
25649WAT      O77188   9.524   4.935   1.749
25649WAT     H177189   9.583   4.894   1.819
25649WAT     H277190   9.483   5.018   1.784
25650WAT      O77191   1.299   9.461   0.204
25650WAT     H177192   1.324   9.375   0.248
25650WAT     H277193   1.347   9.537   0.247
25651WAT      O77194   1.536   4.774   8.131
25651WAT     H177195   1.529   4.674   8.127
25651WAT     H277196   1.453   4.811   8.173
25652WAT      O77197   1.309   0.903   8.663
25652WAT     H177198   1.317   0.902   8.763
25652WAT     H277199   1.381   0.846   8.624
25653WAT      O77200   8.133   3.882   0.836
25653WAT     H177201   8.059   3.935   0.877
25653WAT     H277202   8.201   3.860   0.906
25654WAT      O77203   3.465   3.740   2.388
25654WAT     H177204   3.462   3.789   2.475
25654WAT     H277205   3.527   3.662   2.396
25655WAT      O77206   9.247   7.082   1.107
25655WAT     H177207   9.190   7.018   1.159
25655WAT     H277208   9.216   7.175   1.123
25656WAT      O77209   6.203   1.296   4.227
25656WAT     H177210   6.105   1.306   4.207
25656WAT     H277211   6.255   1.311   4.143
25657WAT      O77212   7.030   4.093   6.765
25657WAT     H177213   6.989   4.174   6.724
25657WAT     H277214   6.965   4.051   6.828
25658WAT      O77215   2.246   2.876   7.279
25658WAT     H177216   2.327   2.903   7.226
25658WAT     H277217   2.213   2.955   7.330
25659WAT      O77218   9.492   7.027   6.949
25659WAT     H177219   9.569   7.079   6.988
25659WAT     H277220   9.458   7.075   6.868
25660WAT      O77221   1.881   9.048   9.090
25660WAT     H177222   1.953   8.988   9.124
25660WAT     H277223   1.871   9.037   8.992
25661WAT      O77224   6.465   3.641   9.302
25661WAT     H177225   6.502   3.588   9.379
25661WAT     H277226   6.385   3.693   9.334
25662WAT      O77227   9.363   3.872   4.310
25662WAT     H177228   9.302   3.942   4.348
25662WAT     H277229   9.308   3.797   4.273
25663WAT      O77230   6.546   1.756   0.974
25663WAT     H177231   6.545   1.768   0.874
25663WAT     H277232   6.489   1.826   1.016
25664WAT      O77233   0.005   8.076   0.156
25664WAT     H177234   0.092   8.074   0.105
25664WAT     H277235  -0.062   8.128   0.104
25665WAT      O77236   4.390   0.616   3.879
25665WAT     H177237   4.321   0.582   3.815
25665WAT     H277238   4.478   0.623   3.833
25666WAT      O77239   1.647   4.555   1.676
25666WAT     H177240   1.601   4.606   1.748
25666WAT     H277241   1.580   4.497   1.629
25667WAT      O77242   2.763   3.285   5.460
25667WAT     H177243   2.862   3.293   5.447
25667WAT     H277244   2.744   3.201   5.512
25668WAT      O77245   4.772   5.454   1.912
25668WAT     H177246   4.721   5.387   1.967
25668WAT     H277247   4.833   5.407   1.850
25669WAT      O77248   3.339   7.050   2.415
25669WAT     H177249   3.269   7.121   2.413
25669WAT     H277250   3.364   7.031   2.510
25670WAT      O77251   8.280   8.473   9.872
25670WAT     H177252   8.249   8.389   9.917
25670WAT     H277253   8.200   8.528   9.846
25671WAT      O77254   5.401   7.933   0.258
25671WAT     H177255   5.482   7.882   0.287
25671WAT     H277256   5.426   8.000   0.189
25672WAT      O77257   3.902   5.087   2.183
25672WAT     H177258   3.871   5.023   2.254
25672WAT     H277259   3.829   5.098   2.115
25673WAT      O77260   6.382   6.265   6.063
25673WAT     H177261   6.398   6.170   6.090
25673WAT     H277262   6.420   6.326   6.133
25674WAT      O77263   4.077   1.565   8.099
25674WAT     H177264   4.093   1.476   8.057
25674WAT     H277265   3.981   1.572   8.125
25675WAT      O77266   2.325   5.564   1.836
25675WAT     H177267   2.307   5.480   1.888
25675WAT     H277268   2.397   5.546   1.768
25676WAT      O77269   7.938   0.051   5.444
25676WAT     H177270   7.948   0.113   5.367
25676WAT     H277271   7.931   0.104   5.529
25677WAT      O77272   9.166   9.467   1.682
25677WAT     H177273   9.081   9.508   1.650
25677WAT     H277274   9.213   9.422   1.605
25678WAT      O77275   8.663   2.282   1.206
25678WAT     H177276   8.655   2.372   1.249
25678WAT     H277277   8.589   2.223   1.239
25679WAT      O77278   1.446   3.597   1.203
25679WAT     H177279   1.492   3.519   1.161
25679WAT     H277280   1.390   3.566   1.279
25680WAT      O77281   6.543   8.786   1.600
25680WAT     H177282   6.595   8.727   1.661
25680WAT     H277283   6.468   8.829   1.651
25681WAT      O77284   8.541   8.252   4.039
25681WAT     H177285   8.586   8.279   3.954
25681WAT     H277286   8.568   8.159   4.063
25682WAT      O77287   0.338   5.063   3.535
25682WAT     H177288   0.433   5.093   3.527
25682WAT     H277289   0.286   5.130   3.588
25683WAT      O77290   2.900   4.458   0.927
25683WAT     H177291   2.978   4.466   0.865
25683WAT     H277292   2.830   4.399   0.885
25684WAT      O77293   8.160   3.504   6.769
25684WAT     H177294   8.131   3.411   6.744
25684WAT     H277295   8.256   3.502   6.798
25685WAT      O77296   8.351   0.983   4.993
25685WAT     H177297   8.347   0.885   4.971
25685WAT     H277298   8.326   0.997   5.089
25686WAT      O77299   0.088   7.083   3.447
25686WAT     H177300   0.136   6.997   3.462
25686WAT     H277301   0.051   7.085   3.354
25687WAT      O77302   6.291   9.267   0.034
25687WAT     H177303   6.271   9.363   0.055
25687WAT     H277304   6.378   9.241   0.077
25688WAT      O77305   7.851   9.309   1.285
25688WAT     H177306   7.758   9.327   1.318
25688WAT     H277307   7.851   9.311   1.185
25689WAT      O77308   2.609   6.440   5.093
25689WAT     H177309   2.633   6.380   5.169
25689WAT     H277310   2.577   6.385   5.016
25690WAT      O77311   4.854   3.017   0.735
25690WAT     H177312   4.816   3.105   0.763
25690WAT     H277313   4.917   3.031   0.658
25691WAT      O77314   2.974   2.623   7.080
25691WAT     H177315   2.988   2.631   7.178
25691WAT     H277316   2.876   2.629   7.059
25692WAT      O77317   7.210   2.540   7.468
25692WAT     H177318   7.264   2.496   7.540
25692WAT     H277319   7.116   2.551   7.501
25693WAT      O77320   9.862   8.479   5.650
25693WAT     H177321   9.839   8.566   5.606
25693WAT     H277322   9.893   8.413   5.581
25694WAT      O77323   8.730   3.645   5.138
25694WAT     H177324   8.714   3.547   5.125
25694WAT     H277325   8.642   3.693   5.137
25695WAT      O77326   1.686   9.324   4.833
25695WAT     H177327   1.785   9.307   4.827
25695WAT     H277328   1.637   9.254   4.781
25696WAT      O77329   6.093   2.675   5.176
25696WAT     H177330   6.090   2.770   5.206
25696WAT     H277331   6.105   2.615   5.255
25697WAT      O77332   6.546   8.273   5.623
25697WAT     H177333   6.620   8.223   5.579
25697WAT     H277334   6.581   8.320   5.704
25698WAT      O77335   4.053   8.347   9.273
25698WAT     H177336   4.002   8.356   9.358
25698WAT     H277337   4.150   8.359   9.291
25699WAT      O77338   8.847   9.434   8.447
25699WAT     H177339   8.907   9.357   8.468
25699WAT     H277340   8.765   9.400   8.401
25700WAT      O77341   7.461   9.115   5.543
25700WAT     H177342   7.424   9.138   5.453
25700WAT     H277343   7.534   9.046   5.532
25701WAT      O77344   5.966   0.132   2.884
25701WAT     H177345   5.867   0.132   2.873
25701WAT     H277346   5.999   0.227   2.885
25702WAT      O77347   6.490   4.466   9.516
25702WAT     H177348   6.550   4.538   9.549
25702WAT     H277349   6.396   4.483   9.546
25703WAT      O77350   1.047   8.734   3.225
25703WAT     H177351   1.085   8.665   3.287
25703WAT     H277352   0.969   8.779   3.269
25704WAT      O77353   7.165   4.755   4.039
25704WAT     H177354   7.163   4.719   4.133
25704WAT     H277355   7.165   4.855   4.042
25705WAT      O77356   5.120   9.737   8.028
25705WAT     H177357   5.193   9.805   8.019
25705WAT     H277358   5.078   9.722   7.939
25706WAT      O77359   4.007   5.662   4.329
25706WAT     H177360   4.102   5.695   4.331
25706WAT     H277361   3.971   5.673   4.236
25707WAT      O77362   2.045   5.557   5.536
25707WAT     H177363   1.992   5.641   5.526
25707WAT     H277364   1.983   5.480   5.553
25708WAT      O77365   2.492   5.374   3.383
25708WAT     H177366   2.455   5.387   3.292
25708WAT     H277367   2.453   5.290   3.423
25709WAT      O77368   6.688   1.798   2.839
25709WAT     H177369   6.743   1.731   2.888
25709WAT     H277370   6.669   1.877   2.898
25710WAT      O77371   1.644   5.262   9.318
25710WAT     H177372   1.562   5.225   9.274
25710WAT     H277373   1.619   5.343   9.371
25711WAT      O77374   1.535   9.049   9.182
25711WAT     H177375   1.616   9.091   9.223
25711WAT     H277376   1.458   9.112   9.187
25712WAT      O77377   3.690   0.890   0.367
25712WAT     H177378   3.610   0.835   0.392
25712WAT     H277379   3.676   0.984   0.399
25713WAT      O77380   9.344   3.348   2.661
25713WAT     H177381   9.435   3.377   2.693
25713WAT     H277382   9.324   3.257   2.698
25714WAT      O77383   9.383   4.554   9.277
25714WAT     H177384   9.360   4.458   9.291
25714WAT     H277385   9.442   4.586   9.351
25715WAT      O77386   0.444   9.138   3.318
25715WAT     H177387   0.518   9.141   3.251
25715WAT     H277388   0.356   9.149   3.272
25716WAT      O77389   6.952   6.436   3.807
25716WAT     H177390   7.001   6.356   3.842
25716WAT     H277391   7.007   6.480   3.736
25717WAT      O77392   4.140   1.990   6.412
25717WAT     H177393   4.075   2.002   6.336
25717WAT     H277394   4.150   2.077   6.461
25718WAT      O77395   2.609   0.424   7.016
25718WAT     H177396   2.625   0.492   7.088
25718WAT     H277397   2.519   0.439   6.976
25719WAT      O77398   8.722   1.148   7.728
25719WAT     H177399   8.650   1.109   7.785
25719WAT     H277400   8.718   1.248   7.732
25720WAT      O77401   3.623   6.369   2.509
25720WAT     H177402   3.652   6.451   2.459
25720WAT     H277403   3.614   6.293   2.444
25721WAT      O77404   0.826   2.991   9.271
25721WAT     H177405   0.768   2.913   9.293
25721WAT     H277406   0.833   3.000   9.171
25722WAT      O77407   9.764   4.810   8.380
25722WAT     H177408   9.705   4.762   8.445
25722WAT     H277409   9.782   4.903   8.414
25723WAT      O77410   1.255   1.007   8.381
25723WAT     H177411   1.275   0.971   8.473
25723WAT     H277412   1.160   1.037   8.377
25724WAT      O77413   7.632   9.068   4.224
25724WAT     H177414   7.599   9.043   4.315
25724WAT     H277415   7.594   9.004   4.157
25725WAT      O77416   7.218   0.129   5.778
25725WAT     H177417   7.125   0.135   5.814
25725WAT     H277418   7.216   0.137   5.678
25726WAT      O77419   9.140   0.424   9.640
25726WAT     H177420   9.157   0.484   9.717
25726WAT     H277421   9.185   0.336   9.656
25727WAT      O77422   6.538   4.117   9.055
25727WAT     H177423   6.564   4.084   9.146
25727WAT     H277424   6.620   4.148   9.007
25728WAT      O77425   6.675   8.097   9.234
25728WAT     H177426   6.723   8.009   9.237
25728WAT     H277427   6.724   8.159   9.171
25729WAT      O77428   0.819   2.031   0.231
25729WAT     H177429   0.838   2.114   0.178
25729WAT     H277430   0.902   1.975   0.235
25730WAT      O77431   3.565   2.697   3.462
25730WAT     H177432   3.588   2.605   3.494
25730WAT     H277433   3.625   2.763   3.505
25731WAT      O77434   3.819   8.046   4.767
25731WAT     H177435   3.743   8.027   4.705
25731WAT     H277436   3.886   7.973   4.762
25732WAT      O77437   7.609   2.229   3.644
25732WAT     H177438   7.557   2.263   3.723
25732WAT     H277439   7.702   2.266   3.648
25733WAT      O77440   6.402   7.018   1.428
25733WAT     H177441   6.317   7.048   1.386
25733WAT     H277442   6.466   6.988   1.357
25734WAT      O77443   4.984   3.793   1.599
25734WAT     H177444   4.973   3.885   1.560
25734WAT     H277445   5.056   3.794   1.668
25735WAT      O77446   9.603   8.040   3.068
25735WAT     H177447   9.643   7.950   3.048
25735WAT     H277448   9.674   8.102   3.100
25736WAT      O77449   9.826   9.660   8.386
25736WAT     H177450   9.904   9.659   8.324
25736WAT     H277451   9.783   9.750   8.385
25737WAT      O77452   2.081   2.753   0.475
25737WAT     H177453   2.173   2.791   0.481
25737WAT     H277454   2.081   2.672   0.417
25738WAT      O77455   5.002   4.396   1.201
25738WAT     H177456   4.948   4.313   1.214
25738WAT     H277457   4.966   4.469   1.257
25739WAT      O77458   1.880   5.815   0.630
25739WAT     H177459   1.796   5.868   0.639
25739WAT     H277460   1.954   5.859   0.680
25740WAT      O77461   0.333   5.452   7.508
25740WAT     H177462   0.413   5.497   7.547
25740WAT     H277463   0.258   5.452   7.575
25741WAT      O77464   3.055   8.663   9.451
25741WAT     H177465   3.028   8.606   9.373
25741WAT     H277466   3.147   8.700   9.434
25742WAT      O77467   2.078   7.190   6.336
25742WAT     H177468   2.163   7.165   6.288
25742WAT     H277469   2.086   7.163   6.432
25743WAT      O77470   5.537   1.047   2.095
25743WAT     H177471   5.567   0.992   2.017
25743WAT     H277472   5.451   1.009   2.131
25744WAT      O77473   2.497   4.106   1.420
25744WAT     H177474   2.559   4.134   1.494
25744WAT     H277475   2.407   4.085   1.457
25745WAT      O77476   2.726   6.884   5.424
25745WAT     H177477   2.634   6.847   5.413
25745WAT     H277478   2.744   6.900   5.522
25746WAT      O77479   4.361   1.811   4.092
25746WAT     H177480   4.398   1.726   4.054
25746WAT     H277481   4.263   1.801   4.106
25747WAT      O77482   9.158   7.644   9.777
25747WAT     H177483   9.161   7.647   9.677
25747WAT     H277484   9.081   7.699   9.810
25748WAT      O77485   2.692   3.853   4.309
25748WAT     H177486   2.753   3.886   4.238
25748WAT     H277487   2.727   3.879   4.399
25749WAT      O77488   9.750   3.932   2.458
25749WAT     H177489   9.692   3.931   2.377
25749WAT     H277490   9.823   3.864   2.449
25750WAT      O77491   3.573   0.218   6.313
25750WAT     H177492   3.488   0.267   6.331
25750WAT     H277493   3.612   0.250   6.227
25751WAT      O77494   8.650   2.339   3.201
25751WAT     H177495   8.616   2.304   3.288
25751WAT     H277496   8.576   2.339   3.134
25752WAT      O77497   7.157   4.688   9.260
25752WAT     H177498   7.239   4.714   9.209
25752WAT     H277499   7.098   4.632   9.202
25753WAT      O77500   6.916   3.492   0.267
25753WAT     H177501   6.844   3.457   0.328
25753WAT     H277502   6.888   3.480   0.172
25754WAT      O77503   8.950   0.808   5.614
25754WAT     H177504   8.887   0.738   5.646
25754WAT     H277505   9.007   0.771   5.541
25755WAT      O77506   0.049   1.977   7.748
25755WAT     H177507   0.124   2.043   7.741
25755WAT     H277508  -0.011   2.002   7.823
25756WAT      O77509   4.453   1.888   0.712
25756WAT     H177510   4.455   1.954   0.637
25756WAT     H277511   4.394   1.811   0.687
25757WAT      O77512   6.413   3.124   1.993
25757WAT     H177513   6.504   3.084   1.990
25757WAT     H277514   6.407   3.190   2.067
25758WAT      O77515   7.382   3.058   1.596
25758WAT     H177516   7.442   3.138   1.600
25758WAT     H277517   7.403   3.005   1.515
25759WAT      O77518   0.128   6.646   7.689
25759WAT     H177519   0.095   6.679   7.777
25759WAT     H277520   0.050   6.612   7.636
25760WAT      O77521   9.073   7.200   2.308
25760WAT     H177522   9.082   7.200   2.208
25760WAT     H277523   9.155   7.161   2.349
25761WAT      O77524   9.868   4.503   9.675
25761WAT     H177525   9.873   4.603   9.676
25761WAT     H277526   9.871   4.469   9.769
25762WAT      O77527   0.994   9.176   4.905
25762WAT     H177528   1.031   9.176   4.812
25762WAT     H277529   0.933   9.255   4.916
25763WAT      O77530   7.219   2.144   9.300
25763WAT     H177531   7.258   2.115   9.213
25763WAT     H277532   7.292   2.183   9.357
25764WAT      O77533   3.463   9.667   2.054
25764WAT     H177534   3.469   9.573   2.087
25764WAT     H277535   3.368   9.686   2.027
25765WAT      O77536   1.493   9.746   0.575
25765WAT     H177537   1.474   9.844   0.569
25765WAT     H277538   1.587   9.733   0.607
25766WAT      O77539   8.131   6.374   3.533
25766WAT     H177540   8.179   6.447   3.582
25766WAT     H277541   8.193   6.297   3.519
25767WAT      O77542   5.558   1.448   5.127
25767WAT     H177543   5.487   1.516   5.109
25767WAT     H277544   5.644   1.494   5.147
25768WAT      O77545   7.657   6.338   5.030
25768WAT     H177546   7.752   6.370   5.031
25768WAT     H277547   7.618   6.357   4.940
25769WAT      O77548   8.928   5.652   3.563
25769WAT     H177549   8.925   5.625   3.659
25769WAT     H277550   8.963   5.576   3.508
25770WAT      O77551   8.614   1.240   4.168
25770WAT     H177552   8.629   1.165   4.103
25770WAT     H277553   8.560   1.206   4.245
25771WAT      O77554   6.314   8.329   6.450
25771WAT     H177555   6.364   8.338   6.363
25771WAT     H277556   6.289   8.420   6.483
25772WAT      O77557   4.345   4.951   2.642
25772WAT     H177558   4.406   4.873   2.627
25772WAT     H277559   4.288   4.965   2.560
25773WAT      O77560   6.960   9.525   1.870
25773WAT     H177561   6.902   9.598   1.904
25773WAT     H277562   7.056   9.550   1.881
25774WAT      O77563   3.708   3.389   5.169
25774WAT     H177564   3.716   3.347   5.260
25774WAT     H277565   3.716   3.489   5.178
25775WAT      O77566   0.517   1.512   6.309
25775WAT     H177567   0.491   1.462   6.391
25775WAT     H277568   0.485   1.463   6.228
25776WAT      O77569   6.768   7.104   1.579
25776WAT     H177570   6.675   7.141   1.583
25776WAT     H277571   6.780   7.057   1.491
25777WAT      O77572   7.091   2.108   8.446
25777WAT     H177573   7.104   2.196   8.400
25777WAT     H277574   7.031   2.120   8.525
25778WAT      O77575   2.589   9.100   3.312
25778WAT     H177576   2.598   9.150   3.226
25778WAT     H277577   2.640   9.013   3.306
25779WAT      O77578   9.771   5.830   1.748
25779WAT     H177579   9.767   5.789   1.657
25779WAT     H277580   9.764   5.758   1.818
25780WAT      O77581   7.636   6.137   9.522
25780WAT     H177582   7.716   6.142   9.463
25780WAT     H277583   7.588   6.225   9.522
25781WAT      O77584   1.537   2.810   8.204
25781WAT     H177585   1.452   2.832   8.250
25781WAT     H277586   1.587   2.894   8.183
25782WAT      O77587   2.224   0.471   0.573
25782WAT     H177588   2.223   0.571   0.563
25782WAT     H277589   2.138   0.433   0.540
25783WAT      O77590   3.602   1.133   1.118
25783WAT     H177591   3.537   1.203   1.147
25783WAT     H277592   3.613   1.065   1.191
25784WAT      O77593   1.425   8.155   4.516
25784WAT     H177594   1.464   8.217   4.448
25784WAT     H277595   1.394   8.071   4.471
25785WAT      O77596   9.551   5.942   3.485
25785WAT     H177597   9.565   5.980   3.394
25785WAT     H277598   9.454   5.921   3.498
25786WAT      O77599   7.605   1.208   2.176
25786WAT     H177600   7.525   1.178   2.229
25786WAT     H277601   7.688   1.176   2.221
25787WAT      O77602   1.618   7.221   9.435
25787WAT     H177603   1.534   7.272   9.453
25787WAT     H277604   1.609   7.171   9.348
25788WAT      O77605   1.872   6.730   5.210
25788WAT     H177606   1.832   6.821   5.219
25788WAT     H277607   1.800   6.664   5.188
25789WAT      O77608   3.684   4.899   6.233
25789WAT     H177609   3.776   4.904   6.195
25789WAT     H277610   3.617   4.891   6.160
25790WAT      O77611   4.720   5.531   6.066
25790WAT     H177612   4.751   5.456   6.007
25790WAT     H277613   4.757   5.517   6.158
25791WAT      O77614   4.096   5.988   8.955
25791WAT     H177615   4.180   5.935   8.962
25791WAT     H277616   4.066   5.991   8.860
25792WAT      O77617   0.340   3.524   3.209
25792WAT     H177618   0.342   3.496   3.305
25792WAT     H277619   0.433   3.527   3.173
25793WAT      O77620   7.496   7.249   0.219
25793WAT     H177621   7.462   7.197   0.141
25793WAT     H277622   7.500   7.190   0.300
25794WAT      O77623   7.914   1.285   9.643
25794WAT     H177624   7.817   1.287   9.665
25794WAT     H277625   7.955   1.374   9.663
25795WAT      O77626   2.287   3.224   2.495
25795WAT     H177627   2.328   3.141   2.456
25795WAT     H277628   2.195   3.236   2.459
25796WAT      O77629   3.358   4.431   1.863
25796WAT     H177630   3.296   4.481   1.803
25796WAT     H277631   3.442   4.409   1.814
25797WAT      O77632   1.142   3.882   6.641
25797WAT     H177633   1.225   3.840   6.603
25797WAT     H277634   1.132   3.975   6.606
25798WAT      O77635   4.233   6.093   2.253
25798WAT     H177636   4.295   6.168   2.277
25798WAT     H277637   4.284   6.022   2.205
25799WAT      O77638   3.073   0.064   2.265
25799WAT     H177639   3.060   0.090   2.361
25799WAT     H277640   3.003   0.109   2.209
25800WAT      O77641   8.038   0.838   5.571
25800WAT     H177642   7.965   0.877   5.627
25800WAT     H277643   8.037   0.738   5.582
25801WAT      O77644   1.454   5.457   8.348
25801WAT     H177645   1.547   5.463   8.311
25801WAT     H277646   1.455   5.479   8.446
25802WAT      O77647   6.063   4.533   9.446
25802WAT     H177648   5.981   4.490   9.484
25802WAT     H277649   6.139   4.522   9.510
25803WAT      O77650   4.852   9.407   6.142
25803WAT     H177651   4.829   9.310   6.150
25803WAT     H277652   4.772   9.463   6.165
25804WAT      O77653   9.406   7.099   9.397
25804WAT     H177654   9.461   7.124   9.317
25804WAT     H277655   9.467   7.071   9.471
25805WAT      O77656   2.567   2.374   5.114
25805WAT     H177657   2.467   2.366   5.106
25805WAT     H277658   2.610   2.328   5.036
25806WAT      O77659   0.295   2.830   8.653
25806WAT     H177660   0.216   2.869   8.606
25806WAT     H277661   0.265   2.769   8.726
25807WAT      O77662   5.961   1.218   3.207
25807WAT     H177663   5.912   1.225   3.120
25807WAT     H277664   6.060   1.215   3.190
25808WAT      O77665   4.042   7.237   1.328
25808WAT     H177666   4.097   7.165   1.372
25808WAT     H277667   4.006   7.204   1.242
25809WAT      O77668   8.733   5.852   3.786
25809WAT     H177669   8.662   5.904   3.834
25809WAT     H277670   8.691   5.772   3.742
25810WAT      O77671   1.561   1.222   0.988
25810WAT     H177672   1.556   1.310   0.939
25810WAT     H277673   1.493   1.220   1.061
25811WAT      O77674   0.450   4.201   4.025
25811WAT     H177675   0.396   4.136   3.971
25811WAT     H277676   0.421   4.294   4.004
25812WAT      O77677   5.804   5.616   4.054
25812WAT     H177678   5.863   5.667   4.117
25812WAT     H277679   5.802   5.663   3.966
25813WAT      O77680   4.738   6.611   9.440
25813WAT     H177681   4.805   6.546   9.402
25813WAT     H277682   4.652   6.603   9.390
25814WAT      O77683   0.821   8.037   5.339
25814WAT     H177684   0.855   7.949   5.305
25814WAT     H277685   0.793   8.027   5.435
25815WAT      O77686   3.334   4.598   9.793
25815WAT     H177687   3.252   4.549   9.823
25815WAT     H277688   3.350   4.581   9.696
25816WAT      O77689   2.937   2.767   2.499
25816WAT     H177690   2.838   2.760   2.515
25816WAT     H277691   2.979   2.677   2.507
25817WAT      O77692   2.655   2.251   9.035
25817WAT     H177693   2.717   2.174   9.047
25817WAT     H277694   2.575   2.222   8.983
25818WAT      O77695   5.255   5.268   2.655
25818WAT     H177696   5.178   5.254   2.594
25818WAT     H277697   5.335   5.299   2.603
25819WAT      O77698   1.292   5.148   3.519
25819WAT     H177699   1.196   5.172   3.508
25819WAT     H277700   1.338   5.217   3.576
25820WAT      O77701   2.139   8.073   0.277
25820WAT     H177702   2.132   8.123   0.191
25820WAT     H277703   2.068   8.003   0.280
25821WAT      O77704   4.531   2.311   1.474
25821WAT     H177705   4.529   2.243   1.547
25821WAT     H277706   4.501   2.269   1.389
25822WAT      O77707   6.328   4.233   4.592
25822WAT     H177708   6.370   4.224   4.683
25822WAT     H277709   6.314   4.142   4.554
25823WAT      O77710   4.066   2.604   8.119
25823WAT     H177711   4.109   2.526   8.165
25823WAT     H277712   4.125   2.684   8.126
25824WAT      O77713   8.990   8.503   6.253
25824WAT     H177714   9.051   8.452   6.313
25824WAT     H277715   8.897   8.467   6.261
25825WAT      O77716   4.384   0.120   2.048
25825WAT     H177717   4.421   0.049   1.988
25825WAT     H277718   4.407   0.099   2.143
25826WAT      O77719   6.315   8.270   5.188
25826WAT     H177720   6.278   8.296   5.277
25826WAT     H277721   6.415   8.274   5.190
25827WAT      O77722   0.357   9.078   0.177
25827WAT     H177723   0.413   9.083   0.095
25827WAT     H277724   0.364   9.164   0.228
25828WAT      O77725   7.767   7.502   0.354
25828WAT     H177726   7.723   7.483   0.266
25828WAT     H277727   7.764   7.600   0.372
25829WAT      O77728   4.638   5.580   9.800
25829WAT     H177729   4.576   5.654   9.823
25829WAT     H277730   4.593   5.517   9.737
25830WAT      O77731   6.910   5.868   9.254
25830WAT     H177732   6.975   5.940   9.278
25830WAT     H277733   6.930   5.835   9.162
25831WAT      O77734   1.119   6.303   4.696
25831WAT     H177735   1.197   6.316   4.634
25831WAT     H277736   1.110   6.206   4.717
25832WAT      O77737   8.091   4.037   9.029
25832WAT     H177738   8.042   3.950   9.030
25832WAT     H277739   8.029   4.111   9.053
25833WAT      O77740   2.971   1.879   1.998
25833WAT     H177741   3.009   1.789   2.015
25833WAT     H277742   2.933   1.883   1.905
25834WAT      O77743   9.328   6.294   0.613
25834WAT     H177744   9.329   6.204   0.657
25834WAT     H277745   9.278   6.289   0.527
25835WAT      O77746   1.339   2.572   8.645
25835WAT     H177747   1.389   2.627   8.710
25835WAT     H277748   1.250   2.614   8.626
25836WAT      O77749   5.881   4.618   4.653
25836WAT     H177750   5.909   4.582   4.741
25836WAT     H277751   5.904   4.553   4.581
25837WAT      O77752   9.686   8.138   1.603
25837WAT     H177753   9.643   8.119   1.691
25837WAT     H277754   9.616   8.141   1.532
25838WAT      O77755   7.127   1.267   3.039
25838WAT     H177756   7.072   1.189   3.069
25838WAT     H277757   7.080   1.314   2.964
25839WAT      O77758   3.737   7.711   5.751
25839WAT     H177759   3.765   7.799   5.713
25839WAT     H277760   3.738   7.642   5.678
25840WAT      O77761   2.134   3.700   7.088
25840WAT     H177762   2.184   3.613   7.089
25840WAT     H277763   2.200   3.775   7.088
25841WAT      O77764   2.845   5.202   3.621
25841WAT     H177765   2.755   5.186   3.661
25841WAT     H277766   2.836   5.225   3.524
25842WAT      O77767   3.649   6.876   4.697
25842WAT     H177768   3.731   6.863   4.641
25842WAT     H277769   3.588   6.941   4.651
25843WAT      O77770   0.473   8.272   4.668
25843WAT     H177771   0.463   8.269   4.767
25843WAT     H277772   0.388   8.242   4.625
25844WAT      O77773   3.517   2.661   3.778
25844WAT     H177774   3.458   2.728   3.733
25844WAT     H277775   3.553   2.597   3.710
25845WAT      O77776   4.814   7.896   0.065
25845WAT     H177777   4.798   7.908  -0.033
25845WAT     H277778   4.726   7.892   0.113
25846WAT      O77779   9.050   2.448   9.807
25846WAT     H177780   8.971   2.453   9.746
25846WAT     H277781   9.031   2.500   9.890
25847WAT      O77782   0.759   3.021   2.798
25847WAT     H177783   0.770   2.970   2.884
25847WAT     H277784   0.841   3.010   2.743
25848WAT      O77785   7.861   0.527   5.075
25848WAT     H177786   7.799   0.505   5.000
25848WAT     H277787   7.956   0.517   5.044
25849WAT      O77788   9.512   6.653   5.079
25849WAT     H177789   9.522   6.734   5.022
25849WAT     H277790   9.416   6.640   5.103
25850WAT      O77791   1.092   5.659   7.199
25850WAT     H177792   1.050   5.663   7.109
25850WAT     H277793   1.053   5.583   7.251
25851WAT      O77794   1.673   8.987   9.651
25851WAT     H177795   1.653   8.918   9.581
25851WAT     H277796   1.772   8.990   9.667
25852WAT      O77797   2.397   2.980   2.696
25852WAT     H177798   2.349   3.060   2.732
25852WAT     H277799   2.419   2.993   2.600
25853WAT      O77800   7.650   8.486   0.860
25853WAT     H177801   7.747   8.505   0.846
25853WAT     H277802   7.596   8.565   0.832
25854WAT      O77803   9.670   7.808   6.044
25854WAT     H177804   9.729   7.888   6.040
25854WAT     H277805   9.709   7.739   6.104
25855WAT      O77806   6.422   5.308   9.243
25855WAT     H177807   6.431   5.406   9.261
25855WAT     H277808   6.431   5.291   9.145
25856WAT      O77809   0.468   5.334   6.762
25856WAT     H177810   0.516   5.304   6.680
25856WAT     H277811   0.502   5.283   6.841
25857WAT      O77812   1.586   3.403   9.245
25857WAT     H177813   1.627   3.405   9.154
25857WAT     H277814   1.609   3.317   9.290
25858WAT      O77815   7.506   8.798   8.533
25858WAT     H177816   7.531   8.870   8.469
25858WAT     H277817   7.519   8.709   8.490
25859WAT      O77818   1.545   8.490   7.104
25859WAT     H177819   1.625   8.432   7.087
25859WAT     H277820   1.560   8.580   7.063
25860WAT      O77821   4.146   0.083   3.300
25860WAT     H177822   4.084   0.037   3.364
25860WAT     H277823   4.241   0.063   3.325
25861WAT      O77824   2.924   1.147   8.512
25861WAT     H177825   2.899   1.244   8.518
25861WAT     H277826   2.848   1.090   8.543
25862WAT      O77827   5.243   1.082   4.368
25862WAT     H177828   5.179   1.065   4.443
25862WAT     H277829   5.237   1.178   4.341
25863WAT      O77830   4.770   4.495   7.678
25863WAT     H177831   4.856   4.546   7.674
25863WAT     H277832   4.781   4.418   7.741
25864WAT      O77833   4.668   6.587   8.434
25864WAT     H177834   4.590   6.620   8.487
25864WAT     H277835   4.728   6.533   8.494
25865WAT      O77836   5.101   8.763   1.586
25865WAT     H177837   5.105   8.855   1.624
25865WAT     H277838   5.019   8.755   1.529
25866WAT      O77839   6.062   2.484   9.382
25866WAT     H177840   6.066   2.564   9.323
25866WAT     H277841   6.144   2.480   9.439
25867WAT      O77842   9.468   4.175   4.284
25867WAT     H177843   9.395   4.127   4.235
25867WAT     H277844   9.527   4.222   4.218
25868WAT      O77845   6.749   0.560   9.684
25868WAT     H177846   6.738   0.610   9.599
25868WAT     H277847   6.666   0.508   9.704
25869WAT      O77848   5.665   3.597   8.437
25869WAT     H177849   5.597   3.540   8.484
25869WAT     H277850   5.619   3.654   8.368
25870WAT      O77851   9.544   2.617   6.526
25870WAT     H177852   9.611   2.542   6.525
25870WAT     H277853   9.508   2.627   6.619
25871WAT      O77854   2.899   7.788   7.028
25871WAT     H177855   2.899   7.712   6.963
25871WAT     H277856   2.812   7.836   7.023
25872WAT      O77857   0.153   8.716   5.843
25872WAT     H177858   0.166   8.806   5.801
25872WAT     H277859   0.201   8.646   5.789
25873WAT      O77860   3.513   3.428   2.623
25873WAT     H177861   3.606   3.431   2.658
25873WAT     H277862   3.448   3.443   2.698
25874WAT      O77863   7.184   2.282   8.122
25874WAT     H177864   7.267   2.243   8.163
25874WAT     H277865   7.129   2.325   8.193
25875WAT      O77866   0.332   1.877   3.724
25875WAT     H177867   0.401   1.900   3.656
25875WAT     H277868   0.353   1.788   3.764
25876WAT      O77869   0.647   1.294   6.537
25876WAT     H177870   0.568   1.315   6.594
25876WAT     H277871   0.717   1.364   6.550
25877WAT      O77872   5.317   9.299   6.164
25877WAT     H177873   5.255   9.378   6.161
25877WAT     H277874   5.405   9.328   6.202
25878WAT      O77875   3.303   3.799   1.104
25878WAT     H177876   3.351   3.779   1.019
25878WAT     H277877   3.231   3.866   1.087
25879WAT      O77878   7.385   6.360   3.744
25879WAT     H177879   7.464   6.338   3.801
25879WAT     H277880   7.302   6.329   3.790
25880WAT      O77881   2.272   3.652   0.957
25880WAT     H177882   2.305   3.698   1.039
25880WAT     H277883   2.173   3.663   0.951
25881WAT      O77884   2.570   5.692   7.792
25881WAT     H177885   2.655   5.687   7.739
25881WAT     H277886   2.507   5.757   7.749
25882WAT      O77887   4.440   1.737   0.001
25882WAT     H177888   4.347   1.702   0.013
25882WAT     H277889   4.490   1.727   0.088
25883WAT      O77890   0.934   5.097   2.374
25883WAT     H177891   1.033   5.098   2.385
25883WAT     H277892   0.905   5.007   2.341
25884WAT      O77893   3.291   1.333   6.979
25884WAT     H177894   3.222   1.327   6.907
25884WAT     H277895   3.371   1.381   6.944
25885WAT      O77896   1.312   1.972   7.068
25885WAT     H177897   1.366   1.958   6.985
25885WAT     H277898   1.219   1.938   7.053
25886WAT      O77899   7.666   3.503   5.226
25886WAT     H177900   7.687   3.473   5.319
25886WAT     H277901   7.750   3.509   5.173
25887WAT      O77902   9.132   7.360   9.586
25887WAT     H177903   9.041   7.374   9.546
25887WAT     H277904   9.124   7.358   9.686
25888WAT      O77905   3.501   2.152   4.767
25888WAT     H177906   3.442   2.072   4.764
25888WAT     H277907   3.593   2.126   4.738
25889WAT      O77908   8.809   2.312   3.543
25889WAT     H177909   8.901   2.302   3.505
25889WAT     H277910   8.747   2.248   3.497
25890WAT      O77911   2.381   6.122   5.602
25890WAT     H177912   2.385   6.207   5.656
25890WAT     H277913   2.365   6.045   5.663
25891WAT      O77914   4.786   6.146   4.913
25891WAT     H177915   4.870   6.125   4.863
25891WAT     H277916   4.809   6.166   5.009
25892WAT      O77917   1.781   1.261   0.732
25892WAT     H177918   1.869   1.308   0.725
25892WAT     H277919   1.719   1.316   0.788
25893WAT      O77920   7.482   3.230   8.729
25893WAT     H177921   7.568   3.259   8.772
25893WAT     H277922   7.489   3.244   8.630
25894WAT      O77923   5.285   4.340   7.145
25894WAT     H177924   5.260   4.436   7.140
25894WAT     H277925   5.378   4.328   7.108
25895WAT      O77926   9.528   0.647   4.605
25895WAT     H177927   9.465   0.573   4.625
25895WAT     H277928   9.594   0.617   4.536
25896WAT      O77929   8.253   8.597   0.553
25896WAT     H177930   8.213   8.591   0.461
25896WAT     H277931   8.320   8.523   0.564
25897WAT      O77932   3.725   5.845   3.145
25897WAT     H177933   3.662   5.837   3.068
25897WAT     H277934   3.819   5.830   3.113
25898WAT      O77935   9.590   6.011   4.523
25898WAT     H177936   9.516   6.078   4.529
25898WAT     H277937   9.571   5.934   4.584
25899WAT      O77938   0.589   7.010   9.859
25899WAT     H177939   0.639   6.936   9.904
25899WAT     H277940   0.556   6.978   9.769
25900WAT      O77941   9.038   5.833   5.177
25900WAT     H177942   8.994   5.769   5.240
25900WAT     H277943   9.137   5.832   5.192
25901WAT      O77944   6.641   5.774   1.329
25901WAT     H177945   6.710   5.839   1.361
25901WAT     H277946   6.666   5.740   1.239
25902WAT      O77947   4.887   3.210   2.145
25902WAT     H177948   4.986   3.220   2.156
25902WAT     H277949   4.840   3.249   2.224
25903WAT      O77950   1.604   6.202   5.034
25903WAT     H177951   1.566   6.282   5.080
25903WAT     H277952   1.565   6.194   4.942
25904WAT      O77953   0.101   0.638   5.247
25904WAT     H177954   0.011   0.682   5.254
25904WAT     H277955   0.162   0.674   5.318
25905WAT      O77956   5.265   7.411   9.528
25905WAT     H177957   5.202   7.429   9.603
25905WAT     H277958   5.214   7.405   9.442
25906WAT      O77959   1.764   9.056   1.998
25906WAT     H177960   1.716   8.969   1.988
25906WAT     H277961   1.784   9.093   1.907
25907WAT      O77962   2.971   5.337   8.958
25907WAT     H177963   2.995   5.374   9.047
25907WAT     H277964   2.966   5.412   8.891
25908WAT      O77965   6.229   7.553   5.719
25908WAT     H177966   6.245   7.640   5.766
25908WAT     H277967   6.133   7.546   5.693
25909WAT      O77968   8.530   1.268   9.211
25909WAT     H177969   8.556   1.193   9.150
25909WAT     H277970   8.612   1.306   9.255
25910WAT      O77971   5.821   5.902   2.046
25910WAT     H177972   5.885   5.924   1.972
25910WAT     H277973   5.866   5.844   2.113
25911WAT      O77974   7.476   6.562   1.076
25911WAT     H177975   7.565   6.577   1.034
25911WAT     H277976   7.454   6.637   1.138
25912WAT      O77977   6.869   0.228   3.061
25912WAT     H177978   6.823   0.240   2.973
25912WAT     H277979   6.808   0.256   3.135
25913WAT      O77980   3.138   3.179   2.710
25913WAT     H177981   3.208   3.183   2.639
25913WAT     H277982   3.115   3.083   2.728
25914WAT      O77983   4.390   1.044   8.215
25914WAT     H177984   4.332   0.970   8.251
25914WAT     H277985   4.349   1.132   8.239
25915WAT      O77986   6.959   0.170   5.883
25915WAT     H177987   6.956   0.267   5.862
25915WAT     H277988   6.953   0.156   5.981
25916WAT      O77989   7.046   9.809   6.381
25916WAT     H177990   7.002   9.752   6.312
25916WAT     H277991   7.011   9.785   6.471
25917WAT      O77992   6.761   1.056   2.393
25917WAT     H177993   6.679   1.002   2.411
25917WAT     H277994   6.817   1.061   2.475
25918WAT      O77995   9.294   1.996   3.931
25918WAT     H177996   9.366   1.962   3.870
25918WAT     H277997   9.334   2.056   4.000
25919WAT      O77998   5.925   9.248   6.231
25919WAT     H177999   5.999   9.305   6.197
25919WAT     H278000   5.868   9.300   6.294
25920WAT      O78001   4.292   2.763   8.119
25920WAT     H178002   4.374   2.758   8.176
25920WAT     H278003   4.318   2.751   8.023
25921WAT      O78004   6.875   9.027   2.468
25921WAT     H178005   6.832   9.061   2.552
25921WAT     H278006   6.974   9.026   2.480
25922WAT      O78007   6.763   9.471   1.403
25922WAT     H178008   6.810   9.412   1.339
25922WAT     H278009   6.677   9.502   1.363
25923WAT      O78010   0.481   8.027   8.649
25923WAT     H178011   0.425   7.978   8.582
25923WAT     H278012   0.458   7.994   8.741
25924WAT      O78013   3.699   0.138   7.032
25924WAT     H178014   3.606   0.163   7.058
25924WAT     H278015   3.737   0.076   7.100
25925WAT      O78016   1.028   6.500   3.555
25925WAT     H178017   1.019   6.577   3.491
25925WAT     H278018   0.957   6.432   3.536
25926WAT      O78019   3.455   8.291   2.388
25926WAT     H178020   3.367   8.330   2.415
25926WAT     H278021   3.529   8.353   2.414
25927WAT      O78022   2.355   4.970   6.653
25927WAT     H178023   2.336   4.896   6.717
25927WAT     H278024   2.335   5.058   6.696
25928WAT      O78025   3.832   8.554   7.163
25928WAT     H178026   3.821   8.502   7.248
25928WAT     H278027   3.806   8.496   7.085
25929WAT      O78028   9.109   9.672   4.915
25929WAT     H178029   9.195   9.674   4.966
25929WAT     H278030   9.077   9.766   4.901
25930WAT      O78031   5.531   2.545   7.733
25930WAT     H178032   5.437   2.526   7.706
25930WAT     H278033   5.589   2.466   7.713
25931WAT      O78034   9.410   7.537   8.757
25931WAT     H178035   9.370   7.485   8.832
25931WAT     H278036   9.436   7.628   8.790
25932WAT      O78037   1.189   4.817   4.397
25932WAT     H178038   1.123   4.892   4.391
25932WAT     H278039   1.188   4.778   4.489
25933WAT      O78040   8.518   3.786   5.187
25933WAT     H178041   8.568   3.813   5.269
25933WAT     H278042   8.458   3.861   5.158
25934WAT      O78043   7.278   3.662   3.214
25934WAT     H178044   7.214   3.694   3.143
25934WAT     H278045   7.270   3.721   3.294
25935WAT      O78046   2.618   1.597   6.113
25935WAT     H178047   2.621   1.593   6.213
25935WAT     H278048   2.548   1.662   6.085
25936WAT      O78049   6.468   1.191   3.347
25936WAT     H178050   6.549   1.178   3.290
25936WAT     H278051   6.403   1.251   3.301
25937WAT      O78052   4.999   7.958   3.106
25937WAT     H178053   5.069   7.892   3.078
25937WAT     H278054   4.931   7.911   3.164
25938WAT      O78055   1.819   4.310   1.728
25938WAT     H178056   1.778   4.250   1.659
25938WAT     H278057   1.770   4.396   1.732
25939WAT      O78058   9.825   8.027   7.235
25939WAT     H178059   9.782   8.073   7.157
25939WAT     H278060   9.867   8.095   7.295
25940WAT      O78061   4.955   2.099   4.229
25940WAT     H178062   4.857   2.118   4.235
25940WAT     H278063   4.971   2.027   4.161
25941WAT      O78064   3.091   7.352   3.077
25941WAT     H178065   3.049   7.440   3.056
25941WAT     H278066   3.061   7.322   3.168
25942WAT      O78067   2.344   8.359   2.397
25942WAT     H178068   2.277   8.401   2.336
25942WAT     H278069   2.355   8.263   2.373
25943WAT      O78070   1.158   7.974   4.982
25943WAT     H178071   1.061   7.948   4.972
25943WAT     H278072   1.215   7.893   4.976
25944WAT      O78073   2.952   5.004   1.221
25944WAT     H178074   2.985   5.049   1.304
25944WAT     H278075   3.022   4.941   1.187
25945WAT      O78076   5.312   4.604   3.366
25945WAT     H178077   5.271   4.525   3.411
25945WAT     H278078   5.244   4.677   3.358
25946WAT      O78079   1.886   1.274   6.424
25946WAT     H178080   1.941   1.225   6.356
25946WAT     H278081   1.885   1.223   6.510
25947WAT      O78082   5.917   0.358   3.360
25947WAT     H178083   6.009   0.391   3.379
25947WAT     H278084   5.920   0.293   3.283
25948WAT      O78085   2.619   5.241   1.793
25948WAT     H178086   2.602   5.163   1.854
25948WAT     H278087   2.664   5.208   1.710
25949WAT      O78088   3.769   4.944   0.322
25949WAT     H178089   3.731   4.916   0.233
25949WAT     H278090   3.732   4.884   0.393
25950WAT      O78091   0.954   9.005   4.349
25950WAT     H178092   0.858   8.983   4.334
25950WAT     H278093   1.009   8.922   4.343
25951WAT      O78094   5.067   6.459   6.118
25951WAT     H178095   5.066   6.549   6.162
25951WAT     H278096   5.028   6.467   6.026
25952WAT      O78097   5.557   1.452   9.330
25952WAT     H178098   5.584   1.537   9.376
25952WAT     H278099   5.483   1.470   9.266
25953WAT      O78100   5.959   2.309   8.951
25953WAT     H178101   6.026   2.374   8.915
25953WAT     H278102   5.954   2.230   8.891
25954WAT      O78103   8.328   5.800   1.765
25954WAT     H178104   8.316   5.880   1.705
25954WAT     H278105   8.343   5.719   1.709
25955WAT      O78106   1.739   4.782   7.548
25955WAT     H178107   1.650   4.824   7.566
25955WAT     H278108   1.726   4.699   7.494
25956WAT      O78109   1.925   1.029   0.443
25956WAT     H178110   1.971   0.953   0.398
25956WAT     H278111   1.973   1.053   0.527
25957WAT      O78112   4.161   8.363   8.414
25957WAT     H178113   4.067   8.337   8.439
25957WAT     H278114   4.181   8.454   8.450
25958WAT      O78115   4.072   8.740   7.163
25958WAT     H178116   3.996   8.681   7.135
25958WAT     H278117   4.147   8.732   7.097
25959WAT      O78118   8.532   4.015   3.265
25959WAT     H178119   8.453   3.981   3.315
25959WAT     H278120   8.527   4.115   3.257
25960WAT      O78121   5.925   1.243   6.630
25960WAT     H178122   5.989   1.175   6.666
25960WAT     H278123   5.895   1.215   6.539
25961WAT      O78124   8.822   7.441   2.133
25961WAT     H178125   8.863   7.433   2.042
25961WAT     H278126   8.738   7.386   2.136
25962WAT      O78127   2.628   6.935   8.585
25962WAT     H178128   2.564   6.963   8.657
25962WAT     H278129   2.695   7.009   8.571
25963WAT      O78130   0.260   1.461   0.772
25963WAT     H178131   0.220   1.440   0.683
25963WAT     H278132   0.186   1.479   0.838
25964WAT      O78133   2.165   9.413   9.651
25964WAT     H178134   2.256   9.451   9.669
25964WAT     H278135   2.169   9.353   9.571
25965WAT      O78136   5.304   0.943   7.281
25965WAT     H178137   5.279   1.022   7.226
25965WAT     H278138   5.404   0.932   7.281
25966WAT      O78139   9.657   7.071   0.689
25966WAT     H178140   9.706   7.132   0.752
25966WAT     H278141   9.563   7.103   0.677
25967WAT      O78142   2.302   2.887   2.284
25967WAT     H178143   2.369   2.879   2.210
25967WAT     H278144   2.270   2.796   2.310
25968WAT      O78145   0.580   5.445   4.800
25968WAT     H178146   0.586   5.526   4.742
25968WAT     H278147   0.607   5.365   4.746
25969WAT      O78148   2.795   7.916   3.353
25969WAT     H178149   2.893   7.934   3.357
25969WAT     H278150   2.780   7.828   3.307
25970WAT      O78151   3.287   1.778   7.060
25970WAT     H178152   3.277   1.869   7.020
25970WAT     H278153   3.360   1.779   7.127
25971WAT      O78154   3.547   3.455   1.353
25971WAT     H178155   3.509   3.388   1.417
25971WAT     H278156   3.483   3.531   1.342
25972WAT      O78157   0.556   2.159   5.528
25972WAT     H178158   0.633   2.220   5.511
25972WAT     H278159   0.587   2.079   5.579
25973WAT      O78160   0.630   6.562   3.588
25973WAT     H178161   0.534   6.549   3.610
25973WAT     H278162   0.672   6.473   3.567
25974WAT      O78163   6.229   2.441   1.417
25974WAT     H178164   6.203   2.434   1.513
25974WAT     H278165   6.327   2.459   1.411
25975WAT      O78166   0.344   3.916   4.369
25975WAT     H178167   0.343   4.012   4.397
25975WAT     H278168   0.328   3.909   4.271
25976WAT      O78169   1.368   6.002   8.858
25976WAT     H178170   1.306   6.079   8.844
25976WAT     H278171   1.458   6.036   8.885
25977WAT      O78172   8.096   7.101   2.792
25977WAT     H178173   8.133   7.124   2.882
25977WAT     H278174   8.171   7.083   2.728
25978WAT      O78175   6.102   9.029   1.045
25978WAT     H178176   6.002   9.027   1.034
25978WAT     H278177   6.137   9.118   1.018
25979WAT      O78178   2.903   3.695   5.646
25979WAT     H178179   2.953   3.680   5.560
25979WAT     H278180   2.830   3.761   5.631
25980WAT      O78181   2.133   8.097   2.831
25980WAT     H178182   2.209   8.153   2.796
25980WAT     H278183   2.170   8.021   2.885
25981WAT      O78184   8.971   0.694   6.319
25981WAT     H178185   9.025   0.679   6.237
25981WAT     H278186   8.874   0.692   6.297
25982WAT      O78187   7.698   7.196   9.481
25982WAT     H178188   7.781   7.196   9.537
25982WAT     H278189   7.634   7.265   9.516
25983WAT      O78190   5.604   6.605   4.364
25983WAT     H178191   5.704   6.609   4.361
25983WAT     H278192   5.575   6.514   4.393
25984WAT      O78193   3.880   0.244   2.118
25984WAT     H178194   3.964   0.273   2.165
25984WAT     H278195   3.862   0.148   2.140
25985WAT      O78196   5.185   5.125   9.369
25985WAT     H178197   5.189   5.128   9.469
25985WAT     H278198   5.269   5.083   9.334
25986WAT      O78199   6.164   3.338   7.315
25986WAT     H178200   6.095   3.309   7.381
25986WAT     H278201   6.203   3.426   7.345
25987WAT      O78202   5.005   6.984   4.849
25987WAT     H178203   4.998   6.895   4.893
25987WAT     H278204   5.030   6.972   4.753
25988WAT      O78205   8.824   0.295   7.117
25988WAT     H178206   8.856   0.287   7.022
25988WAT     H278207   8.784   0.208   7.146
25989WAT      O78208   1.673   4.315   3.464
25989WAT     H178209   1.605   4.309   3.391
25989WAT     H278210   1.666   4.404   3.509
25990WAT      O78211   4.804   1.180   5.355
25990WAT     H178212   4.750   1.181   5.439
25990WAT     H278213   4.860   1.097   5.352
25991WAT      O78214   0.376   9.056   6.230
25991WAT     H178215   0.294   9.001   6.241
25991WAT     H278216   0.383   9.122   6.305
25992WAT      O78217   7.985   7.777   4.227
25992WAT     H178218   8.007   7.680   4.244
25992WAT     H278219   8.034   7.808   4.146
25993WAT      O78220   3.256   5.370   1.402
25993WAT     H178221   3.351   5.344   1.386
25993WAT     H278222   3.222   5.422   1.323
25994WAT      O78223   7.507   2.605   8.627
25994WAT     H178224   7.571   2.563   8.562
25994WAT     H278225   7.507   2.552   8.712
25995WAT      O78226   8.690   7.653   0.942
25995WAT     H178227   8.666   7.556   0.944
25995WAT     H278228   8.775   7.668   0.993
25996WAT      O78229   9.242   4.878   4.258
25996WAT     H178230   9.254   4.973   4.230
25996WAT     H278231   9.306   4.820   4.208
25997WAT      O78232   5.297   9.212   8.886
25997WAT     H178233   5.272   9.309   8.874
25997WAT     H278234   5.252   9.176   8.967
25998WAT      O78235   1.925   4.427   3.579
25998WAT     H178236   2.014   4.396   3.611
25998WAT     H278237   1.877   4.352   3.534
25999WAT      O78238   4.878   1.518   1.703
25999WAT     H178239   4.827   1.511   1.617
25999WAT     H278240   4.964   1.565   1.687
26000WAT      O78241   2.492   3.015   2.433
26000WAT     H178242   2.577   2.964   2.421
26000WAT     H278243   2.434   3.002   2.353
26001WAT      O78244   0.505   2.738   3.130
26001WAT     H178245   0.436   2.745   3.058
26001WAT     H278246   0.460   2.742   3.219
26002WAT      O78247   8.049   1.319   6.587
26002WAT     H178248   8.030   1.226   6.557
26002WAT     H278249   8.117   1.316   6.661
26003WAT      O78250   7.806   3.669   3.356
26003WAT     H178251   7.799   3.605   3.279
26003WAT     H278252   7.834   3.619   3.438
26004WAT      O78253   5.485   8.687   4.432
26004WAT     H178254   5.488   8.628   4.513
26004WAT     H278255   5.505   8.633   4.350
26005WAT      O78256   7.631   9.813   4.479
26005WAT     H178257   7.576   9.841   4.558
26005WAT     H278258   7.590   9.731   4.438
26006WAT      O78259   8.237   7.943   1.814
26006WAT     H178260   8.303   8.004   1.857
26006WAT     H278261   8.270   7.848   1.822
26007WAT      O78262   7.907   9.744   8.577
26007WAT     H178263   7.856   9.788   8.503
26007WAT     H278264   7.876   9.779   8.665
26008WAT      O78265   9.265   3.589   6.300
26008WAT     H178266   9.310   3.632   6.222
26008WAT     H278267   9.317   3.607   6.383
26009WAT      O78268   4.071   6.732   9.298
26009WAT     H178269   4.055   6.734   9.396
26009WAT     H278270   3.986   6.752   9.249
26010WAT      O78271   4.026   2.739   3.314
26010WAT     H178272   4.015   2.812   3.382
26010WAT     H278273   4.098   2.765   3.250
26011WAT      O78274   8.991   6.897   4.579
26011WAT     H178275   8.968   6.953   4.658
26011WAT     H278276   9.050   6.822   4.608
26012WAT      O78277   8.286   8.410   3.167
26012WAT     H178278   8.240   8.367   3.244
26012WAT     H278279   8.383   8.421   3.188
26013WAT      O78280   0.733   4.185   1.639
26013WAT     H178281   0.724   4.273   1.687
26013WAT     H278282   0.744   4.201   1.541
26014WAT      O78283   1.374   8.830   1.079
26014WAT     H178284   1.352   8.740   1.040
26014WAT     H278285   1.296   8.863   1.132
26015WAT      O78286   1.370   1.501   0.701
26015WAT     H178287   1.387   1.441   0.623
26015WAT     H278288   1.364   1.596   0.669
26016WAT      O78289   8.185   2.491   5.723
26016WAT     H178290   8.209   2.454   5.634
26016WAT     H278291   8.095   2.459   5.750
26017WAT      O78292   9.052   4.451   8.399
26017WAT     H178293   9.007   4.433   8.311
26017WAT     H278294   9.150   4.431   8.390
26018WAT      O78295   5.717   7.320   3.676
26018WAT     H178296   5.803   7.364   3.648
26018WAT     H278297   5.649   7.332   3.603
26019WAT      O78298   0.014   9.367   2.208
26019WAT     H178299  -0.082   9.354   2.233
26019WAT     H278300   0.050   9.448   2.255
26020WAT      O78301   4.002   1.936   5.793
26020WAT     H178302   3.948   1.866   5.840
26020WAT     H278303   4.030   2.006   5.859
26021WAT      O78304   4.534   2.117   0.543
26021WAT     H178305   4.533   2.142   0.446
26021WAT     H278306   4.526   2.199   0.599
26022WAT      O78307   1.206   6.331   0.489
26022WAT     H178308   1.159   6.243   0.484
26022WAT     H278309   1.209   6.362   0.584
26023WAT      O78310   8.953   0.932   9.037
26023WAT     H178311   8.880   0.906   8.975
26023WAT     H278312   9.038   0.945   8.985
26024WAT      O78313   6.234   2.782   0.646
26024WAT     H178314   6.295   2.850   0.605
26024WAT     H278315   6.235   2.791   0.745
26025WAT      O78316   5.084   2.243   9.688
26025WAT     H178317   5.145   2.267   9.764
26025WAT     H278318   5.100   2.148   9.661
26026WAT      O78319   6.763   4.308   9.726
26026WAT     H178320   6.688   4.258   9.683
26026WAT     H278321   6.848   4.255   9.719
26027WAT      O78322   7.970   4.316   7.518
26027WAT     H178323   8.029   4.374   7.462
26027WAT     H278324   7.944   4.234   7.466
26028WAT      O78325   3.937   5.096   4.797
26028WAT     H178326   4.034   5.085   4.821
26028WAT     H278327   3.888   5.011   4.818
26029WAT      O78328   2.993   1.707   5.980
26029WAT     H178329   3.011   1.750   6.069
26029WAT     H278330   2.919   1.641   5.989
26030WAT      O78331   9.707   6.695   1.005
26030WAT     H178332   9.692   6.599   0.981
26030WAT     H278333   9.800   6.708   1.037
26031WAT      O78334   0.754   4.480   8.966
26031WAT     H178335   0.837   4.491   8.910
26031WAT     H278336   0.779   4.478   9.062
26032WAT      O78337   2.512   3.954   9.759
26032WAT     H178338   2.547   3.912   9.675
26032WAT     H278339   2.509   4.053   9.749
26033WAT      O78340   4.343   6.980   2.711
26033WAT     H178341   4.401   6.952   2.788
26033WAT     H278342   4.390   7.050   2.657
26034WAT      O78343   1.519   8.606   9.726
26034WAT     H178344   1.459   8.614   9.646
26034WAT     H278345   1.509   8.687   9.784
26035WAT      O78346   2.185   5.894   2.980
26035WAT     H178347   2.114   5.964   2.978
26035WAT     H278348   2.275   5.938   2.986
26036WAT      O78349   7.235   4.584   0.553
26036WAT     H178350   7.220   4.606   0.650
26036WAT     H278351   7.150   4.549   0.514
26037WAT      O78352   5.175   6.468   5.673
26037WAT     H178353   5.204   6.373   5.671
26037WAT     H278354   5.187   6.509   5.583
26038WAT      O78355   9.411   1.706   2.768
26038WAT     H178356   9.437   1.664   2.681
26038WAT     H278357   9.326   1.664   2.801
26039WAT      O78358   5.050   4.383   8.970
26039WAT     H178359   4.966   4.425   9.005
26039WAT     H278360   5.076   4.307   9.030
26040WAT      O78361   5.843   6.283   8.886
26040WAT     H178362   5.850   6.185   8.903
26040WAT     H278363   5.930   6.317   8.850
26041WAT      O78364   1.046   1.699   6.476
26041WAT     H178365   0.953   1.676   6.448
26041WAT     H278366   1.077   1.634   6.545
26042WAT      O78367   6.954   2.732   4.711
26042WAT     H178368   6.991   2.821   4.737
26042WAT     H278369   7.017   2.660   4.739
26043WAT      O78370   3.492   2.791   0.509
26043WAT     H178371   3.406   2.778   0.460
26043WAT     H278372   3.476   2.778   0.607
26044WAT      O78373   3.556   4.604   7.564
26044WAT     H178374   3.527   4.699   7.580
26044WAT     H278375   3.571   4.559   7.651
26045WAT      O78376   3.524   3.880   5.416
26045WAT     H178377   3.555   3.922   5.331
26045WAT     H278378   3.455   3.939   5.458
26046WAT      O78379   3.367   2.844   5.678
26046WAT     H178380   3.303   2.775   5.644
26046WAT     H278381   3.365   2.844   5.778
26047WAT      O78382   3.794   3.024   5.426
26047WAT     H178383   3.719   2.966   5.457
26047WAT     H278384   3.769   3.120   5.441
26048WAT      O78385   1.941   5.007   2.554
26048WAT     H178386   1.975   4.995   2.461
26048WAT     H278387   1.931   5.104   2.574
26049WAT      O78388   4.330   5.288   4.713
26049WAT     H178389   4.417   5.277   4.663
26049WAT     H278390   4.260   5.233   4.669
26050WAT      O78391   3.051   3.781   5.841
26050WAT     H178392   2.997   3.730   5.775
26050WAT     H278393   3.147   3.779   5.815
26051WAT      O78394   7.349   1.470   6.648
26051WAT     H178395   7.284   1.473   6.573
26051WAT     H278396   7.371   1.374   6.669
26052WAT      O78397   6.830   1.098   6.709
26052WAT     H178398   6.773   1.085   6.791
26052WAT     H278399   6.926   1.092   6.734
26053WAT      O78400   9.710   2.472   9.256
26053WAT     H178401   9.789   2.412   9.270
26053WAT     H278402   9.734   2.565   9.284
26054WAT      O78403   0.095   0.851   4.658
26054WAT     H178404   0.129   0.795   4.733
26054WAT     H278405   0.143   0.939   4.658
26055WAT      O78406   1.679   9.342   3.964
26055WAT     H178407   1.666   9.392   3.878
26055WAT     H278408   1.683   9.407   4.040
26056WAT      O78409   0.231   7.100   5.749
26056WAT     H178410   0.197   7.065   5.662
26056WAT     H278411   0.200   7.040   5.823
26057WAT      O78412   4.905   3.037   5.779
26057WAT     H178413   4.978   3.103   5.761
26057WAT     H278414   4.818   3.073   5.745
26058WAT      O78415   1.649   3.566   5.583
26058WAT     H178416   1.659   3.556   5.682
26058WAT     H278417   1.566   3.617   5.562
26059WAT      O78418   8.807   9.645   8.280
26059WAT     H178419   8.730   9.692   8.323
26059WAT     H278420   8.847   9.579   8.343
26060WAT      O78421   4.482   7.331   0.961
26060WAT     H178422   4.512   7.282   0.879
26060WAT     H278423   4.452   7.265   1.030
26061WAT      O78424   5.422   9.593   9.226
26061WAT     H178425   5.495   9.526   9.216
26061WAT     H278426   5.356   9.560   9.295
26062WAT      O78427   7.714   2.618   0.509
26062WAT     H178428   7.617   2.607   0.528
26062WAT     H278429   7.764   2.630   0.595
26063WAT      O78430   9.296   9.267   3.660
26063WAT     H178431   9.360   9.201   3.698
26063WAT     H278432   9.337   9.312   3.580
26064WAT      O78433   6.135   4.886   5.153
26064WAT     H178434   6.148   4.976   5.194
26064WAT     H278435   6.055   4.842   5.195
26065WAT      O78436   4.507   6.442   8.127
26065WAT     H178437   4.527   6.530   8.084
26065WAT     H278438   4.590   6.405   8.168
26066WAT      O78439   7.675   3.147   6.247
26066WAT     H178440   7.715   3.140   6.155
26066WAT     H278441   7.673   3.056   6.288
26067WAT      O78442   7.321   0.249   7.190
26067WAT     H178443   7.309   0.162   7.143
26067WAT     H278444   7.418   0.268   7.200
26068WAT      O78445   9.408   2.764   9.604
26068WAT     H178446   9.314   2.773   9.636
26068WAT     H278447   9.457   2.850   9.618
26069WAT      O78448   5.728   9.540   5.819
26069WAT     H178449   5.631   9.563   5.805
26069WAT     H278450   5.772   9.528   5.730
26070WAT      O78451   9.758   3.773   1.136
26070WAT     H178452   9.786   3.704   1.070
26070WAT     H278453   9.771   3.739   1.229
26071WAT      O78454   0.923   6.615   0.319
26071WAT     H178455   1.021   6.625   0.301
26071WAT     H278456   0.909   6.598   0.416
26072WAT      O78457   5.115   0.870   0.984
26072WAT     H178458   5.213   0.877   0.969
26072WAT     H278459   5.072   0.959   0.967
26073WAT      O78460   2.415   3.163   0.616
26073WAT     H178461   2.426   3.126   0.524
26073WAT     H278462   2.340   3.230   0.616
26074WAT      O78463   7.199   5.081   6.637
26074WAT     H178464   7.210   5.062   6.735
26074WAT     H278465   7.208   5.180   6.621
26075WAT      O78466   5.874   9.319   0.892
26075WAT     H178467   5.882   9.382   0.969
26075WAT     H278468   5.816   9.360   0.821
26076WAT      O78469   3.901   1.808   1.904
26076WAT     H178470   3.915   1.876   1.976
26076WAT     H278471   3.804   1.794   1.889
26077WAT      O78472   8.231   5.928   7.260
26077WAT     H178473   8.229   6.000   7.331
26077WAT     H278474   8.317   5.878   7.267
26078WAT      O78475   7.833   4.835   4.807
26078WAT     H178476   7.927   4.841   4.840
26078WAT     H278477   7.829   4.862   4.711
26079WAT      O78478   3.102   8.810   9.047
26079WAT     H178479   3.033   8.747   9.010
26079WAT     H278480   3.161   8.761   9.111
26080WAT      O78481   2.633   6.562   2.452
26080WAT     H178482   2.699   6.600   2.517
26080WAT     H278483   2.649   6.602   2.362
26081WAT      O78484   3.377   5.485   2.908
26081WAT     H178485   3.289   5.444   2.929
26081WAT     H278486   3.439   5.473   2.986
26082WAT      O78487   6.099   7.833   4.454
26082WAT     H178488   6.033   7.763   4.480
26082WAT     H278489   6.182   7.824   4.509
26083WAT      O78490   3.854   3.300   5.724
26083WAT     H178491   3.860   3.397   5.747
26083WAT     H278492   3.827   3.248   5.804
26084WAT      O78493   8.782   7.867   4.301
26084WAT     H178494   8.880   7.851   4.291
26084WAT     H278495   8.766   7.955   4.346
26085WAT      O78496   2.934   4.574   7.195
26085WAT     H178497   2.872   4.650   7.176
26085WAT     H278498   3.008   4.574   7.128
26086WAT      O78499   5.794   4.124   7.204
26086WAT     H178500   5.822   4.111   7.109
26086WAT     H278501   5.807   4.220   7.230
26087WAT      O78502   9.835   9.368   1.432
26087WAT     H178503   9.864   9.417   1.350
26087WAT     H278504   9.856   9.422   1.513
26088WAT      O78505   1.310   3.236   6.634
26088WAT     H178506   1.385   3.174   6.616
26088WAT     H278507   1.252   3.200   6.707
26089WAT      O78508   5.325   1.525   0.407
26089WAT     H178509   5.371   1.600   0.360
26089WAT     H278510   5.260   1.481   0.344
26090WAT      O78511   8.813   4.990   0.480
26090WAT     H178512   8.874   5.068   0.469
26090WAT     H278513   8.836   4.920   0.412
26091WAT      O78514   0.952   3.032   1.260
26091WAT     H178515   1.022   2.964   1.237
26091WAT     H278516   0.865   2.985   1.279
26092WAT      O78517   6.807   0.945   2.106
26092WAT     H178518   6.766   0.981   2.022
26092WAT     H278519   6.792   1.010   2.181
26093WAT      O78520   3.658   6.973   6.760
26093WAT     H178521   3.710   6.888   6.749
26093WAT     H278522   3.708   7.035   6.820
26094WAT      O78523   4.197   8.585   9.526
26094WAT     H178524   4.214   8.677   9.561
26094WAT     H278525   4.217   8.581   9.428
26095WAT      O78526   7.572   4.079   7.300
26095WAT     H178527   7.645   4.104   7.236
26095WAT     H278528   7.576   3.981   7.319
26096WAT      O78529   8.743   0.662   4.155
26096WAT     H178530   8.788   0.722   4.088
26096WAT     H278531   8.651   0.696   4.174
26097WAT      O78532   2.196   2.880   6.462
26097WAT     H178533   2.295   2.880   6.448
26097WAT     H278534   2.173   2.930   6.545
26098WAT      O78535   2.642   2.358   2.401
26098WAT     H178536   2.700   2.281   2.374
26098WAT     H278537   2.673   2.441   2.355
26099WAT      O78538   2.134   6.392   5.042
26099WAT     H178539   2.054   6.360   5.093
26099WAT     H278540   2.155   6.487   5.067
26100WAT      O78541   5.653   9.498   7.494
26100WAT     H178542   5.740   9.543   7.478
26100WAT     H278543   5.585   9.566   7.521
26101WAT      O78544   9.530   2.124   0.399
26101WAT     H178545   9.512   2.152   0.493
26101WAT     H278546   9.454   2.068   0.366
26102WAT      O78547   9.141   2.704   4.676
26102WAT     H178548   9.064   2.658   4.720
26102WAT     H278549   9.219   2.641   4.672
26103WAT      O78550   5.804   6.784   3.752
26103WAT     H178551   5.814   6.715   3.681
26103WAT     H278552   5.711   6.821   3.749
26104WAT      O78553   7.680   7.466   7.377
26104WAT     H178554   7.694   7.367   7.374
26104WAT     H278555   7.627   7.495   7.298
26105WAT      O78556   2.891   4.598   5.980
26105WAT     H178557   2.815   4.641   6.027
26105WAT     H278558   2.855   4.538   5.907
26106WAT      O78559   8.338   7.764   0.109
26106WAT     H178560   8.341   7.771   0.009
26106WAT     H278561   8.332   7.855   0.149
26107WAT      O78562   3.226   4.747   7.241
26107WAT     H178563   3.220   4.728   7.339
26107WAT     H278564   3.292   4.685   7.199
26108WAT      O78565   6.298   2.648   8.658
26108WAT     H178566   6.225   2.610   8.603
26108WAT     H278567   6.373   2.678   8.599
26109WAT      O78568   2.763   9.227   6.927
26109WAT     H178569   2.847   9.190   6.967
26109WAT     H278570   2.767   9.326   6.926
26110WAT      O78571   9.417   5.086   2.516
26110WAT     H178572   9.502   5.040   2.489
26110WAT     H278573   9.343   5.058   2.454
26111WAT      O78574   8.986   4.657   8.863
26111WAT     H178575   8.969   4.643   8.766
26111WAT     H278576   8.918   4.608   8.917
26112WAT      O78577   3.645   8.276   6.202
26112WAT     H178578   3.705   8.318   6.134
26112WAT     H278579   3.696   8.204   6.250
26113WAT      O78580   2.964   6.561   2.134
26113WAT     H178581   2.959   6.503   2.052
26113WAT     H278582   2.940   6.507   2.214
26114WAT      O78583   2.705   0.919   3.116
26114WAT     H178584   2.622   0.955   3.158
26114WAT     H278585   2.692   0.909   3.017
26115WAT      O78586   2.053   8.266   2.092
26115WAT     H178587   1.968   8.238   2.047
26115WAT     H278588   2.052   8.235   2.187
26116WAT      O78589   4.018   4.972   7.778
26116WAT     H178590   4.001   5.060   7.734
26116WAT     H278591   3.953   4.905   7.744
26117WAT      O78592   2.018   2.519   3.900
26117WAT     H178593   1.926   2.508   3.938
26117WAT     H278594   2.014   2.576   3.818
26118WAT      O78595   5.176   5.855   7.346
26118WAT     H178596   5.125   5.936   7.319
26118WAT     H278597   5.125   5.773   7.321
26119WAT      O78598   8.836   3.571   6.523
26119WAT     H178599   8.869   3.665   6.536
26119WAT     H278600   8.786   3.565   6.437
26120WAT      O78601   0.737   7.929   2.035
26120WAT     H178602   0.716   8.026   2.022
26120WAT     H278603   0.824   7.920   2.082
26121WAT      O78604   7.698   5.298   8.154
26121WAT     H178605   7.776   5.257   8.106
26121WAT     H278606   7.729   5.376   8.208
26122WAT      O78607   6.386   2.981   0.483
26122WAT     H178608   6.324   3.059   0.475
26122WAT     H278609   6.396   2.937   0.394
26123WAT      O78610   2.155   4.354   8.141
26123WAT     H178611   2.224   4.404   8.089
26123WAT     H278612   2.199   4.287   8.200
26124WAT      O78613   8.992   7.795   2.140
26124WAT     H178614   8.981   7.710   2.193
26124WAT     H278615   8.919   7.801   2.073
26125WAT      O78616   6.290   2.399   0.141
26125WAT     H178617   6.381   2.424   0.173
26125WAT     H278618   6.298   2.346   0.057
26126WAT      O78619   6.279   4.015   6.459
26126WAT     H178620   6.231   4.069   6.528
26126WAT     H278621   6.378   4.029   6.470
26127WAT      O78622   9.284   0.872   8.375
26127WAT     H178623   9.188   0.861   8.346
26127WAT     H278624   9.304   0.809   8.449
26128WAT      O78625   7.668   7.517   0.098
26128WAT     H178626   7.606   7.474   0.032
26128WAT     H278627   7.709   7.599   0.057
26129WAT      O78628   4.285   3.627   2.478
26129WAT     H178629   4.233   3.695   2.530
26129WAT     H278630   4.364   3.672   2.435
26130WAT      O78631   1.647   4.100   5.146
26130WAT     H178632   1.653   4.168   5.073
26130WAT     H278633   1.620   4.144   5.231
26131WAT      O78634   1.281   0.817   8.173
26131WAT     H178635   1.272   0.722   8.204
26131WAT     H278636   1.263   0.879   8.249
26132WAT      O78637   0.558   4.658   4.813
26132WAT     H178638   0.459   4.659   4.824
26132WAT     H278639   0.601   4.680   4.900
26133WAT      O78640   3.244   5.079   9.669
26133WAT     H178641   3.273   5.068   9.764
26133WAT     H278642   3.154   5.038   9.657
26134WAT      O78643   7.333   8.048   1.784
26134WAT     H178644   7.431   8.038   1.770
26134WAT     H278645   7.291   8.084   1.701
26135WAT      O78646   1.679   9.669   8.840
26135WAT     H178647   1.698   9.740   8.908
26135WAT     H278648   1.581   9.657   8.831
26136WAT      O78649   8.863   8.716   7.600
26136WAT     H178650   8.939   8.729   7.663
26136WAT     H278651   8.848   8.800   7.547
26137WAT      O78652   6.795   6.383   3.278
26137WAT     H178653   6.863   6.435   3.227
26137WAT     H278654   6.755   6.313   3.219
26138WAT      O78655   8.955   0.961   4.975
26138WAT     H178656   9.036   0.952   4.917
26138WAT     H278657   8.882   0.902   4.940
26139WAT      O78658   1.248   4.683   0.715
26139WAT     H178659   1.266   4.658   0.620
26139WAT     H278660   1.163   4.735   0.721
26140WAT      O78661   0.435   5.129   8.014
26140WAT     H178662   0.468   5.121   7.920
26140WAT     H278663   0.339   5.158   8.014
26141WAT      O78664   2.723   1.815   5.490
26141WAT     H178665   2.766   1.755   5.557
26141WAT     H278666   2.646   1.862   5.532
26142WAT      O78667   4.714   3.299   2.328
26142WAT     H178668   4.734   3.313   2.425
26142WAT     H278669   4.697   3.387   2.284
26143WAT      O78670   7.793   7.954   9.877
26143WAT     H178671   7.728   7.971   9.804
26143WAT     H278672   7.818   8.041   9.921
26144WAT      O78673   5.645   5.818   4.753
26144WAT     H178674   5.710   5.823   4.677
26144WAT     H278675   5.686   5.767   4.829
26145WAT      O78676   8.682   0.615   7.819
26145WAT     H178677   8.761   0.598   7.760
26145WAT     H278678   8.707   0.679   7.892
26146WAT      O78679   9.509   7.542   5.541
26146WAT     H178680   9.476   7.513   5.631
26146WAT     H278681   9.447   7.506   5.470
26147WAT      O78682   2.992   7.844   8.755
26147WAT     H178683   2.949   7.783   8.821
26147WAT     H278684   3.046   7.913   8.804
26148WAT      O78685   5.669   9.451   1.282
26148WAT     H178686   5.628   9.542   1.276
26148WAT     H278687   5.597   9.381   1.273
26149WAT      O78688   8.133   6.956   4.818
26149WAT     H178689   8.207   7.012   4.782
26149WAT     H278690   8.052   7.012   4.834
26150WAT      O78691   8.865   4.328   3.725
26150WAT     H178692   8.933   4.269   3.768
26150WAT     H278693   8.856   4.414   3.776
26151WAT      O78694   3.340   0.020   0.306
26151WAT     H178695   3.370   0.116   0.308
26151WAT     H278696   3.244   0.016   0.278
26152WAT      O78697   9.237   8.847   3.164
26152WAT     H178698   9.232   8.860   3.065
26152WAT     H278699   9.297   8.916   3.203
26153WAT      O78700   8.694   6.131   8.444
26153WAT     H178701   8.601   6.131   8.407
26153WAT     H278702   8.694   6.090   8.535
26154WAT      O78703   0.955   3.166   0.593
26154WAT     H178704   0.919   3.247   0.547
26154WAT     H278705   0.925   3.084   0.544
26155WAT      O78706   3.256   3.255   2.969
26155WAT     H178707   3.215   3.246   2.879
26155WAT     H278708   3.354   3.238   2.964
26156WAT      O78709   0.627   7.908   7.119
26156WAT     H178710   0.582   7.987   7.161
26156WAT     H278711   0.630   7.833   7.184
26157WAT      O78712   1.103   1.430   9.687
26157WAT     H178713   1.121   1.340   9.649
26157WAT     H278714   1.169   1.450   9.759
26158WAT      O78715   3.744   1.894   7.326
26158WAT     H178716   3.705   1.890   7.418
26158WAT     H278717   3.727   1.984   7.287
26159WAT      O78718   7.235   5.820   7.853
26159WAT     H178719   7.252   5.863   7.764
26159WAT     H278720   7.232   5.890   7.924
26160WAT      O78721   1.780   2.871   6.331
26160WAT     H178722   1.730   2.857   6.246
26160WAT     H278723   1.747   2.807   6.400
26161WAT      O78724   1.780   4.152   3.250
26161WAT     H178725   1.776   4.214   3.172
26161WAT     H278726   1.742   4.197   3.331
26162WAT      O78727   7.060   6.361   6.683
26162WAT     H178728   7.056   6.408   6.772
26162WAT     H278729   7.155   6.356   6.653
26163WAT      O78730   6.471   7.974   4.441
26163WAT     H178731   6.385   7.993   4.488
26163WAT     H278732   6.493   7.877   4.452
26164WAT      O78733   7.314   3.055   9.816
26164WAT     H178734   7.372   2.989   9.768
26164WAT     H278735   7.355   3.079   9.903
26165WAT      O78736   3.978   6.361   4.158
26165WAT     H178737   3.956   6.266   4.137
26165WAT     H278738   3.973   6.415   4.074
26166WAT      O78739   2.829   4.157   5.856
26166WAT     H178740   2.899   4.135   5.788
26166WAT     H278741   2.754   4.091   5.851
26167WAT      O78742   3.603   4.937   4.428
26167WAT     H178743   3.696   4.970   4.446
26167WAT     H278744   3.539   4.981   4.491
26168WAT      O78745   3.873   3.489   9.250
26168WAT     H178746   3.791   3.475   9.195
26168WAT     H278747   3.954   3.485   9.191
26169WAT      O78748   3.928   4.215   3.325
26169WAT     H178749   3.968   4.123   3.319
26169WAT     H278750   3.914   4.252   3.233
26170WAT      O78751   4.201   7.749   5.958
26170WAT     H178752   4.209   7.787   6.050
26170WAT     H278753   4.269   7.677   5.945
26171WAT      O78754   4.181   3.857   0.224
26171WAT     H178755   4.100   3.872   0.281
26171WAT     H278756   4.189   3.761   0.200
26172WAT      O78757   3.709   9.266   8.701
26172WAT     H178758   3.741   9.361   8.705
26172WAT     H278759   3.719   9.232   8.608
26173WAT      O78760   8.981   4.494   6.341
26173WAT     H178761   8.893   4.507   6.295
26173WAT     H278762   9.054   4.485   6.273
26174WAT      O78763   8.426   4.671   0.502
26174WAT     H178764   8.375   4.741   0.552
26174WAT     H278765   8.446   4.595   0.564
26175WAT      O78766   4.572   9.271   0.236
26175WAT     H178767   4.533   9.254   0.326
26175WAT     H278768   4.499   9.270   0.168
26176WAT      O78769   0.286   3.438   1.730
26176WAT     H178770   0.351   3.432   1.806
26176WAT     H278771   0.292   3.529   1.689
26177WAT      O78772   8.603   8.805   7.145
26177WAT     H178773   8.583   8.707   7.144
26177WAT     H278774   8.689   8.823   7.098
26178WAT      O78775   4.674   7.364   2.011
26178WAT     H178776   4.623   7.330   1.932
26178WAT     H278777   4.692   7.462   1.999
26179WAT      O78778   2.483   3.090   1.438
26179WAT     H178779   2.547   3.093   1.515
26179WAT     H278780   2.531   3.062   1.355
26180WAT      O78781   7.077   2.845   5.325
26180WAT     H178782   7.055   2.877   5.417
26180WAT     H278783   7.015   2.888   5.260
26181WAT      O78784   3.388   8.173   3.939
26181WAT     H178785   3.374   8.166   3.840
26181WAT     H278786   3.317   8.121   3.986
26182WAT      O78787   9.165   4.153   1.529
26182WAT     H178788   9.149   4.138   1.432
26182WAT     H278789   9.263   4.150   1.548
26183WAT      O78790   5.008   1.754   6.171
26183WAT     H178791   5.037   1.842   6.134
26183WAT     H278792   5.063   1.681   6.130
26184WAT      O78793   2.511   3.703   0.305
26184WAT     H178794   2.581   3.678   0.372
26184WAT     H278795   2.551   3.761   0.234
26185WAT      O78796   6.440   2.511   2.390
26185WAT     H178797   6.535   2.482   2.385
26185WAT     H278798   6.431   2.584   2.459
26186WAT      O78799   2.819   8.567   6.472
26186WAT     H178800   2.893   8.634   6.477
26186WAT     H278801   2.857   8.474   6.477
26187WAT      O78802   0.552   0.003   6.372
26187WAT     H178803   0.577   0.099   6.359
26187WAT     H278804   0.487  -0.004   6.448
26188WAT      O78805   0.805   1.158   4.561
26188WAT     H178806   0.818   1.064   4.529
26188WAT     H278807   0.729   1.199   4.511
26189WAT      O78808   6.121   9.018   0.139
26189WAT     H178809   6.151   9.113   0.148
26189WAT     H278810   6.053   8.999   0.210
26190WAT      O78811   8.015   4.987   0.561
26190WAT     H178812   8.020   4.995   0.461
26190WAT     H278813   7.919   4.988   0.589
26191WAT      O78814   5.570   2.600   1.127
26191WAT     H178815   5.591   2.597   1.029
26191WAT     H278816   5.482   2.555   1.143
26192WAT      O78817   0.366   3.950   2.602
26192WAT     H178818   0.305   3.985   2.531
26192WAT     H278819   0.339   3.857   2.627
26193WAT      O78820   0.926   3.860   4.035
26193WAT     H178821   0.992   3.805   3.984
26193WAT     H278822   0.922   3.952   3.996
26194WAT      O78823   6.346   2.190   6.715
26194WAT     H178824   6.301   2.253   6.652
26194WAT     H278825   6.413   2.240   6.771
26195WAT      O78826   3.678   0.543   4.227
26195WAT     H178827   3.681   0.466   4.291
26195WAT     H278828   3.727   0.620   4.266
26196WAT      O78829   3.418   7.385   0.676
26196WAT     H178830   3.447   7.480   0.691
26196WAT     H278831   3.395   7.344   0.764
26197WAT      O78832   1.998   0.582   1.813
26197WAT     H178833   2.005   0.615   1.907
26197WAT     H278834   1.963   0.488   1.814
26198WAT      O78835   7.799   1.431   0.771
26198WAT     H178836   7.798   1.518   0.818
26198WAT     H278837   7.717   1.379   0.794
26199WAT      O78838   1.597   7.546   7.965
26199WAT     H178839   1.524   7.579   8.025
26199WAT     H278840   1.610   7.612   7.891
26200WAT      O78841   9.699   2.222   0.095
26200WAT     H178842   9.655   2.296   0.146
26200WAT     H278843   9.645   2.139   0.104
26201WAT      O78844   9.262   5.272   2.325
26201WAT     H178845   9.264   5.355   2.380
26201WAT     H278846   9.351   5.259   2.281
26202WAT      O78847   2.201   1.021   2.154
26202WAT     H178848   2.273   1.078   2.195
26202WAT     H278849   2.154   1.074   2.084
26203WAT      O78850   2.784   8.978   5.386
26203WAT     H178851   2.742   9.025   5.463
26203WAT     H278852   2.783   8.879   5.403
26204WAT      O78853   1.371   5.677   0.483
26204WAT     H178854   1.371   5.672   0.583
26204WAT     H278855   1.459   5.714   0.452
26205WAT      O78856   5.251   4.924   9.061
26205WAT     H178857   5.171   4.864   9.057
26205WAT     H278858   5.234   5.005   9.005
26206WAT      O78859   2.265   2.017   3.929
26206WAT     H178860   2.213   1.980   4.006
26206WAT     H278861   2.355   1.974   3.927
26207WAT      O78862   7.842   9.408   6.666
26207WAT     H178863   7.753   9.424   6.709
26207WAT     H278864   7.828   9.384   6.570
26208WAT      O78865   3.389   7.967   2.706
26208WAT     H178866   3.429   7.883   2.743
26208WAT     H278867   3.371   7.955   2.608
26209WAT      O78868   0.250   9.717   3.642
26209WAT     H178869   0.286   9.725   3.549
26209WAT     H278870   0.242   9.621   3.666
26210WAT      O78871   1.397   1.600   1.811
26210WAT     H178872   1.319   1.657   1.786
26210WAT     H278873   1.445   1.571   1.728
26211WAT      O78874   1.750   3.459   0.654
26211WAT     H178875   1.690   3.397   0.704
26211WAT     H278876   1.797   3.519   0.719
26212WAT      O78877   2.108   4.454   6.066
26212WAT     H178878   2.152   4.406   5.991
26212WAT     H278879   2.073   4.388   6.132
26213WAT      O78880   3.596   4.830   4.761
26213WAT     H178881   3.508   4.798   4.796
26213WAT     H278882   3.582   4.906   4.698
26214WAT      O78883   4.457   8.998   9.250
26214WAT     H178884   4.359   9.011   9.236
26214WAT     H278885   4.507   9.056   9.186
26215WAT      O78886   9.224   3.910   0.768
26215WAT     H178887   9.171   3.860   0.836
26215WAT     H278888   9.184   3.894   0.677
26216WAT      O78889   7.008   5.801   5.669
26216WAT     H178890   6.994   5.896   5.641
26216WAT     H278891   7.015   5.796   5.768
26217WAT      O78892   0.196   8.759   3.854
26217WAT     H178893   0.177   8.796   3.763
26217WAT     H278894   0.290   8.724   3.858
26218WAT      O78895   3.687   8.180   3.990
26218WAT     H178896   3.701   8.149   3.896
26218WAT     H278897   3.589   8.181   4.010
26219WAT      O78898   1.302   8.043   5.489
26219WAT     H178899   1.327   8.033   5.392
26219WAT     H278900   1.208   8.012   5.502
26220WAT      O78901   9.883   5.021   8.480
26220WAT     H178902   9.962   4.971   8.517
26220WAT     H278903   9.882   5.113   8.518
26221WAT      O78904   2.024   1.125   6.192
26221WAT     H178905   2.020   1.059   6.117
26221WAT     H278906   2.099   1.100   6.254
26222WAT      O78907   8.216   5.045   1.606
26222WAT     H178908   8.179   5.068   1.516
26222WAT     H278909   8.233   5.129   1.658
26223WAT      O78910   4.910   3.052   3.965
26223WAT     H178911   4.815   3.025   3.982
26223WAT     H278912   4.960   2.973   3.929
26224WAT      O78913   8.887   7.366   5.467
26224WAT     H178914   8.891   7.405   5.375
26224WAT     H278915   8.979   7.364   5.506
26225WAT      O78916   2.568   7.699   5.876
26225WAT     H178917   2.642   7.757   5.841
26225WAT     H278918   2.482   7.724   5.832
26226WAT      O78919   1.881   4.688   1.615
26226WAT     H178920   1.915   4.739   1.694
26226WAT     H278921   1.800   4.637   1.641
26227WAT      O78922   6.046   8.405   5.911
26227WAT     H178923   5.957   8.415   5.955
26227WAT     H278924   6.071   8.309   5.907
26228WAT      O78925   9.321   8.555   2.824
26228WAT     H178926   9.307   8.634   2.764
26228WAT     H278927   9.391   8.496   2.785
26229WAT      O78928   1.579   7.345   6.029
26229WAT     H178929   1.621   7.435   6.040
26229WAT     H278930   1.515   7.347   5.952
26230WAT      O78931   6.138   1.870   3.289
26230WAT     H178932   6.059   1.822   3.251
26230WAT     H278933   6.193   1.806   3.343
26231WAT      O78934   6.130   0.991   3.594
26231WAT     H178935   6.088   1.000   3.684
26231WAT     H278936   6.178   0.903   3.587
26232WAT      O78937   1.797   4.122   8.272
26232WAT     H178938   1.830   4.216   8.283
26232WAT     H278939   1.697   4.122   8.269
26233WAT      O78940   0.554   0.279   0.758
26233WAT     H178941   0.479   0.345   0.757
26233WAT     H278942   0.566   0.240   0.667
26234WAT      O78943   8.530   4.313   5.849
26234WAT     H178944   8.565   4.258   5.773
26234WAT     H278945   8.607   4.351   5.900
26235WAT      O78946   0.063   2.865   1.588
26235WAT     H178947  -0.010   2.874   1.521
26235WAT     H278948   0.131   2.799   1.555
26236WAT      O78949   8.153   1.466   4.439
26236WAT     H178950   8.236   1.518   4.421
26236WAT     H278951   8.087   1.481   4.365
26237WAT      O78952   1.840   5.802   4.381
26237WAT     H178953   1.873   5.712   4.354
26237WAT     H278954   1.795   5.797   4.471
26238WAT      O78955   6.953   4.051   4.036
26238WAT     H178956   6.953   3.971   4.095
26238WAT     H278957   7.047   4.080   4.018
26239WAT      O78958   8.488   3.255   0.716
26239WAT     H178959   8.439   3.214   0.793
26239WAT     H278960   8.424   3.309   0.661
26240WAT      O78961   1.735   1.919   4.485
26240WAT     H178962   1.763   1.902   4.391
26240WAT     H278963   1.664   1.855   4.512
26241WAT      O78964   6.563   1.482   4.129
26241WAT     H178965   6.617   1.447   4.206
26241WAT     H278966   6.470   1.500   4.159
26242WAT      O78967   8.304   1.173   8.776
26242WAT     H178968   8.323   1.092   8.720
26242WAT     H278969   8.237   1.231   8.730
26243WAT      O78970   4.107   2.084   5.989
26243WAT     H178971   4.162   2.166   6.005
26243WAT     H278972   4.053   2.064   6.070
26244WAT      O78973   1.027   6.358   2.891
26244WAT     H178974   1.109   6.379   2.838
26244WAT     H278975   0.970   6.294   2.840
26245WAT      O78976   2.591   6.304   5.844
26245WAT     H178977   2.588   6.214   5.886
26245WAT     H278978   2.659   6.305   5.771
26246WAT      O78979   6.605   7.465   0.195
26246WAT     H178980   6.632   7.369   0.186
26246WAT     H278981   6.682   7.518   0.230
26247WAT      O78982   5.505   7.466   4.396
26247WAT     H178983   5.498   7.384   4.340
26247WAT     H278984   5.601   7.485   4.417
26248WAT      O78985   3.387   4.086   0.934
26248WAT     H178986   3.355   4.044   0.849
26248WAT     H278987   3.344   4.176   0.945
26249WAT      O78988   6.457   6.876   8.957
26249WAT     H178989   6.407   6.894   8.872
26249WAT     H278990   6.392   6.849   9.028
26250WAT      O78991   3.679   2.698   3.181
26250WAT     H178992   3.620   2.694   3.262
26250WAT     H278993   3.630   2.740   3.105
26251WAT      O78994   1.226   4.677   3.091
26251WAT     H178995   1.257   4.628   3.009
26251WAT     H278996   1.179   4.613   3.152
26252WAT      O78997   5.441   4.907   8.273
26252WAT     H178998   5.459   4.909   8.371
26252WAT     H278999   5.488   4.829   8.231
26253WAT      O79000   3.903   6.554   5.716
26253WAT     H179001   3.932   6.513   5.802
26253WAT     H279002   3.983   6.580   5.662
26254WAT      O79003   3.299   9.746   4.957
26254WAT     H179004   3.335   9.754   5.050
26254WAT     H279005   3.282   9.837   4.920
26255WAT      O79006   1.101   6.480   8.622
26255WAT     H179007   1.035   6.497   8.548
26255WAT     H279008   1.188   6.449   8.582
26256WAT      O79009   4.916   7.501   1.539
26256WAT     H179010   4.900   7.419   1.594
26256WAT     H279011   4.973   7.478   1.460
26257WAT      O79012   2.404   0.689   6.651
26257WAT     H179013   2.402   0.750   6.730
26257WAT     H279014   2.312   0.658   6.631
26258WAT      O79015   3.273   8.070   9.646
26258WAT     H179016   3.228   8.031   9.566
26258WAT     H279017   3.221   8.149   9.679
26259WAT      O79018   1.428   9.022   4.857
26259WAT     H179019   1.334   8.989   4.869
26259WAT     H279020   1.487   8.977   4.923
26260WAT      O79021   6.185   9.232   3.442
26260WAT     H179022   6.168   9.134   3.444
26260WAT     H279023   6.185   9.268   3.535
26261WAT      O79024   7.146   9.368   0.046
26261WAT     H179025   7.229   9.337   0.000
26261WAT     H279026   7.078   9.395  -0.022
26262WAT      O79027   4.370   9.062   9.551
26262WAT     H179028   4.441   9.074   9.482
26262WAT     H279029   4.313   9.144   9.555
26263WAT      O79030   1.523   0.378   4.392
26263WAT     H179031   1.580   0.402   4.314
26263WAT     H279032   1.527   0.279   4.407
26264WAT      O79033   1.237   8.776   4.662
26264WAT     H179034   1.140   8.799   4.653
26264WAT     H279035   1.246   8.685   4.702
26265WAT      O79036   9.199   4.444   5.746
26265WAT     H179037   9.233   4.375   5.682
26265WAT     H279038   9.235   4.424   5.838
26266WAT      O79039   6.930   8.853   0.623
26266WAT     H179040   6.845   8.864   0.674
26266WAT     H279041   6.988   8.934   0.637
26267WAT      O79042   2.937   7.580   6.863
26267WAT     H179043   2.968   7.499   6.912
26267WAT     H279044   2.996   7.594   6.783
26268WAT      O79045   2.498   3.557   7.471
26268WAT     H179046   2.555   3.495   7.526
26268WAT     H279047   2.408   3.566   7.513
26269WAT      O79048   0.597   1.374   8.600
26269WAT     H179049   0.506   1.401   8.631
26269WAT     H279050   0.649   1.335   8.676
26270WAT      O79051   6.849   3.401   1.305
26270WAT     H179052   6.845   3.409   1.405
26270WAT     H279053   6.794   3.473   1.264
26271WAT      O79054   7.285   5.003   0.458
26271WAT     H179055   7.303   5.079   0.396
26271WAT     H279056   7.190   4.972   0.447
26272WAT      O79057   4.667   3.583   9.355
26272WAT     H179058   4.668   3.682   9.373
26272WAT     H279059   4.738   3.562   9.287
26273WAT      O79060   6.222   4.357   2.940
26273WAT     H179061   6.145   4.355   2.876
26273WAT     H279062   6.308   4.360   2.889
26274WAT      O79063   7.841   9.107   8.053
26274WAT     H179064   7.844   9.042   7.977
26274WAT     H279065   7.861   9.060   8.139
26275WAT      O79066   7.212   6.718   9.846
26275WAT     H179067   7.309   6.698   9.838
26275WAT     H279068   7.167   6.699   9.759
26276WAT      O79069   1.194   8.849   3.016
26276WAT     H179070   1.217   8.770   2.959
26276WAT     H279071   1.170   8.817   3.108
26277WAT      O79072   3.248   0.478   0.794
26277WAT     H179073   3.336   0.468   0.841
26277WAT     H279074   3.174   0.473   0.861
26278WAT      O79075   4.546   9.198   5.407
26278WAT     H179076   4.498   9.286   5.412
26278WAT     H279077   4.499   9.138   5.343
26279WAT      O79078   0.393   2.634   2.388
26279WAT     H179079   0.419   2.538   2.402
26279WAT     H279080   0.293   2.643   2.398
26280WAT      O79081   1.125   5.552   7.925
26280WAT     H179082   1.129   5.582   7.830
26280WAT     H279083   1.088   5.459   7.928
26281WAT      O79084   1.230   0.506   3.603
26281WAT     H179085   1.139   0.541   3.579
26281WAT     H279086   1.300   0.571   3.573
26282WAT      O79087   8.408   4.336   7.364
26282WAT     H179088   8.430   4.383   7.449
26282WAT     H279089   8.394   4.239   7.381
26283WAT      O79090   8.415   4.836   7.773
26283WAT     H179091   8.448   4.930   7.773
26283WAT     H279092   8.493   4.773   7.773
26284WAT      O79093   0.793   4.949   7.463
26284WAT     H179094   0.701   4.930   7.429
26284WAT     H279095   0.855   4.876   7.437
26285WAT      O79096   6.126   0.628   1.074
26285WAT     H179097   6.076   0.608   1.158
26285WAT     H279098   6.081   0.704   1.026
26286WAT      O79099   4.404   7.639   5.607
26286WAT     H179100   4.385   7.732   5.576
26286WAT     H279101   4.503   7.623   5.606
26287WAT      O79102   5.648   9.119   8.085
26287WAT     H179103   5.731   9.063   8.092
26287WAT     H279104   5.620   9.123   7.989
26288WAT      O79105   4.653   3.879   2.865
26288WAT     H179106   4.742   3.878   2.819
26288WAT     H279107   4.599   3.800   2.836
26289WAT      O79108   5.266   1.480   2.741
26289WAT     H179109   5.245   1.557   2.802
26289WAT     H279110   5.364   1.462   2.741
26290WAT      O79111   6.828   7.968   6.486
26290WAT     H179112   6.858   7.875   6.505
26290WAT     H279113   6.784   8.006   6.568
26291WAT      O79114   2.976   5.075   1.612
26291WAT     H179115   3.056   5.038   1.659
26291WAT     H279116   2.903   5.090   1.678
26292WAT      O79117   3.458   5.474   7.334
26292WAT     H179118   3.419   5.412   7.402
26292WAT     H279119   3.502   5.421   7.262
26293WAT      O79120   4.500   2.091   1.708
26293WAT     H179121   4.476   2.034   1.629
26293WAT     H279122   4.541   2.034   1.779
26294WAT      O79123   2.972   8.108   4.665
26294WAT     H179124   2.898   8.068   4.720
26294WAT     H279125   3.040   8.149   4.726
26295WAT      O79126   9.363   8.081   9.168
26295WAT     H179127   9.365   7.989   9.206
26295WAT     H279128   9.430   8.089   9.095
26296WAT      O79129   1.936   6.593   3.308
26296WAT     H179130   2.032   6.567   3.306
26296WAT     H279131   1.914   6.633   3.397
26297WAT      O79132   7.078   1.657   1.994
26297WAT     H179133   7.149   1.593   2.022
26297WAT     H279134   7.011   1.610   1.937
26298WAT      O79135   8.263   7.456   1.550
26298WAT     H179136   8.205   7.423   1.625
26298WAT     H279137   8.346   7.497   1.589
26299WAT      O79138   1.775   8.001   6.893
26299WAT     H179139   1.830   8.084   6.882
26299WAT     H279140   1.714   7.992   6.814
26300WAT      O79141   8.202   1.847   4.894
26300WAT     H179142   8.231   1.854   4.990
26300WAT     H279143   8.268   1.894   4.836
26301WAT      O79144   2.159   1.168   4.613
26301WAT     H179145   2.094   1.216   4.554
26301WAT     H279146   2.216   1.107   4.558
26302WAT      O79147   7.722   1.010   2.306
26302WAT     H179148   7.665   0.975   2.381
26302WAT     H279149   7.818   1.010   2.335
26303WAT      O79150   9.095   6.699   6.798
26303WAT     H179151   9.096   6.601   6.777
26303WAT     H279152   9.044   6.714   6.882
26304WAT      O79153   9.059   1.745   9.262
26304WAT     H179154   9.003   1.755   9.179
26304WAT     H279155   9.043   1.824   9.322
26305WAT      O79156   1.549   3.796   6.192
26305WAT     H179157   1.576   3.889   6.219
26305WAT     H279158   1.486   3.802   6.114
26306WAT      O79159   9.214   6.516   8.066
26306WAT     H179160   9.181   6.533   7.973
26306WAT     H279161   9.135   6.505   8.127
26307WAT      O79162   3.533   9.274   0.303
26307WAT     H179163   3.532   9.188   0.354
26307WAT     H279164   3.592   9.265   0.223
26308WAT      O79165   5.112   6.110   6.372
26308WAT     H179166   5.097   6.014   6.395
26308WAT     H279167   5.097   6.124   6.274
26309WAT      O79168   7.127   3.619   0.406
26309WAT     H179169   7.174   3.563   0.474
26309WAT     H279170   7.058   3.564   0.359
26310WAT      O79171   6.254   8.524   6.070
26310WAT     H179172   6.307   8.489   6.147
26310WAT     H279173   6.183   8.457   6.045
26311WAT      O79174   2.931   5.335   0.677
26311WAT     H179175   2.919   5.243   0.712
26311WAT     H279176   3.018   5.340   0.626
26312WAT      O79177   4.950   2.929   8.178
26312WAT     H179178   5.048   2.918   8.189
26312WAT     H279179   4.901   2.864   8.236
26313WAT      O79180   4.054   2.472   5.920
26313WAT     H179181   4.085   2.425   5.837
26313WAT     H279182   3.986   2.541   5.895
26314WAT      O79183   5.864   2.662   8.765
26314WAT     H179184   5.855   2.623   8.856
26314WAT     H279185   5.934   2.612   8.714
26315WAT      O79186   5.241   6.559   1.936
26315WAT     H179187   5.196   6.498   1.870
26315WAT     H279188   5.306   6.505   1.991
26316WAT      O79189   3.508   3.318   9.361
26316WAT     H179190   3.454   3.245   9.402
26316WAT     H279191   3.515   3.395   9.425
26317WAT      O79192   9.708   4.627   3.492
26317WAT     H179193   9.732   4.552   3.431
26317WAT     H279194   9.624   4.604   3.542
26318WAT      O79195   7.860   2.180   0.936
26318WAT     H179196   7.882   2.239   1.014
26318WAT     H279197   7.768   2.201   0.903
26319WAT      O79198   9.505   1.507   4.740
26319WAT     H179199   9.408   1.526   4.752
26319WAT     H279200   9.539   1.455   4.818
26320WAT      O79201   3.392   9.412   0.924
26320WAT     H179202   3.441   9.488   0.965
26320WAT     H279203   3.450   9.330   0.924
26321WAT      O79204   8.537   5.136   9.743
26321WAT     H179205   8.530   5.083   9.658
26321WAT     H279206   8.525   5.233   9.722
26322WAT      O79207   8.996   5.789   8.451
26322WAT     H179208   9.057   5.777   8.529
26322WAT     H279209   9.046   5.768   8.366
26323WAT      O79210   0.063   5.189   3.315
26323WAT     H179211   0.077   5.155   3.408
26323WAT     H279212   0.101   5.123   3.249
26324WAT      O79213   7.206   8.197   2.078
26324WAT     H179214   7.201   8.110   2.029
26324WAT     H279215   7.296   8.237   2.065
26325WAT      O79216   1.306   1.685   2.153
26325WAT     H179217   1.228   1.708   2.094
26325WAT     H279218   1.370   1.628   2.102
26326WAT      O79219   6.949   9.057   7.305
26326WAT     H179220   6.877   9.070   7.236
26326WAT     H279221   6.966   9.143   7.353
26327WAT      O79222   3.794   4.619   2.904
26327WAT     H179223   3.788   4.612   3.004
26327WAT     H279224   3.728   4.687   2.872
26328WAT      O79225   6.816   6.791   4.204
26328WAT     H179226   6.769   6.738   4.274
26328WAT     H279227   6.758   6.797   4.122
26329WAT      O79228   5.729   0.757   8.995
26329WAT     H179229   5.666   0.827   9.028
26329WAT     H279230   5.819   0.771   9.036
26330WAT      O79231   3.131   9.071   3.315
26330WAT     H179232   3.096   8.982   3.342
26330WAT     H279233   3.103   9.091   3.221
26331WAT      O79234   4.076   9.059   7.510
26331WAT     H179235   4.152   9.115   7.545
26331WAT     H279236   4.077   9.061   7.410
26332WAT      O79237   5.789   5.541   4.751
26332WAT     H179238   5.696   5.508   4.768
26332WAT     H279239   5.806   5.544   4.653
26333WAT      O79240   0.517   0.782   9.128
26333WAT     H179241   0.538   0.877   9.108
26333WAT     H279242   0.602   0.733   9.150
26334WAT      O79243   8.955   1.606   3.923
26334WAT     H179244   8.866   1.627   3.882
26334WAT     H279245   9.007   1.690   3.937
26335WAT      O79246   4.297   1.270   9.487
26335WAT     H179247   4.335   1.342   9.546
26335WAT     H279248   4.290   1.185   9.540
26336WAT      O79249   0.318   2.893   5.657
26336WAT     H179250   0.370   2.826   5.711
26336WAT     H279251   0.258   2.845   5.593
26337WAT      O79252   0.622   0.218   4.584
26337WAT     H179253   0.566   0.141   4.617
26337WAT     H279254   0.717   0.204   4.612
26338WAT      O79255   2.265   8.724   0.746
26338WAT     H179256   2.180   8.768   0.775
26338WAT     H279257   2.325   8.713   0.825
26339WAT      O79258   2.054   4.791   1.312
26339WAT     H179259   2.110   4.804   1.230
26339WAT     H279260   1.958   4.780   1.285
26340WAT      O79261   3.804   2.049   0.785
26340WAT     H179262   3.868   2.126   0.784
26340WAT     H279263   3.725   2.072   0.842
26341WAT      O79264   3.201   9.281   2.288
26341WAT     H179265   3.279   9.223   2.312
26341WAT     H279266   3.230   9.377   2.287
26342WAT      O79267   5.924   0.339   8.070
26342WAT     H179268   5.892   0.347   7.975
26342WAT     H279269   5.983   0.416   8.092
26343WAT      O79270   8.658   8.348   9.824
26343WAT     H179271   8.729   8.278   9.814
26343WAT     H279272   8.568   8.305   9.812
26344WAT      O79273   8.240   8.185   0.073
26344WAT     H179274   8.320   8.197   0.014
26344WAT     H279275   8.265   8.126   0.150
26345WAT      O79276   2.150   8.753   4.891
26345WAT     H179277   2.167   8.816   4.816
26345WAT     H279278   2.156   8.802   4.978
26346WAT      O79279   0.878   1.756   3.123
26346WAT     H179280   0.806   1.762   3.053
26346WAT     H279281   0.963   1.795   3.087
26347WAT      O79282   7.719   3.131   5.217
26347WAT     H179283   7.655   3.203   5.190
26347WAT     H279284   7.693   3.095   5.306
26348WAT      O79285   4.204   9.602   6.420
26348WAT     H179286   4.282   9.627   6.364
26348WAT     H279287   4.126   9.662   6.398
26349WAT      O79288   7.207   7.433   5.290
26349WAT     H179289   7.192   7.364   5.220
26349WAT     H279290   7.301   7.428   5.323
26350WAT      O79291   7.154   0.079   0.791
26350WAT     H179292   7.240   0.035   0.817
26350WAT     H279293   7.108   0.114   0.872
26351WAT      O79294   6.284   3.852   3.736
26351WAT     H179295   6.380   3.824   3.728
26351WAT     H279296   6.250   3.878   3.646
26352WAT      O79297   2.868   5.631   4.395
26352WAT     H179298   2.782   5.642   4.445
26352WAT     H279299   2.848   5.605   4.301
26353WAT      O79300   6.045   9.409   2.437
26353WAT     H179301   6.109   9.333   2.446
26353WAT     H279302   6.096   9.493   2.419
26354WAT      O79303   6.069   3.027   8.633
26354WAT     H179304   6.100   2.969   8.708
26354WAT     H279305   6.098   2.988   8.546
26355WAT      O79306   4.318   7.782   2.439
26355WAT     H179307   4.412   7.756   2.416
26355WAT     H279308   4.274   7.706   2.488
26356WAT      O79309   8.766   3.061   4.114
26356WAT     H179310   8.733   2.970   4.091
26356WAT     H279311   8.865   3.064   4.107
26357WAT      O79312   3.726   4.818   6.558
26357WAT     H179313   3.680   4.905   6.574
26357WAT     H279314   3.789   4.827   6.481
26358WAT      O79315   7.493   9.011   2.326
26358WAT     H179316   7.501   9.046   2.419
26358WAT     H279317   7.397   8.992   2.306
26359WAT      O79318   8.391   0.126   7.549
26359WAT     H179319   8.304   0.110   7.503
26359WAT     H279320   8.424   0.218   7.526
26360WAT      O79321   5.061   4.811   3.095
26360WAT     H179322   5.155   4.826   3.128
26360WAT     H279323   5.053   4.718   3.060
26361WAT      O79324   6.102   9.780   4.176
26361WAT     H179325   6.054   9.727   4.245
26361WAT     H279326   6.135   9.866   4.215
26362WAT      O79327   9.786   5.232   6.386
26362WAT     H179328   9.728   5.240   6.467
26362WAT     H279329   9.805   5.135   6.369
26363WAT      O79330   1.355   0.626   7.816
26363WAT     H179331   1.410   0.709   7.825
26363WAT     H279332   1.274   0.634   7.875
26364WAT      O79333   9.642   0.848   7.819
26364WAT     H179334   9.671   0.863   7.913
26364WAT     H279335   9.542   0.850   7.815
26365WAT      O79336   5.171   4.817   2.737
26365WAT     H179337   5.178   4.904   2.787
26365WAT     H279338   5.083   4.774   2.757
26366WAT      O79339   8.146   0.306   5.008
26366WAT     H179340   8.218   0.359   5.051
26366WAT     H279341   8.155   0.210   5.035
26367WAT      O79342   0.829   7.473   8.578
26367WAT     H179343   0.768   7.525   8.638
26367WAT     H279344   0.882   7.408   8.632
26368WAT      O79345   4.237   3.115   3.220
26368WAT     H179346   4.220   3.067   3.306
26368WAT     H279347   4.315   3.176   3.231
26369WAT      O79348   9.233   0.646   1.642
26369WAT     H179349   9.194   0.659   1.733
26369WAT     H279350   9.159   0.636   1.576
26370WAT      O79351   3.099   9.505   9.708
26370WAT     H179352   3.029   9.559   9.755
26370WAT     H279353   3.092   9.520   9.609
26371WAT      O79354   4.188   3.139   2.198
26371WAT     H179355   4.267   3.197   2.181
26371WAT     H279356   4.115   3.161   2.133
26372WAT      O79357   0.468   8.002   7.470
26372WAT     H179358   0.420   7.928   7.422
26372WAT     H279359   0.525   7.963   7.542
26373WAT      O79360   2.462   0.418   1.982
26373WAT     H179361   2.498   0.511   1.966
26373WAT     H279362   2.371   0.424   2.022
26374WAT      O79363   1.243   0.740   1.651
26374WAT     H179364   1.225   0.832   1.617
26374WAT     H279365   1.298   0.690   1.584
26375WAT      O79366   8.715   8.465   5.109
26375WAT     H179367   8.713   8.368   5.134
26375WAT     H279368   8.632   8.488   5.059
26376WAT      O79369   8.145   2.304   8.414
26376WAT     H179370   8.088   2.285   8.334
26376WAT     H279371   8.144   2.226   8.476
26377WAT      O79372   2.607   9.754   1.196
26377WAT     H179373   2.664   9.730   1.117
26377WAT     H279374   2.620   9.851   1.217
26378WAT      O79375   9.695   8.779   9.411
26378WAT     H179376   9.729   8.797   9.319
26378WAT     H279377   9.741   8.698   9.448
26379WAT      O79378   7.650   7.627   3.765
26379WAT     H179379   7.614   7.719   3.784
26379WAT     H279380   7.745   7.634   3.736
26380WAT      O79381   6.474   1.294   1.482
26380WAT     H179382   6.378   1.264   1.474
26380WAT     H279383   6.532   1.233   1.428
26381WAT      O79384   3.325   9.159   5.071
26381WAT     H179385   3.355   9.133   5.163
26381WAT     H279386   3.281   9.081   5.027
26382WAT      O79387   4.599   6.483   4.390
26382WAT     H179388   4.604   6.384   4.386
26382WAT     H279389   4.519   6.514   4.338
26383WAT      O79390   2.689   2.577   1.107
26383WAT     H179391   2.741   2.516   1.165
26383WAT     H279392   2.750   2.645   1.067
26384WAT      O79393   5.026   6.215   3.308
26384WAT     H179394   4.968   6.258   3.239
26384WAT     H279395   4.977   6.210   3.395
26385WAT      O79396   2.729   5.960   4.641
26385WAT     H179397   2.797   5.930   4.574
26385WAT     H279398   2.738   6.058   4.658
26386WAT      O79399   0.376   5.619   3.416
26386WAT     H179400   0.306   5.683   3.383
26386WAT     H279401   0.418   5.572   3.339
26387WAT      O79402   2.011   8.139   1.528
26387WAT     H179403   1.997   8.074   1.453
26387WAT     H279404   1.925   8.153   1.576
26388WAT      O79405   5.002   8.363   7.255
26388WAT     H179406   5.024   8.382   7.351
26388WAT     H279407   5.086   8.359   7.201
26389WAT      O79408   4.466   1.929   2.838
26389WAT     H179409   4.438   1.833   2.828
26389WAT     H279410   4.462   1.974   2.749
26390WAT      O79411   0.694   4.427   1.789
26390WAT     H179412   0.737   4.428   1.879
26390WAT     H279413   0.617   4.491   1.789
26391WAT      O79414   0.220   1.906   1.000
26391WAT     H179415   0.198   1.906   0.903
26391WAT     H279416   0.319   1.896   1.013
26392WAT      O79417   7.194   2.119   0.919
26392WAT     H179418   7.155   2.094   0.831
26392WAT     H279419   7.214   2.037   0.972
26393WAT      O79420   7.772   7.185   0.179
26393WAT     H179421   7.687   7.230   0.204
26393WAT     H279422   7.800   7.123   0.253
26394WAT      O79423   6.655   3.083   4.393
26394WAT     H179424   6.716   3.122   4.324
26394WAT     H279425   6.701   3.007   4.439
26395WAT      O79426   7.870   5.283   2.376
26395WAT     H179427   7.811   5.207   2.351
26395WAT     H279428   7.815   5.366   2.389
26396WAT      O79429   5.432   3.096   2.448
26396WAT     H179430   5.343   3.116   2.490
26396WAT     H279431   5.418   3.054   2.358
26397WAT      O79432   3.011   4.472   1.595
26397WAT     H179433   3.022   4.395   1.533
26397WAT     H279434   2.922   4.515   1.580
26398WAT      O79435   1.863   9.826   6.555
26398WAT     H179436   1.942   9.887   6.556
26398WAT     H279437   1.868   9.765   6.634
26399WAT      O79438   7.959   6.076   3.116
26399WAT     H179439   8.037   6.061   3.176
26399WAT     H279440   7.963   6.169   3.079
26400WAT      O79441   3.449   0.840   2.923
26400WAT     H179442   3.545   0.811   2.923
26400WAT     H279443   3.422   0.865   3.016
26401WAT      O79444   8.183   2.911   0.443
26401WAT     H179445   8.128   2.895   0.362
26401WAT     H279446   8.278   2.887   0.424
26402WAT      O79447   0.860   3.040   2.369
26402WAT     H179448   0.877   2.944   2.346
26402WAT     H279449   0.827   3.088   2.288
26403WAT      O79450   7.839   2.443   4.614
26403WAT     H179451   7.881   2.352   4.615
26403WAT     H279452   7.884   2.500   4.546
26404WAT      O79453   8.393   9.044   9.824
26404WAT     H179454   8.342   9.062   9.908
26404WAT     H279455   8.392   9.126   9.766
26405WAT      O79456   6.817   6.360   1.874
26405WAT     H179457   6.720   6.346   1.855
26405WAT     H279458   6.843   6.452   1.846
26406WAT      O79459   3.305   8.786   5.725
26406WAT     H179460   3.334   8.804   5.819
26406WAT     H279461   3.267   8.694   5.719
26407WAT      O79462   2.722   5.786   8.469
26407WAT     H179463   2.773   5.820   8.547
26407WAT     H279464   2.781   5.728   8.413
26408WAT      O79465   9.256   0.325   8.826
26408WAT     H179466   9.310   0.389   8.772
26408WAT     H279467   9.303   0.237   8.831
26409WAT      O79468   0.918   6.053   8.377
26409WAT     H179469   0.886   6.052   8.282
26409WAT     H279470   1.007   6.008   8.382
26410WAT      O79471   2.156   8.599   0.519
26410WAT     H179472   2.186   8.652   0.598
26410WAT     H279473   2.093   8.655   0.464
26411WAT      O79474   4.367   1.689   4.482
26411WAT     H179475   4.454   1.646   4.506
26411WAT     H279476   4.293   1.645   4.533
26412WAT      O79477   3.065   8.684   5.250
26412WAT     H179478   3.001   8.748   5.293
26412WAT     H279479   3.079   8.711   5.155
26413WAT      O79480   9.144   4.831   0.760
26413WAT     H179481   9.141   4.746   0.812
26413WAT     H279482   9.205   4.820   0.682
26414WAT      O79483   3.099   6.657   3.682
26414WAT     H179484   3.045   6.585   3.724
26414WAT     H279485   3.185   6.668   3.732
26415WAT      O79486   1.568   2.219   1.302
26415WAT     H179487   1.555   2.151   1.229
26415WAT     H279488   1.625   2.294   1.267
26416WAT      O79489   9.551   9.283   8.934
26416WAT     H179490   9.612   9.343   8.985
26416WAT     H279491   9.601   9.243   8.857
26417WAT      O79492   4.629   8.427   0.040
26417WAT     H179493   4.548   8.485   0.039
26417WAT     H279494   4.686   8.450   0.119
26418WAT      O79495   6.794   6.308   8.570
26418WAT     H179496   6.803   6.364   8.487
26418WAT     H279497   6.814   6.365   8.650
26419WAT      O79498   8.149   4.237   4.785
26419WAT     H179499   8.081   4.192   4.843
26419WAT     H279500   8.115   4.239   4.691
26420WAT      O79501   5.644   0.197   3.251
26420WAT     H179502   5.574   0.268   3.249
26420WAT     H279503   5.647   0.153   3.341
26421WAT      O79504   2.745   7.242   4.578
26421WAT     H179505   2.720   7.336   4.555
26421WAT     H279506   2.817   7.211   4.517
26422WAT      O79507   3.317   9.663   2.810
26422WAT     H179508   3.378   9.604   2.862
26422WAT     H279509   3.347   9.667   2.714
26423WAT      O79510   1.694   1.485   2.992
26423WAT     H179511   1.772   1.432   2.961
26423WAT     H279512   1.625   1.424   3.031
26424WAT      O79513   5.474   9.198   8.527
26424WAT     H179514   5.514   9.289   8.534
26424WAT     H279515   5.513   9.151   8.447
26425WAT      O79516   2.471   5.119   2.964
26425WAT     H179517   2.506   5.112   2.871
26425WAT     H279518   2.446   5.028   2.997
26426WAT      O79519   5.108   7.399   5.838
26426WAT     H179520   5.107   7.439   5.747
26426WAT     H279521   5.065   7.463   5.903
26427WAT      O79522   2.937   9.163   4.851
26427WAT     H179523   2.895   9.254   4.854
26427WAT     H279524   2.865   9.094   4.855
26428WAT      O79525   9.108   5.890   4.157
26428WAT     H179526   9.184   5.931   4.208
26428WAT     H279527   9.038   5.858   4.220
26429WAT      O79528   6.558   3.390   3.358
26429WAT     H179529   6.577   3.301   3.400
26429WAT     H279530   6.641   3.425   3.314
26430WAT      O79531   6.448   2.065   5.094
26430WAT     H179532   6.528   2.122   5.078
26430WAT     H279533   6.470   1.993   5.160
26431WAT      O79534   0.213   6.519   5.399
26431WAT     H179535   0.201   6.420   5.393
26431WAT     H279536   0.125   6.564   5.379
26432WAT      O79537   4.536   1.334   3.609
26432WAT     H179538   4.544   1.253   3.667
26432WAT     H279539   4.535   1.306   3.513
26433WAT      O79540   6.696   8.870   6.074
26433WAT     H179541   6.695   8.862   5.974
26433WAT     H279542   6.791   8.874   6.106
26434WAT      O79543   5.166   9.300   3.084
26434WAT     H179544   5.194   9.246   3.005
26434WAT     H279545   5.165   9.397   3.060
26435WAT      O79546   2.720   2.411   1.942
26435WAT     H179547   2.710   2.414   1.843
26435WAT     H279548   2.674   2.489   1.983
26436WAT      O79549   0.817   1.529   7.479
26436WAT     H179550   0.855   1.437   7.484
26436WAT     H279551   0.762   1.537   7.395
26437WAT      O79552   9.059   1.837   0.867
26437WAT     H179553   9.053   1.925   0.913
26437WAT     H279554   9.070   1.764   0.935
26438WAT      O79555   5.386   1.475   3.657
26438WAT     H179556   5.338   1.417   3.591
26438WAT     H279557   5.461   1.523   3.611
26439WAT      O79558   6.476   8.346   6.225
26439WAT     H179559   6.530   8.267   6.255
26439WAT     H279560   6.528   8.430   6.238
26440WAT      O79561   1.975   0.218   8.989
26440WAT     H179562   2.047   0.196   8.923
26440WAT     H279563   1.917   0.291   8.952
26441WAT      O79564   1.469   3.838   1.385
26441WAT     H179565   1.369   3.847   1.383
26441WAT     H279566   1.495   3.747   1.352
26442WAT      O79567   4.265   3.811   1.499
26442WAT     H179568   4.262   3.770   1.409
26442WAT     H279569   4.243   3.909   1.492
26443WAT      O79570   9.762   7.067   0.243
26443WAT     H179571   9.859   7.071   0.267
26443WAT     H279572   9.731   6.972   0.246
26444WAT      O79573   7.410   2.238   8.303
26444WAT     H179574   7.398   2.225   8.401
26444WAT     H279575   7.440   2.332   8.285
26445WAT      O79576   4.657   3.582   1.676
26445WAT     H179577   4.619   3.673   1.658
26445WAT     H279578   4.609   3.541   1.753
26446WAT      O79579   1.748   9.011   7.025
26446WAT     H179580   1.788   9.024   6.935
26446WAT     H279581   1.820   8.982   7.089
26447WAT      O79582   3.164   0.192   6.643
26447WAT     H179583   3.209   0.105   6.665
26447WAT     H279584   3.092   0.211   6.709
26448WAT      O79585   9.710   5.103   8.181
26448WAT     H179586   9.650   5.039   8.134
26448WAT     H279587   9.804   5.068   8.180
26449WAT      O79588   8.385   6.779   2.223
26449WAT     H179589   8.470   6.797   2.273
26449WAT     H279590   8.398   6.801   2.126
26450WAT      O79591   5.984   4.333   7.162
26450WAT     H179592   5.998   4.425   7.198
26450WAT     H279593   6.071   4.284   7.163
26451WAT      O79594   5.601   8.231   7.865
26451WAT     H179595   5.537   8.223   7.789
26451WAT     H279596   5.631   8.326   7.873
26452WAT      O79597   1.705   3.165   1.755
26452WAT     H179598   1.723   3.112   1.837
26452WAT     H279599   1.660   3.108   1.687
26453WAT      O79600   1.029   4.043   2.832
26453WAT     H179601   0.985   4.107   2.894
26453WAT     H279602   1.128   4.044   2.847
26454WAT      O79603   8.198   5.737   2.010
26454WAT     H179604   8.218   5.643   2.038
26454WAT     H279605   8.252   5.759   1.928
26455WAT      O79606   5.810   2.312   4.362
26455WAT     H179607   5.883   2.256   4.323
26455WAT     H279608   5.849   2.389   4.412
26456WAT      O79609   5.464   9.383   3.600
26456WAT     H179610   5.432   9.476   3.620
26456WAT     H279611   5.387   9.320   3.603
26457WAT      O79612   4.873   5.800   5.023
26457WAT     H179613   4.961   5.808   5.071
26457WAT     H279614   4.881   5.843   4.933
26458WAT      O79615   2.609   3.954   3.894
26458WAT     H179616   2.576   3.925   3.805
26458WAT     H279617   2.587   4.051   3.908
26459WAT      O79618   0.581   3.214   8.596
26459WAT     H179619   0.586   3.118   8.623
26459WAT     H279620   0.521   3.223   8.517
26460WAT      O79621   1.508   6.649   1.895
26460WAT     H179622   1.517   6.636   1.796
26460WAT     H279623   1.599   6.658   1.936
26461WAT      O79624   3.507   5.734   0.722
26461WAT     H179625   3.549   5.680   0.795
26461WAT     H279626   3.427   5.686   0.686
26462WAT      O79627   4.803   8.877   5.445
26462WAT     H179628   4.786   8.783   5.417
26462WAT     H279629   4.735   8.904   5.513
26463WAT      O79630   0.036   7.569   1.242
26463WAT     H179631  -0.029   7.639   1.213
26463WAT     H279632   0.086   7.536   1.162
26464WAT      O79633   2.804   1.441   9.818
26464WAT     H179634   2.771   1.501   9.746
26464WAT     H279635   2.904   1.444   9.821
26465WAT      O79636   6.148   6.315   6.371
26465WAT     H179637   6.134   6.307   6.272
26465WAT     H279638   6.059   6.320   6.417
26466WAT      O79639   6.002   0.678   9.327
26466WAT     H179640   6.000   0.664   9.228
26466WAT     H279641   6.009   0.589   9.372
26467WAT      O79642   5.948   0.228   2.361
26467WAT     H179643   6.025   0.199   2.417
26467WAT     H279644   5.869   0.169   2.378
26468WAT      O79645   1.372   9.751   1.644
26468WAT     H179646   1.339   9.811   1.572
26468WAT     H279647   1.295   9.721   1.700
26469WAT      O79648   1.693   3.267   6.832
26469WAT     H179649   1.670   3.181   6.788
26469WAT     H279650   1.790   3.288   6.817
26470WAT      O79651   1.216   6.271   6.174
26470WAT     H179652   1.216   6.352   6.231
26470WAT     H279653   1.250   6.293   6.083
26471WAT      O79654   6.579   3.376   1.704
26471WAT     H179655   6.490   3.341   1.732
26471WAT     H279656   6.571   3.473   1.679
26472WAT      O79657   2.541   8.887   2.441
26472WAT     H179658   2.531   8.980   2.407
26472WAT     H279659   2.626   8.879   2.493
26473WAT      O79660   3.267   1.739   3.378
26473WAT     H179661   3.184   1.768   3.330
26473WAT     H279662   3.267   1.640   3.387
26474WAT      O79663   1.271   4.774   0.104
26474WAT     H179664   1.344   4.819   0.154
26474WAT     H279665   1.238   4.834   0.032
26475WAT      O79666   2.816   9.442   4.359
26475WAT     H179667   2.878   9.363   4.355
26475WAT     H279668   2.840   9.507   4.288
26476WAT      O79669   0.750   4.484   1.325
26476WAT     H179670   0.771   4.507   1.420
26476WAT     H279671   0.699   4.398   1.322
26477WAT      O79672   3.367   1.011   6.774
26477WAT     H179673   3.427   0.933   6.789
26477WAT     H279674   3.398   1.062   6.694
26478WAT      O79675   7.473   6.047   0.469
26478WAT     H179676   7.376   6.043   0.493
26478WAT     H279677   7.483   6.087   0.378
26479WAT      O79678   3.191   6.386   5.164
26479WAT     H179679   3.208   6.433   5.251
26479WAT     H279680   3.096   6.356   5.161
26480WAT      O79681   3.445   0.425   2.092
26480WAT     H179682   3.408   0.513   2.123
26480WAT     H279683   3.542   0.434   2.073
26481WAT      O79684   0.835   7.191   6.193
26481WAT     H179685   0.796   7.260   6.254
26481WAT     H279686   0.811   7.212   6.098
26482WAT      O79687   1.374   0.916   8.936
26482WAT     H179688   1.312   0.901   9.013
26482WAT     H279689   1.436   0.838   8.927
26483WAT      O79690   6.220   9.376   8.220
26483WAT     H179691   6.287   9.307   8.189
26483WAT     H279692   6.147   9.330   8.271
26484WAT      O79693   8.670   5.502   5.375
26484WAT     H179694   8.615   5.569   5.325
26484WAT     H279695   8.611   5.448   5.435
26485WAT      O79696   0.538   0.238   2.899
26485WAT     H179697   0.476   0.294   2.955
26485WAT     H279698   0.597   0.298   2.845
26486WAT      O79699   9.173   9.284   6.595
26486WAT     H179700   9.102   9.260   6.660
26486WAT     H279701   9.261   9.249   6.627
26487WAT      O79702   0.116   0.187   0.755
26487WAT     H179703   0.156   0.168   0.844
26487WAT     H279704   0.038   0.127   0.740
26488WAT      O79705   6.783   4.361   8.144
26488WAT     H179706   6.877   4.362   8.180
26488WAT     H279707   6.786   4.372   8.045
26489WAT      O79708   6.654   2.147   8.510
26489WAT     H179709   6.715   2.072   8.485
26489WAT     H279710   6.612   2.185   8.427
26490WAT      O79711   3.922   3.790   5.209
26490WAT     H179712   3.989   3.723   5.179
26490WAT     H279713   3.838   3.742   5.237
26491WAT      O79714   5.758   1.866   8.364
26491WAT     H179715   5.698   1.807   8.418
26491WAT     H279716   5.739   1.854   8.267
26492WAT      O79717   0.619   2.982   3.928
26492WAT     H179718   0.554   3.031   3.986
26492WAT     H279719   0.593   2.886   3.922
26493WAT      O79720   3.507   2.576   8.482
26493WAT     H179721   3.469   2.668   8.486
26493WAT     H279722   3.565   2.567   8.401
26494WAT      O79723   1.472   5.717   4.045
26494WAT     H179724   1.414   5.650   3.997
26494WAT     H279725   1.452   5.713   4.143
26495WAT      O79726   3.722   8.229   3.699
26495WAT     H179727   3.716   8.178   3.613
26495WAT     H279728   3.818   8.242   3.724
26496WAT      O79729   3.116   8.255   9.740
26496WAT     H179730   3.047   8.242   9.811
26496WAT     H279731   3.089   8.330   9.681
26497WAT      O79732   4.118   3.715   9.832
26497WAT     H179733   4.158   3.806   9.842
26497WAT     H279734   4.150   3.657   9.906
26498WAT      O79735   7.877   2.836   5.469
26498WAT     H179736   7.962   2.890   5.472
26498WAT     H279737   7.803   2.888   5.511
26499WAT      O79738   7.177   9.411   4.462
26499WAT     H179739   7.117   9.377   4.534
26499WAT     H279740   7.267   9.433   4.501
26500WAT      O79741   8.508   6.011   5.507
26500WAT     H179742   8.442   6.052   5.569
26500WAT     H279743   8.460   5.954   5.440
26501WAT      O79744   9.821   0.919   2.418
26501WAT     H179745   9.911   0.948   2.385
26501WAT     H279746   9.825   0.825   2.451
26502WAT      O79747   4.122   5.727   0.626
26502WAT     H179748   4.142   5.825   0.620
26502WAT     H279749   4.193   5.676   0.577
26503WAT      O79750   1.608   3.402   2.562
26503WAT     H179751   1.686   3.460   2.580
26503WAT     H279752   1.625   3.310   2.599
26504WAT      O79753   5.437   5.769   2.194
26504WAT     H179754   5.425   5.698   2.263
26504WAT     H279755   5.510   5.743   2.132
26505WAT      O79756   0.760   7.680   6.616
26505WAT     H179757   0.694   7.666   6.542
26505WAT     H279758   0.721   7.740   6.686
26506WAT      O79759   3.737   6.072   2.070
26506WAT     H179760   3.689   5.991   2.104
26506WAT     H279761   3.684   6.114   1.996
26507WAT      O79762   9.079   4.751   1.272
26507WAT     H179763   9.018   4.804   1.331
26507WAT     H279764   9.062   4.773   1.176
26508WAT      O79765   7.698   1.403   8.125
26508WAT     H179766   7.761   1.376   8.053
26508WAT     H279767   7.746   1.461   8.191
26509WAT      O79768   2.733   4.169   6.142
26509WAT     H179769   2.799   4.218   6.199
26509WAT     H279770   2.771   4.158   6.050
26510WAT      O79771   5.069   5.072   1.610
26510WAT     H179772   5.051   5.034   1.701
26510WAT     H279773   4.985   5.071   1.556
26511WAT      O79774   7.332   0.656   7.427
26511WAT     H179775   7.399   0.618   7.363
26511WAT     H279776   7.357   0.750   7.450
26512WAT      O79777   4.700   1.999   5.538
26512WAT     H179778   4.702   1.934   5.463
26512WAT     H279779   4.640   1.964   5.610
26513WAT      O79780   3.453   1.943   4.013
26513WAT     H179781   3.424   1.924   3.918
26513WAT     H279782   3.541   1.990   4.012
26514WAT      O79783   5.414   0.056   9.763
26514WAT     H179784   5.421   0.040   9.664
26514WAT     H279785   5.487   0.007   9.810
26515WAT      O79786   6.916   9.090   3.059
26515WAT     H179787   6.967   9.126   3.138
26515WAT     H279788   6.820   9.117   3.067
26516WAT      O79789   9.769   1.517   4.080
26516WAT     H179790   9.818   1.591   4.125
26516WAT     H279791   9.671   1.524   4.102
26517WAT      O79792   7.963   3.254   3.581
26517WAT     H179793   7.965   3.159   3.614
26517WAT     H279794   8.028   3.264   3.505
26518WAT      O79795   9.177   3.208   5.896
26518WAT     H179796   9.220   3.128   5.937
26518WAT     H279797   9.126   3.258   5.966
26519WAT      O79798   0.277   7.760   3.237
26519WAT     H179799   0.280   7.859   3.223
26519WAT     H279800   0.369   7.722   3.230
26520WAT      O79801   3.367   2.359   4.906
26520WAT     H179802   3.425   2.280   4.892
26520WAT     H279803   3.342   2.399   4.817
26521WAT      O79804   0.248   0.446   9.386
26521WAT     H179805   0.177   0.421   9.451
26521WAT     H279806   0.207   0.463   9.296
26522WAT      O79807   8.947   9.480   4.639
26522WAT     H179808   9.040   9.453   4.663
26522WAT     H279809   8.945   9.578   4.615
26523WAT      O79810   4.833   2.720   8.345
26523WAT     H179811   4.821   2.687   8.438
26523WAT     H279812   4.745   2.719   8.298
26524WAT      O79813   9.459   6.988   5.917
26524WAT     H179814   9.362   7.012   5.910
26524WAT     H279815   9.491   7.008   6.010
26525WAT      O79816   6.589   0.456   3.093
26525WAT     H179817   6.594   0.393   3.016
26525WAT     H279818   6.596   0.405   3.179
26526WAT      O79819   1.275   2.144   3.762
26526WAT     H179820   1.177   2.123   3.766
26526WAT     H279821   1.302   2.193   3.845
26527WAT      O79822   8.299   6.537   2.318
26527WAT     H179823   8.318   6.525   2.416
26527WAT     H279824   8.334   6.625   2.288
26528WAT      O79825   3.171   5.095   1.397
26528WAT     H179826   3.219   5.182   1.387
26528WAT     H279827   3.126   5.091   1.486
26529WAT      O79828   4.911   3.993   2.234
26529WAT     H179829   4.829   3.939   2.215
26529WAT     H279830   4.972   3.942   2.294
26530WAT      O79831   4.455   3.186   6.143
26530WAT     H179832   4.430   3.096   6.108
26530WAT     H279833   4.406   3.257   6.092
26531WAT      O79834   8.248   6.003   5.935
26531WAT     H179835   8.184   6.066   5.980
26531WAT     H279836   8.199   5.919   5.912
26532WAT      O79837   3.106   3.830   0.309
26532WAT     H179838   3.021   3.798   0.266
26532WAT     H279839   3.095   3.925   0.339
26533WAT      O79840   7.873   2.758   5.200
26533WAT     H179841   7.945   2.797   5.143
26533WAT     H279842   7.883   2.792   5.294
26534WAT      O79843   8.027   8.155   1.599
26534WAT     H179844   8.075   8.067   1.597
26534WAT     H279845   7.983   8.166   1.689
26535WAT      O79846   4.746   6.045   6.386
26535WAT     H179847   4.774   5.985   6.460
26535WAT     H279848   4.820   6.053   6.319
26536WAT      O79849   1.047   4.997   0.976
26536WAT     H179850   1.064   5.022   0.880
26536WAT     H279851   1.011   4.904   0.980
26537WAT      O79852   8.204   9.461   5.293
26537WAT     H179853   8.111   9.491   5.313
26537WAT     H279854   8.240   9.511   5.215
26538WAT      O79855   4.730   0.385   6.866
26538WAT     H179856   4.703   0.459   6.805
26538WAT     H279857   4.763   0.308   6.812
26539WAT      O79858   5.609   7.300   7.107
26539WAT     H179859   5.662   7.223   7.072
26539WAT     H279860   5.657   7.341   7.185
26540WAT      O79861   8.445   4.149   1.711
26540WAT     H179862   8.462   4.241   1.746
26540WAT     H279863   8.416   4.090   1.786
26541WAT      O79864   6.747   2.254   5.511
26541WAT     H179865   6.652   2.251   5.483
26541WAT     H279866   6.768   2.343   5.550
26542WAT      O79867   8.371   1.324   7.624
26542WAT     H179868   8.327   1.361   7.706
26542WAT     H279869   8.372   1.393   7.552
26543WAT      O79870   3.871   0.935   3.753
26543WAT     H179871   3.920   0.849   3.769
26543WAT     H279872   3.841   0.972   3.841
26544WAT      O79873   4.436   1.659   2.800
26544WAT     H179874   4.422   1.563   2.824
26544WAT     H279875   4.501   1.666   2.725
26545WAT      O79876   1.068   3.488   1.245
26545WAT     H179877   1.163   3.510   1.265
26545WAT     H279878   1.017   3.478   1.331
26546WAT      O79879   3.770   3.014   9.766
26546WAT     H179880   3.697   2.949   9.788
26546WAT     H279881   3.798   3.002   9.671
26547WAT      O79882   2.051   9.621   6.443
26547WAT     H179883   2.117   9.662   6.506
26547WAT     H279884   1.962   9.665   6.454
26548WAT      O79885   1.844   6.181   6.060
26548WAT     H179886   1.910   6.113   6.092
26548WAT     H279887   1.775   6.196   6.130
26549WAT      O79888   4.829   7.135   0.808
26549WAT     H179889   4.897   7.181   0.865
26549WAT     H279890   4.873   7.103   0.724
26550WAT      O79891   4.192   2.741   4.415
26550WAT     H179892   4.271   2.762   4.357
26550WAT     H279893   4.205   2.782   4.505
26551WAT      O79894   2.455   7.633   4.900
26551WAT     H179895   2.430   7.698   4.972
26551WAT     H279896   2.548   7.651   4.869
26552WAT      O79897   0.851   1.651   4.861
26552WAT     H179898   0.879   1.582   4.794
26552WAT     H279899   0.909   1.643   4.942
26553WAT      O79900   2.555   8.443   6.663
26553WAT     H179901   2.476   8.498   6.634
26553WAT     H279902   2.613   8.424   6.584
26554WAT      O79903   2.493   5.875   9.516
26554WAT     H179904   2.502   5.969   9.485
26554WAT     H279905   2.398   5.845   9.507
26555WAT      O79906   1.923   3.709   2.864
26555WAT     H179907   1.851   3.774   2.887
26555WAT     H279908   1.955   3.664   2.948
26556WAT      O79909   0.326   0.772   1.344
26556WAT     H179910   0.258   0.699   1.351
26556WAT     H279911   0.369   0.787   1.433
26557WAT      O79912   8.070   4.953   7.367
26557WAT     H179913   8.122   5.035   7.344
26557WAT     H279914   7.993   4.977   7.425
26558WAT      O79915   1.657   7.293   8.984
26558WAT     H179916   1.600   7.296   9.066
26558WAT     H279917   1.708   7.379   8.975
26559WAT      O79918   5.399   2.483   0.563
26559WAT     H179919   5.339   2.543   0.511
26559WAT     H279920   5.345   2.423   0.621
26560WAT      O79921   6.987   8.564   4.612
26560WAT     H179922   6.895   8.555   4.649
26560WAT     H279923   7.000   8.498   4.538
26561WAT      O79924   3.259   9.382   1.857
26561WAT     H179925   3.179   9.329   1.883
26561WAT     H279926   3.250   9.476   1.892
26562WAT      O79927   9.673   1.425   3.223
26562WAT     H179928   9.681   1.524   3.207
26562WAT     H279929   9.630   1.382   3.145
26563WAT      O79930   6.660   7.620   2.859
26563WAT     H179931   6.758   7.617   2.878
26563WAT     H279932   6.615   7.680   2.925
26564WAT      O79933   5.400   1.130   8.845
26564WAT     H179934   5.305   1.125   8.814
26564WAT     H279935   5.406   1.192   8.924
26565WAT      O79936   1.770   7.907   2.930
26565WAT     H179937   1.829   7.886   3.008
26565WAT     H279938   1.686   7.948   2.963
26566WAT      O79939   5.267   2.342   4.755
26566WAT     H179940   5.276   2.375   4.849
26566WAT     H279941   5.215   2.408   4.701
26567WAT      O79942   5.958   7.667   2.241
26567WAT     H179943   5.953   7.613   2.157
26567WAT     H279944   6.053   7.689   2.261
26568WAT      O79945   6.063   9.410   8.632
26568WAT     H179946   6.138   9.476   8.641
26568WAT     H279947   5.977   9.458   8.615
26569WAT      O79948   7.423   8.471   3.864
26569WAT     H179949   7.374   8.402   3.811
26569WAT     H279950   7.430   8.441   3.959
26570WAT      O79951   7.373   6.741   3.886
26570WAT     H179952   7.343   6.740   3.791
26570WAT     H279953   7.348   6.829   3.927
26571WAT      O79954   0.927   4.568   2.901
26571WAT     H179955   1.000   4.629   2.931
26571WAT     H279956   0.908   4.585   2.804
26572WAT      O79957   0.137   1.687   8.461
26572WAT     H179958   0.122   1.779   8.499
26572WAT     H279959   0.188   1.694   8.376
26573WAT      O79960   2.339   3.337   0.275
26573WAT     H179961   2.248   3.376   0.287
26573WAT     H279962   2.397   3.401   0.225
26574WAT      O79963   3.560   7.910   8.382
26574WAT     H179964   3.579   7.878   8.289
26574WAT     H279965   3.511   7.997   8.378
26575WAT      O79966   2.526   8.975   4.500
26575WAT     H179967   2.535   9.069   4.532
26575WAT     H279968   2.603   8.953   4.440
26576WAT      O79969   3.549   3.370   4.934
26576WAT     H179970   3.455   3.396   4.957
26576WAT     H279971   3.610   3.392   5.010
26577WAT      O79972   7.189   6.268   4.403
26577WAT     H179973   7.200   6.175   4.367
26577WAT     H279974   7.247   6.331   4.351
26578WAT      O79975   2.149   6.391   4.566
26578WAT     H179976   2.094   6.406   4.484
26578WAT     H279977   2.246   6.393   4.542
26579WAT      O79978   1.174   4.159   4.859
26579WAT     H179979   1.236   4.081   4.845
26579WAT     H279980   1.083   4.125   4.885
26580WAT      O79981   3.454   6.818   1.263
26580WAT     H179982   3.498   6.890   1.209
26580WAT     H279983   3.386   6.859   1.324
26581WAT      O79984   0.182   0.504   3.405
26581WAT     H179985   0.218   0.561   3.478
26581WAT     H279986   0.200   0.408   3.426
26582WAT      O79987   3.558   1.056   7.919
26582WAT     H179988   3.556   1.128   7.850
26582WAT     H279989   3.465   1.023   7.936
26583WAT      O79990   7.433   9.680   3.167
26583WAT     H179991   7.434   9.775   3.198
26583WAT     H279992   7.345   9.660   3.124
26584WAT      O79993   3.362   4.905   6.243
26584WAT     H179994   3.362   4.861   6.333
26584WAT     H279995   3.400   4.997   6.251
26585WAT      O79996   0.073   2.670   5.768
26585WAT     H179997   0.126   2.610   5.708
26585WAT     H279998  -0.019   2.680   5.731
26586WAT      O79999   9.164   6.877   1.919
26586WAT     H180000   9.211   6.789   1.927
26586WAT     H280001   9.230   6.952   1.925
26587WAT      O80002   2.656   2.726   2.501
26587WAT     H180003   2.688   2.683   2.417
26587WAT     H280004   2.556   2.732   2.500
26588WAT      O80005   6.438   6.193   0.059
26588WAT     H180006   6.478   6.280   0.030
26588WAT     H280007   6.362   6.210   0.121
26589WAT      O80008   0.404   7.622   4.379
26589WAT     H180009   0.398   7.603   4.477
26589WAT     H280010   0.413   7.537   4.328
26590WAT      O80011   4.829   6.055   0.580
26590WAT     H180012   4.817   6.152   0.560
26590WAT     H280013   4.822   6.003   0.495
26591WAT      O80014   6.149   6.973   6.708
26591WAT     H180015   6.218   6.950   6.778
26591WAT     H280016   6.180   7.054   6.658
26592WAT      O80017   6.722   4.735   3.637
26592WAT     H180018   6.735   4.767   3.731
26592WAT     H280019   6.625   4.739   3.613
26593WAT      O80020   4.830   8.914   1.838
26593WAT     H180021   4.755   8.979   1.836
26593WAT     H280022   4.911   8.956   1.797
26594WAT      O80023   4.121   0.346   6.991
26594WAT     H180024   4.167   0.366   6.904
26594WAT     H280025   4.027   0.381   6.988
26595WAT      O80026   0.437   7.262   2.150
26595WAT     H180027   0.456   7.169   2.182
26595WAT     H280028   0.348   7.291   2.185
26596WAT      O80029   4.877   3.807   7.390
26596WAT     H180030   4.934   3.883   7.423
26596WAT     H280031   4.828   3.835   7.308
26597WAT      O80032   2.746   7.198   2.869
26597WAT     H180033   2.716   7.165   2.780
26597WAT     H280034   2.846   7.200   2.871
26598WAT      O80035   7.927   3.287   0.508
26598WAT     H180036   7.834   3.263   0.535
26598WAT     H280037   7.941   3.385   0.521
26599WAT      O80038   1.888   4.225   1.986
26599WAT     H180039   1.845   4.136   2.002
26599WAT     H280040   1.863   4.258   1.895
26600WAT      O80041   3.277   6.396   8.892
26600WAT     H180042   3.346   6.405   8.964
26600WAT     H280043   3.322   6.369   8.807
26601WAT      O80044   6.178   5.051   0.408
26601WAT     H180045   6.173   4.987   0.484
26601WAT     H280046   6.188   5.001   0.322
26602WAT      O80047   5.707   6.251   5.479
26602WAT     H180048   5.664   6.166   5.511
26602WAT     H280049   5.798   6.231   5.445
26603WAT      O80050   8.086   2.780   3.977
26603WAT     H180051   8.142   2.700   3.996
26603WAT     H280052   8.098   2.807   3.881
26604WAT      O80053   2.486   8.794   3.597
26604WAT     H180054   2.563   8.846   3.633
26604WAT     H280055   2.419   8.856   3.556
26605WAT      O80056   1.457   2.076   0.333
26605WAT     H180057   1.451   2.084   0.234
26605WAT     H280058   1.504   1.991   0.357
26606WAT      O80059   5.279   3.063   0.919
26606WAT     H180060   5.319   3.155   0.911
26606WAT     H280061   5.349   2.998   0.947
26607WAT      O80062   0.859   7.272   0.662
26607WAT     H180063   0.847   7.322   0.576
26607WAT     H280064   0.835   7.332   0.738
26608WAT      O80065   0.807   2.506   2.909
26608WAT     H180066   0.885   2.452   2.878
26608WAT     H280067   0.839   2.583   2.964
26609WAT      O80068   2.937   6.387   6.127
26609WAT     H180069   2.853   6.428   6.161
26609WAT     H280070   3.016   6.429   6.171
26610WAT      O80071   0.517   8.900   1.018
26610WAT     H180072   0.546   8.994   1.033
26610WAT     H280073   0.581   8.854   0.956
26611WAT      O80074   2.001   5.610   1.018
26611WAT     H180075   1.923   5.626   0.957
26611WAT     H280076   2.052   5.696   1.030
26612WAT      O80077   2.056   3.353   0.850
26612WAT     H180078   2.082   3.304   0.933
26612WAT     H280079   1.989   3.424   0.873
26613WAT      O80080   1.979   3.325   5.658
26613WAT     H180081   1.987   3.249   5.593
26613WAT     H280082   2.035   3.402   5.626
26614WAT      O80083   9.081   7.721   5.511
26614WAT     H180084   9.032   7.788   5.567
26614WAT     H280085   9.139   7.769   5.445
26615WAT      O80086   2.869   5.204   5.452
26615WAT     H180087   2.825   5.262   5.521
26615WAT     H280088   2.967   5.223   5.450
26616WAT      O80089   1.683   3.660   8.102
26616WAT     H180090   1.611   3.593   8.119
26616WAT     H280091   1.772   3.621   8.125
26617WAT      O80092   9.234   3.151   2.068
26617WAT     H180093   9.280   3.183   2.151
26617WAT     H280094   9.225   3.051   2.071
26618WAT      O80095   0.268   5.253   5.443
26618WAT     H180096   0.289   5.242   5.540
26618WAT     H280097   0.217   5.174   5.410
26619WAT      O80098   8.744   0.900   3.256
26619WAT     H180099   8.836   0.863   3.257
26619WAT     H280100   8.732   0.958   3.175
26620WAT      O80101   2.244   1.428   0.354
26620WAT     H180102   2.253   1.342   0.305
26620WAT     H280103   2.300   1.426   0.437
26621WAT      O80104   3.964   3.733   2.186
26621WAT     H180105   4.034   3.663   2.172
26621WAT     H280106   3.905   3.706   2.263
26622WAT      O80107   8.288   4.455   0.119
26622WAT     H180108   8.313   4.384   0.053
26622WAT     H280109   8.275   4.542   0.071
26623WAT      O80110   6.240   1.873   9.765
26623WAT     H180111   6.174   1.841   9.834
26623WAT     H280112   6.326   1.896   9.810
26624WAT      O80113   5.002   7.391   0.210
26624WAT     H180114   4.996   7.396   0.309
26624WAT     H280115   4.952   7.310   0.178
26625WAT      O80116   5.837   4.025   9.046
26625WAT     H180117   5.816   4.114   9.005
26625WAT     H280118   5.890   3.970   8.981
26626WAT      O80119   5.654   1.003   5.089
26626WAT     H180120   5.652   0.956   5.001
26626WAT     H280121   5.749   1.018   5.117
26627WAT      O80122   0.402   7.097   3.251
26627WAT     H180123   0.309   7.133   3.241
26627WAT     H280124   0.424   7.041   3.171
26628WAT      O80125   7.716   4.655   2.382
26628WAT     H180126   7.630   4.626   2.341
26628WAT     H280127   7.782   4.579   2.378
26629WAT      O80128   6.122   4.188   6.624
26629WAT     H180129   6.045   4.231   6.577
26629WAT     H280130   6.178   4.258   6.668
26630WAT      O80131   8.892   3.278   7.166
26630WAT     H180132   8.941   3.192   7.178
26630WAT     H280133   8.817   3.265   7.100
26631WAT      O80134   1.085   9.106   9.036
26631WAT     H180135   0.993   9.129   9.066
26631WAT     H280136   1.088   9.104   8.936
26632WAT      O80137   5.662   4.145   1.840
26632WAT     H180138   5.667   4.047   1.820
26632WAT     H280139   5.694   4.198   1.761
26633WAT      O80140   2.994   9.504   3.424
26633WAT     H180141   2.926   9.534   3.491
26633WAT     H280142   2.982   9.556   3.339
26634WAT      O80143   3.184   8.649   0.472
26634WAT     H180144   3.242   8.603   0.540
26634WAT     H280145   3.241   8.704   0.411
26635WAT      O80146   1.021   4.830   2.981
26635WAT     H180147   1.098   4.850   3.042
26635WAT     H280148   0.939   4.816   3.036
26636WAT      O80149   6.086   2.694   9.202
26636WAT     H180150   6.058   2.774   9.255
26636WAT     H280151   6.164   2.718   9.144
26637WAT      O80152   3.470   9.396   8.221
26637WAT     H180153   3.466   9.470   8.154
26637WAT     H280154   3.431   9.313   8.181
26638WAT      O80155   2.808   7.311   7.196
26638WAT     H180156   2.737   7.264   7.248
26638WAT     H280157   2.819   7.404   7.230
26639WAT      O80158   1.140   0.584   3.869
26639WAT     H180159   1.146   0.532   3.784
26639WAT     H280160   1.187   0.671   3.859
26640WAT      O80161   0.470   3.683   4.282
26640WAT     H180162   0.560   3.727   4.280
26640WAT     H280163   0.407   3.738   4.338
26641WAT      O80164   3.572   6.915   1.847
26641WAT     H180165   3.533   6.985   1.907
26641WAT     H280166   3.640   6.862   1.898
26642WAT      O80167   7.711   6.750   6.362
26642WAT     H180168   7.718   6.728   6.459
26642WAT     H280169   7.689   6.847   6.352
26643WAT      O80170   1.351   4.251   4.029
26643WAT     H180171   1.299   4.334   4.008
26643WAT     H280172   1.448   4.273   4.035
26644WAT      O80173   8.200   8.810   6.119
26644WAT     H180174   8.249   8.723   6.117
26644WAT     H280175   8.199   8.850   6.027
26645WAT      O80176   1.533   2.670   4.430
26645WAT     H180177   1.541   2.768   4.416
26645WAT     H280178   1.484   2.652   4.516
26646WAT      O80179   7.864   0.830   1.841
26646WAT     H180180   7.870   0.740   1.883
26646WAT     H280181   7.842   0.820   1.744
26647WAT      O80182   0.143   3.513   5.544
26647WAT     H180183   0.212   3.583   5.561
26647WAT     H280184   0.129   3.502   5.446
26648WAT      O80185   5.834   7.192   6.679
26648WAT     H180186   5.844   7.290   6.695
26648WAT     H280187   5.864   7.170   6.586
26649WAT      O80188   0.078   3.753   6.308
26649WAT     H180189   0.120   3.669   6.273
26649WAT     H280190   0.013   3.788   6.241
26650WAT      O80191   8.035   7.959   4.838
26650WAT     H180192   8.113   7.963   4.900
26650WAT     H280193   7.968   7.893   4.874
26651WAT      O80194   2.441   6.326   8.802
26651WAT     H180195   2.342   6.320   8.815
26651WAT     H280196   2.475   6.411   8.842
26652WAT      O80197   0.070   9.396   6.593
26652WAT     H180198   0.061   9.319   6.657
26652WAT     H280199   0.108   9.475   6.642
26653WAT      O80200   4.778   5.703   0.741
26653WAT     H180201   4.783   5.670   0.647
26653WAT     H280202   4.861   5.676   0.791
26654WAT      O80203   8.351   8.022   0.281
26654WAT     H180204   8.447   8.002   0.298
26654WAT     H280205   8.301   8.026   0.367
26655WAT      O80206   9.687   9.629   6.062
26655WAT     H180207   9.728   9.552   6.013
26655WAT     H280208   9.754   9.703   6.070
26656WAT      O80209   2.958   3.352   2.612
26656WAT     H180210   2.877   3.294   2.611
26656WAT     H280211   3.034   3.303   2.655
26657WAT      O80212   8.416   7.776   1.286
26657WAT     H180213   8.354   7.698   1.281
26657WAT     H280214   8.440   7.793   1.382
26658WAT      O80215   7.914   7.739   0.431
26658WAT     H180216   8.013   7.728   0.441
26658WAT     H280217   7.876   7.778   0.516
26659WAT      O80218   1.102   9.533   8.845
26659WAT     H180219   1.163   9.537   8.765
26659WAT     H280220   1.153   9.499   8.924
26660WAT      O80221   2.220   5.028   4.310
26660WAT     H180222   2.222   5.037   4.410
26660WAT     H280223   2.136   5.068   4.274
26661WAT      O80224   3.834   8.864   6.980
26661WAT     H180225   3.798   8.932   7.043
26661WAT     H280226   3.804   8.773   7.008
26662WAT      O80227   9.436   4.267   3.896
26662WAT     H180228   9.444   4.249   3.797
26662WAT     H280229   9.392   4.355   3.910
26663WAT      O80230   9.512   5.225   2.208
26663WAT     H180231   9.443   5.164   2.168
26663WAT     H280232   9.572   5.174   2.268
26664WAT      O80233   8.378   5.196   5.743
26664WAT     H180234   8.386   5.222   5.839
26664WAT     H280235   8.419   5.106   5.730
26665WAT      O80236   4.661   1.833   6.316
26665WAT     H180237   4.692   1.738   6.308
26665WAT     H280238   4.576   1.844   6.264
26666WAT      O80239   5.199   4.265   7.690
26666WAT     H180240   5.149   4.323   7.626
26666WAT     H280241   5.192   4.169   7.660
26667WAT      O80242   1.197   1.635   3.491
26667WAT     H180243   1.286   1.594   3.470
26667WAT     H280244   1.127   1.597   3.431
26668WAT      O80245   6.044   3.361   1.895
26668WAT     H180246   6.023   3.300   1.972
26668WAT     H280247   6.086   3.445   1.930
26669WAT      O80248   3.745   7.742   8.921
26669WAT     H180249   3.833   7.737   8.874
26669WAT     H280250   3.729   7.836   8.952
26670WAT      O80251   5.488   8.795   7.886
26670WAT     H180252   5.575   8.831   7.854
26670WAT     H280253   5.498   8.761   7.980
26671WAT      O80254   2.760   2.306   9.364
26671WAT     H180255   2.840   2.295   9.305
26671WAT     H280256   2.680   2.326   9.308
26672WAT      O80257   2.204   0.113   5.867
26672WAT     H180258   2.299   0.146   5.869
26672WAT     H280259   2.158   0.148   5.786
26673WAT      O80260   8.477   5.107   4.688
26673WAT     H180261   8.411   5.038   4.717
26673WAT     H280262   8.568   5.066   4.685
26674WAT      O80263   3.368   2.109   6.106
26674WAT     H180264   3.402   2.186   6.054
26674WAT     H280265   3.394   2.023   6.061
26675WAT      O80266   3.614   3.899   6.023
26675WAT     H180267   3.584   3.989   5.991
26675WAT     H280268   3.710   3.905   6.053
26676WAT      O80269   0.242   9.529   4.742
26676WAT     H180270   0.306   9.485   4.805
26676WAT     H280271   0.230   9.625   4.769
26677WAT      O80272   3.925   8.538   0.740
26677WAT     H180273   4.008   8.585   0.769
26677WAT     H280274   3.945   8.482   0.659
26678WAT      O80275   7.926   6.551   6.331
26678WAT     H180276   7.860   6.625   6.322
26678WAT     H280277   7.919   6.511   6.423
26679WAT      O80278   0.153   5.556   5.858
26679WAT     H180279   0.237   5.531   5.811
26679WAT     H280280   0.123   5.479   5.915
26680WAT      O80281   0.220   5.146   4.011
26680WAT     H180282   0.214   5.158   4.110
26680WAT     H280283   0.229   5.236   3.968
26681WAT      O80284   0.443   8.621   5.208
26681WAT     H180285   0.527   8.660   5.246
26681WAT     H280286   0.367   8.634   5.273
26682WAT      O80287   9.834   7.000   4.230
26682WAT     H180288   9.800   6.906   4.222
26682WAT     H280289   9.901   7.017   4.158
26683WAT      O80290   0.407   7.304   7.220
26683WAT     H180291   0.326   7.266   7.176
26683WAT     H280292   0.452   7.233   7.274
26684WAT      O80293   4.711   7.682   1.513
26684WAT     H180294   4.668   7.728   1.591
26684WAT     H280295   4.796   7.638   1.543
26685WAT      O80296   2.512   9.018   3.956
26685WAT     H180297   2.472   8.938   4.001
26685WAT     H280298   2.548   8.991   3.867
26686WAT      O80299   6.569   7.500   2.269
26686WAT     H180300   6.523   7.475   2.183
26686WAT     H280301   6.506   7.486   2.345
26687WAT      O80302   2.413   0.259   4.862
26687WAT     H180303   2.502   0.287   4.826
26687WAT     H280304   2.348   0.334   4.852
26688WAT      O80305   4.979   7.719   0.245
26688WAT     H180306   4.938   7.765   0.165
26688WAT     H280307   5.000   7.624   0.222
26689WAT      O80308   0.855   6.053   3.976
26689WAT     H180309   0.853   6.143   3.932
26689WAT     H280310   0.947   6.035   4.012
26690WAT      O80311   6.050   9.041   2.353
26690WAT     H180312   6.076   9.008   2.444
26690WAT     H280313   5.973   9.105   2.362
26691WAT      O80314   7.162   4.330   3.539
26691WAT     H180315   7.180   4.237   3.507
26691WAT     H280316   7.221   4.394   3.491
26692WAT      O80317   2.956   8.891   1.785
26692WAT     H180318   2.870   8.852   1.819
26692WAT     H280319   3.030   8.868   1.847
26693WAT      O80320   5.061   4.762   9.758
26693WAT     H180321   4.995   4.775   9.684
26693WAT     H280322   5.149   4.734   9.720
26694WAT      O80323   1.638   4.128   2.221
26694WAT     H180324   1.699   4.079   2.159
26694WAT     H280325   1.693   4.186   2.282
26695WAT      O80326   7.573   6.087   7.666
26695WAT     H180327   7.553   6.130   7.754
26695WAT     H280328   7.561   5.988   7.674
26696WAT      O80329   9.198   6.855   5.058
26696WAT     H180330   9.123   6.898   5.109
26696WAT     H280331   9.242   6.786   5.115
26697WAT      O80332   7.056   1.678   1.320
26697WAT     H180333   7.059   1.660   1.419
26697WAT     H280334   7.043   1.775   1.305
26698WAT      O80335   6.286   5.567   7.585
26698WAT     H180336   6.345   5.512   7.645
26698WAT     H280337   6.330   5.579   7.496
26699WAT      O80338   6.178   2.238   6.974
26699WAT     H180339   6.171   2.296   6.893
26699WAT     H280340   6.249   2.274   7.035
26700WAT      O80341   0.946   1.209   6.765
26700WAT     H180342   0.957   1.128   6.707
26700WAT     H280343   1.013   1.206   6.839
26701WAT      O80344   8.905   1.811   3.013
26701WAT     H180345   8.882   1.838   2.920
26701WAT     H280346   8.939   1.717   3.013
26702WAT      O80347   8.441   4.404   3.534
26702WAT     H180348   8.441   4.495   3.577
26702WAT     H280349   8.533   4.366   3.540
26703WAT      O80350   9.047   4.561   2.037
26703WAT     H180351   9.061   4.471   2.079
26703WAT     H280352   8.981   4.552   1.962
26704WAT      O80353   2.730   0.582   2.090
26704WAT     H180354   2.779   0.562   2.005
26704WAT     H280355   2.726   0.500   2.146
26705WAT      O80356   0.040   3.194   6.711
26705WAT     H180357   0.056   3.248   6.628
26705WAT     H280358   0.062   3.098   6.694
26706WAT      O80359   0.924   2.575   9.320
26706WAT     H180360   0.878   2.548   9.235
26706WAT     H280361   1.014   2.613   9.298
26707WAT      O80362   4.290   7.103   5.235
26707WAT     H180363   4.298   7.069   5.329
26707WAT     H280364   4.364   7.065   5.180
26708WAT      O80365   2.592   0.301   2.188
26708WAT     H180366   2.528   0.341   2.121
26708WAT     H280367   2.596   0.359   2.269
26709WAT      O80368   7.419   9.744   7.287
26709WAT     H180369   7.389   9.671   7.348
26709WAT     H280370   7.351   9.758   7.216
26710WAT      O80371   5.064   1.500   1.412
26710WAT     H180372   5.071   1.460   1.321
26710WAT     H280373   5.087   1.432   1.481
26711WAT      O80374   0.452   5.131   3.031
26711WAT     H180375   0.486   5.225   3.029
26711WAT     H280376   0.412   5.107   2.943
26712WAT      O80377   9.271   7.224   2.588
26712WAT     H180378   9.341   7.176   2.534
26712WAT     H280379   9.302   7.317   2.608
26713WAT      O80380   9.808   1.241   1.022
26713WAT     H180381   9.893   1.292   1.029
26713WAT     H280382   9.738   1.283   1.080
26714WAT      O80383   0.311   4.631   5.601
26714WAT     H180384   0.306   4.620   5.502
26714WAT     H280385   0.363   4.713   5.623
26715WAT      O80386   1.169   2.824   4.980
26715WAT     H180387   1.130   2.781   5.061
26715WAT     H280388   1.269   2.820   4.986
26716WAT      O80389   6.912   8.634   8.993
26716WAT     H180390   6.824   8.670   8.964
26716WAT     H280391   6.985   8.674   8.936
26717WAT      O80392   3.364   3.638   1.721
26717WAT     H180393   3.347   3.541   1.701
26717WAT     H280394   3.453   3.647   1.765
26718WAT      O80395   0.521   3.689   6.236
26718WAT     H180396   0.575   3.645   6.164
26718WAT     H280397   0.528   3.635   6.320
26719WAT      O80398   4.370   3.542   4.229
26719WAT     H180399   4.350   3.478   4.303
26719WAT     H280400   4.302   3.531   4.156
26720WAT      O80401   9.804   6.666   9.221
26720WAT     H180402   9.742   6.745   9.217
26720WAT     H280403   9.764   6.596   9.281
26721WAT      O80404   3.415   2.697   6.203
26721WAT     H180405   3.322   2.662   6.217
26721WAT     H280406   3.414   2.797   6.210
26722WAT      O80407   7.557   8.076   5.666
26722WAT     H180408   7.519   8.169   5.657
26722WAT     H280409   7.485   8.009   5.646
26723WAT      O80410   2.113   9.577   1.492
26723WAT     H180411   2.147   9.608   1.581
26723WAT     H280412   2.051   9.499   1.507
26724WAT      O80413   9.661   7.114   2.212
26724WAT     H180414   9.644   7.027   2.166
26724WAT     H280415   9.759   7.121   2.235
26725WAT      O80416   7.143   4.215   9.508
26725WAT     H180417   7.070   4.154   9.478
26725WAT     H280418   7.119   4.310   9.489
26726WAT      O80419   3.647   9.498   3.671
26726WAT     H180420   3.582   9.426   3.695
26726WAT     H280421   3.697   9.472   3.588
26727WAT      O80422   6.794   9.438   0.237
26727WAT     H180423   6.870   9.376   0.257
26727WAT     H280424   6.820   9.532   0.260
26728WAT      O80425   2.111   7.517   2.046
26728WAT     H180426   2.082   7.484   2.136
26728WAT     H280427   2.165   7.600   2.056
26729WAT      O80428   6.083   4.855   0.765
26729WAT     H180429   6.137   4.833   0.684
26729WAT     H280430   6.053   4.770   0.808
26730WAT      O80431   2.540   0.139   6.939
26730WAT     H180432   2.598   0.179   7.009
26730WAT     H280433   2.595   0.115   6.859
26731WAT      O80434   6.977   1.928   3.694
26731WAT     H180435   7.059   1.877   3.719
26731WAT     H280436   6.955   1.993   3.766
26732WAT      O80437   7.667   4.986   4.964
26732WAT     H180438   7.694   5.081   4.978
26732WAT     H280439   7.744   4.934   4.928
26733WAT      O80440   4.437   2.740   5.101
26733WAT     H180441   4.349   2.714   5.142
26733WAT     H280442   4.488   2.796   5.165
26734WAT      O80443   0.515   0.173   2.481
26734WAT     H180444   0.483   0.257   2.524
26734WAT     H280445   0.540   0.191   2.386
26735WAT      O80446   8.484   6.347   5.837
26735WAT     H180447   8.408   6.304   5.887
26735WAT     H280448   8.537   6.276   5.791
26736WAT      O80449   8.271   3.269   6.226
26736WAT     H180450   8.326   3.315   6.157
26736WAT     H280451   8.179   3.251   6.189
26737WAT      O80452   2.484   6.194   1.199
26737WAT     H180453   2.487   6.292   1.220
26737WAT     H280454   2.488   6.182   1.100
26738WAT      O80455   9.249   8.769   0.266
26738WAT     H180456   9.233   8.671   0.271
26738WAT     H280457   9.265   8.805   0.358
26739WAT      O80458   9.528   1.687   1.402
26739WAT     H180459   9.569   1.737   1.478
26739WAT     H280460   9.465   1.747   1.352
26740WAT      O80461   0.839   0.286   7.759
26740WAT     H180462   0.899   0.275   7.680
26740WAT     H280463   0.805   0.196   7.787
26741WAT      O80464   4.031   9.735   2.424
26741WAT     H180465   3.987   9.680   2.353
26741WAT     H280466   4.125   9.704   2.438
26742WAT      O80467   6.517   4.404   0.991
26742WAT     H180468   6.475   4.345   1.061
26742WAT     H280469   6.600   4.445   1.028
26743WAT      O80470   6.658   0.436   6.768
26743WAT     H180471   6.584   0.369   6.764
26743WAT     H280472   6.732   0.401   6.825
26744WAT      O80473   9.360   6.685   1.913
26744WAT     H180474   9.393   6.665   1.821
26744WAT     H280475   9.377   6.606   1.972
26745WAT      O80476   8.548   4.779   0.881
26745WAT     H180477   8.630   4.731   0.912
26745WAT     H280478   8.548   4.786   0.781
26746WAT      O80479   0.740   2.695   8.284
26746WAT     H180480   0.808   2.698   8.211
26746WAT     H280481   0.753   2.612   8.338
26747WAT      O80482   7.678   5.115   5.274
26747WAT     H180483   7.632   5.188   5.325
26747WAT     H280484   7.662   5.128   5.176
26748WAT      O80485   9.358   3.030   6.480
26748WAT     H180486   9.368   3.097   6.406
26748WAT     H280487   9.428   3.047   6.549
26749WAT      O80488   1.334   9.235   1.240
26749WAT     H180489   1.404   9.168   1.265
26749WAT     H280490   1.374   9.327   1.242
26750WAT      O80491   0.826   9.076   8.831
26750WAT     H180492   0.924   9.056   8.822
26750WAT     H280493   0.801   9.074   8.928
26751WAT      O80494   3.459   8.207   2.135
26751WAT     H180495   3.426   8.281   2.077
26751WAT     H280496   3.472   8.240   2.229
26752WAT      O80497   9.332   0.537   0.535
26752WAT     H180498   9.375   0.535   0.625
26752WAT     H280499   9.390   0.490   0.468
26753WAT      O80500   7.744   7.243   2.063
26753WAT     H180501   7.803   7.201   1.994
26753WAT     H280502   7.747   7.342   2.054
26754WAT      O80503   2.996   5.594   2.208
26754WAT     H180504   2.980   5.502   2.245
26754WAT     H280505   3.032   5.586   2.115
26755WAT      O80506   0.921   0.854   0.533
26755WAT     H180507   0.926   0.926   0.602
26755WAT     H280508   0.988   0.783   0.554
26756WAT      O80509   2.630   1.008   6.375
26756WAT     H180510   2.697   1.031   6.305
26756WAT     H280511   2.673   1.010   6.465
26757WAT      O80512   4.021   7.493   5.091
26757WAT     H180513   3.950   7.448   5.038
26757WAT     H280514   4.016   7.592   5.076
26758WAT      O80515   8.726   8.894   8.642
26758WAT     H180516   8.653   8.898   8.574
26758WAT     H280517   8.697   8.838   8.719
26759WAT      O80518   4.328   7.712   3.848
26759WAT     H180519   4.297   7.806   3.830
26759WAT     H280520   4.322   7.693   3.946
26760WAT      O80521   8.823   4.003   7.923
26760WAT     H180522   8.896   4.043   7.868
26760WAT     H280523   8.744   4.065   7.925
26761WAT      O80524   3.414   1.445   2.623
26761WAT     H180525   3.448   1.352   2.638
26761WAT     H280526   3.379   1.482   2.708
26762WAT      O80527   9.621   8.326   2.266
26762WAT     H180528   9.575   8.309   2.179
26762WAT     H280529   9.687   8.253   2.283
26763WAT      O80530   6.349   4.825   2.201
26763WAT     H180531   6.268   4.789   2.154
26763WAT     H280532   6.325   4.911   2.247
26764WAT      O80533   8.030   5.369   6.929
26764WAT     H180534   7.985   5.290   6.887
26764WAT     H280535   7.964   5.444   6.936
26765WAT      O80536   3.928   8.734   2.314
26765WAT     H180537   3.904   8.828   2.339
26765WAT     H280538   4.015   8.709   2.356
26766WAT      O80539   4.152   7.265   0.352
26766WAT     H180540   4.190   7.311   0.431
26766WAT     H280541   4.059   7.235   0.372
26767WAT      O80542   7.337   4.916   2.127
26767WAT     H180543   7.382   4.878   2.208
26767WAT     H280544   7.261   4.974   2.155
26768WAT      O80545   0.033   8.931   4.829
26768WAT     H180546   0.076   8.855   4.780
26768WAT     H280547  -0.065   8.932   4.808
26769WAT      O80548   1.920   2.783   8.973
26769WAT     H180549   1.989   2.846   9.008
26769WAT     H280550   1.849   2.769   9.043
26770WAT      O80551   4.280   0.921   1.187
26770WAT     H180552   4.363   0.945   1.237
26770WAT     H280553   4.302   0.899   1.093
26771WAT      O80554   6.020   3.429   3.417
26771WAT     H180555   5.936   3.484   3.420
26771WAT     H280556   6.002   3.343   3.370
26772WAT      O80557   2.697   2.700   7.063
26772WAT     H180558   2.622   2.635   7.064
26772WAT     H280559   2.694   2.755   6.980
26773WAT      O80560   5.401   9.709   3.322
26773WAT     H180561   5.320   9.655   3.344
26773WAT     H280562   5.454   9.726   3.405
26774WAT      O80563   3.116   1.354   6.439
26774WAT     H180564   3.185   1.398   6.497
26774WAT     H280565   3.076   1.277   6.488
26775WAT      O80566   6.405   4.896   5.559
26775WAT     H180567   6.322   4.953   5.555
26775WAT     H280568   6.394   4.818   5.498
26776WAT      O80569   4.231   2.119   4.544
26776WAT     H180570   4.258   2.211   4.517
26776WAT     H280571   4.305   2.055   4.522
26777WAT      O80572   6.179   1.344   4.926
26777WAT     H180573   6.207   1.387   5.012
26777WAT     H280574   6.198   1.406   4.850
26778WAT      O80575   0.352   2.541   5.033
26778WAT     H180576   0.395   2.603   5.099
26778WAT     H280577   0.404   2.455   5.029
26779WAT      O80578   4.811   3.060   6.652
26779WAT     H180579   4.814   3.103   6.742
26779WAT     H280580   4.903   3.055   6.614
26780WAT      O80581   4.611   1.087   0.252
26780WAT     H180582   4.559   1.139   0.185
26780WAT     H280583   4.694   1.052   0.209
26781WAT      O80584   2.066   4.706   3.032
26781WAT     H180585   2.155   4.687   2.989
26781WAT     H280586   2.080   4.734   3.127
26782WAT      O80587   7.410   0.049   9.770
26782WAT     H180588   7.377   0.024   9.861
26782WAT     H280589   7.428   0.147   9.767
26783WAT      O80590   5.521   3.455   7.291
26783WAT     H180591   5.558   3.367   7.322
26783WAT     H280592   5.422   3.455   7.304
26784WAT      O80593   8.373   4.403   8.949
26784WAT     H180594   8.368   4.305   8.967
26784WAT     H280595   8.318   4.452   9.017
26785WAT      O80596   5.274   3.270   4.304
26785WAT     H180597   5.187   3.268   4.256
26785WAT     H280598   5.344   3.312   4.246
26786WAT      O80599   1.019   6.434   7.423
26786WAT     H180600   0.996   6.488   7.342
26786WAT     H280601   0.954   6.358   7.431
26787WAT      O80602   8.463   1.659   5.680
26787WAT     H180603   8.473   1.564   5.648
26787WAT     H280604   8.441   1.658   5.778
26788WAT      O80605   0.676   2.987   5.798
26788WAT     H180606   0.677   3.024   5.705
26788WAT     H280607   0.611   3.039   5.854
26789WAT      O80608   8.615   6.250   8.033
26789WAT     H180609   8.606   6.249   7.933
26789WAT     H280610   8.527   6.225   8.074
26790WAT      O80611   3.706   7.790   6.726
26790WAT     H180612   3.742   7.747   6.643
26790WAT     H280613   3.656   7.873   6.702
26791WAT      O80614   0.792   3.608   0.219
26791WAT     H180615   0.771   3.515   0.187
26791WAT     H280616   0.872   3.605   0.278
26792WAT      O80617   6.663   9.531   2.638
26792WAT     H180618   6.685   9.576   2.552
26792WAT     H280619   6.672   9.596   2.713
26793WAT      O80620   6.091   0.072   7.694
26793WAT     H180621   6.190   0.089   7.688
26793WAT     H280622   6.075  -0.021   7.729
26794WAT      O80623   7.938   3.061   0.893
26794WAT     H180624   8.005   3.023   0.828
26794WAT     H280625   7.899   3.145   0.855
26795WAT      O80626   6.891   9.762   5.482
26795WAT     H180627   6.967   9.704   5.452
26795WAT     H280628   6.886   9.761   5.582
26796WAT      O80629   0.564   9.674   1.214
26796WAT     H180630   0.548   9.685   1.312
26796WAT     H280631   0.552   9.578   1.189
26797WAT      O80632   7.952   7.163   3.554
26797WAT     H180633   7.920   7.256   3.532
26797WAT     H280634   7.917   7.099   3.485
26798WAT      O80635   8.115   5.555   3.773
26798WAT     H180636   8.038   5.591   3.720
26798WAT     H280637   8.178   5.629   3.794
26799WAT      O80638   2.448   5.812   7.306
26799WAT     H180639   2.360   5.822   7.259
26799WAT     H280640   2.482   5.902   7.332
26800WAT      O80641   7.242   6.667   6.968
26800WAT     H180642   7.307   6.700   7.037
26800WAT     H280643   7.283   6.676   6.877
26801WAT      O80644   1.501   2.861   6.710
26801WAT     H180645   1.565   2.898   6.777
26801WAT     H280646   1.407   2.878   6.740
26802WAT      O80647   2.270   8.690   7.462
26802WAT     H180648   2.207   8.612   7.458
26802WAT     H280649   2.232   8.761   7.521
26803WAT      O80650   9.818   7.936   1.802
26803WAT     H180651   9.880   7.864   1.833
26803WAT     H280652   9.735   7.936   1.858
26804WAT      O80653   6.638   8.673   8.901
26804WAT     H180654   6.541   8.693   8.910
26804WAT     H280655   6.668   8.694   8.808
26805WAT      O80656   5.515   2.851   5.810
26805WAT     H180657   5.490   2.945   5.791
26805WAT     H280658   5.447   2.808   5.869
26806WAT      O80659   0.155   3.292   2.577
26806WAT     H180660   0.110   3.210   2.543
26806WAT     H280661   0.251   3.292   2.548
26807WAT      O80662   8.021   7.612   5.113
26807WAT     H180663   7.979   7.616   5.204
26807WAT     H280664   8.120   7.609   5.123
26808WAT      O80665   7.461   3.544   7.890
26808WAT     H180666   7.517   3.465   7.865
26808WAT     H280667   7.380   3.512   7.939
26809WAT      O80668   4.800   0.079   9.001
26809WAT     H180669   4.777  -0.018   9.006
26809WAT     H280670   4.719   0.131   8.976
26810WAT      O80671   1.770   3.094   6.509
26810WAT     H180672   1.767   3.017   6.444
26810WAT     H280673   1.820   3.170   6.468
26811WAT      O80674   8.210   6.614   1.595
26811WAT     H180675   8.154   6.548   1.645
26811WAT     H280676   8.307   6.593   1.609
26812WAT      O80677   1.189   4.784   7.036
26812WAT     H180678   1.153   4.859   6.981
26812WAT     H280679   1.118   4.750   7.097
26813WAT      O80680   7.023   0.272   8.601
26813WAT     H180681   7.022   0.238   8.696
26813WAT     H280682   7.031   0.372   8.602
26814WAT      O80683   3.174   8.825   1.943
26814WAT     H180684   3.174   8.730   1.973
26814WAT     H280685   3.247   8.838   1.875
26815WAT      O80686   9.291   3.587   3.379
26815WAT     H180687   9.251   3.607   3.290
26815WAT     H280688   9.388   3.611   3.379
26816WAT      O80689   1.312   9.083   2.121
26816WAT     H180690   1.287   9.178   2.101
26816WAT     H280691   1.407   9.079   2.154
26817WAT      O80692   9.209   7.439   3.251
26817WAT     H180693   9.210   7.536   3.228
26817WAT     H280694   9.268   7.389   3.188
26818WAT      O80695   4.282   0.227   8.642
26818WAT     H180696   4.233   0.159   8.697
26818WAT     H280697   4.340   0.282   8.702
26819WAT      O80698   7.387   6.700   5.749
26819WAT     H180699   7.486   6.699   5.758
26819WAT     H280700   7.348   6.763   5.817
26820WAT      O80701   7.667   7.829   9.086
26820WAT     H180702   7.643   7.836   8.989
26820WAT     H280703   7.676   7.921   9.124
26821WAT      O80704   1.418   7.371   5.825
26821WAT     H180705   1.324   7.338   5.827
26821WAT     H280706   1.460   7.346   5.738
26822WAT      O80707   1.592   2.887   3.379
26822WAT     H180708   1.620   2.793   3.399
26822WAT     H280709   1.494   2.896   3.395
26823WAT      O80710   2.744   8.476   3.779
26823WAT     H180711   2.842   8.469   3.798
26823WAT     H280712   2.714   8.393   3.731
26824WAT      O80713   5.032   2.921   7.301
26824WAT     H180714   5.046   2.922   7.400
26824WAT     H280715   4.935   2.929   7.281
26825WAT      O80716   1.676   5.889   9.095
26825WAT     H180717   1.726   5.835   9.027
26825WAT     H280718   1.630   5.965   9.050
26826WAT      O80719   8.606   2.923   9.012
26826WAT     H180720   8.641   2.941   9.104
26826WAT     H280721   8.655   2.980   8.946
26827WAT      O80722   6.557   6.810   8.226
26827WAT     H180723   6.459   6.797   8.207
26827WAT     H280724   6.578   6.908   8.224
26828WAT      O80725   2.111   4.107   4.321
26828WAT     H180726   2.181   4.131   4.387
26828WAT     H280727   2.148   4.116   4.228
26829WAT      O80728   5.359   3.032   5.071
26829WAT     H180729   5.347   2.939   5.108
26829WAT     H280730   5.415   3.085   5.134
26830WAT      O80731   9.761   4.048   0.663
26830WAT     H180732   9.728   4.014   0.752
26830WAT     H280733   9.683   4.070   0.605
26831WAT      O80734   5.149   0.361   0.639
26831WAT     H180735   5.232   0.417   0.629
26831WAT     H280736   5.076   0.400   0.584
26832WAT      O80737   6.608   3.707   2.603
26832WAT     H180738   6.517   3.731   2.638
26832WAT     H280739   6.669   3.786   2.612
26833WAT      O80740   5.001   4.487   2.153
26833WAT     H180741   5.002   4.397   2.196
26833WAT     H280742   5.049   4.553   2.211
26834WAT      O80743   5.997   0.143   0.661
26834WAT     H180744   6.046   0.177   0.580
26834WAT     H280745   5.928   0.076   0.633
26835WAT      O80746   3.576   1.413   7.983
26835WAT     H180747   3.637   1.484   7.948
26835WAT     H280748   3.551   1.351   7.909
26836WAT      O80749   6.604   6.078   7.933
26836WAT     H180750   6.687   6.124   7.965
26836WAT     H280751   6.606   6.070   7.834
26837WAT      O80752   1.579   9.366   6.809
26837WAT     H180753   1.628   9.299   6.754
26837WAT     H280754   1.495   9.392   6.763
26838WAT      O80755   9.870   1.988   2.954
26838WAT     H180756   9.950   1.987   3.016
26838WAT     H280757   9.819   1.903   2.965
26839WAT      O80758   7.417   9.277   2.742
26839WAT     H180759   7.454   9.186   2.758
26839WAT     H280760   7.389   9.317   2.829
26840WAT      O80761   3.342   7.764   9.057
26840WAT     H180762   3.338   7.838   9.124
26840WAT     H280763   3.268   7.699   9.074
26841WAT      O80764   7.913   7.298   7.737
26841WAT     H180765   7.957   7.208   7.730
26841WAT     H280766   7.827   7.289   7.787
26842WAT      O80767   2.790   5.001   7.976
26842WAT     H180768   2.886   4.992   8.004
26842WAT     H280769   2.741   4.916   7.997
26843WAT      O80770   8.486   4.310   9.413
26843WAT     H180771   8.570   4.262   9.388
26843WAT     H280772   8.473   4.387   9.350
26844WAT      O80773   1.060   3.766   0.898
26844WAT     H180774   1.146   3.718   0.878
26844WAT     H280775   1.069   3.815   0.984
26845WAT      O80776   7.362   1.221   8.354
26845WAT     H180777   7.273   1.211   8.310
26845WAT     H280778   7.428   1.160   8.311
26846WAT      O80779   8.788   7.549   3.377
26846WAT     H180780   8.707   7.605   3.393
26846WAT     H280781   8.766   7.475   3.313
26847WAT      O80782   0.776   2.329   6.678
26847WAT     H180783   0.792   2.408   6.737
26847WAT     H280784   0.796   2.245   6.729
26848WAT      O80785   8.538   5.010   1.350
26848WAT     H180786   8.522   4.929   1.406
26848WAT     H280787   8.503   4.994   1.257
26849WAT      O80788   9.405   4.131   2.377
26849WAT     H180789   9.371   4.195   2.308
26849WAT     H280790   9.382   4.165   2.468
26850WAT      O80791   6.148   7.317   7.530
26850WAT     H180792   6.241   7.352   7.515
26850WAT     H280793   6.149   7.217   7.525
26851WAT      O80794   9.335   4.743   2.744
26851WAT     H180795   9.402   4.806   2.783
26851WAT     H280796   9.246   4.789   2.737
26852WAT      O80797   1.121   6.476   8.351
26852WAT     H180798   1.038   6.531   8.344
26852WAT     H280799   1.099   6.380   8.332
26853WAT      O80800   9.802   5.707   2.344
26853WAT     H180801   9.711   5.666   2.348
26853WAT     H280802   9.842   5.690   2.254
26854WAT      O80803   7.427   4.772   0.545
26854WAT     H180804   7.394   4.849   0.490
26854WAT     H280805   7.365   4.694   0.534
26855WAT      O80806   8.183   5.237   4.677
26855WAT     H180807   8.216   5.228   4.771
26855WAT     H280808   8.090   5.201   4.671
26856WAT      O80809   1.414   6.730   9.125
26856WAT     H180810   1.385   6.764   9.214
26856WAT     H280811   1.358   6.651   9.099
26857WAT      O80812   3.586   1.558   3.690
26857WAT     H180813   3.549   1.486   3.749
26857WAT     H280814   3.585   1.645   3.740
26858WAT      O80815   7.276   7.628   8.607
26858WAT     H180816   7.250   7.714   8.563
26858WAT     H280817   7.342   7.647   8.680
26859WAT      O80818   8.279   2.476   2.479
26859WAT     H180819   8.311   2.490   2.385
26859WAT     H280820   8.231   2.558   2.510
26860WAT      O80821   2.207   3.942   6.604
26860WAT     H180822   2.277   3.883   6.643
26860WAT     H280823   2.156   3.987   6.677
26861WAT      O80824   4.768   8.817   5.777
26861WAT     H180825   4.707   8.872   5.720
26861WAT     H280826   4.793   8.869   5.858
26862WAT      O80827   9.518   6.050   8.459
26862WAT     H180828   9.463   5.973   8.493
26862WAT     H280829   9.493   6.133   8.510
26863WAT      O80830   4.329   5.561   1.446
26863WAT     H180831   4.382   5.551   1.362
26863WAT     H280832   4.250   5.501   1.443
26864WAT      O80833   1.689   0.899   0.435
26864WAT     H180834   1.774   0.941   0.404
26864WAT     H280835   1.704   0.801   0.448
26865WAT      O80836   2.719   3.716   0.901
26865WAT     H180837   2.700   3.808   0.933
26865WAT     H280838   2.656   3.693   0.826
26866WAT      O80839   9.606   4.244   9.425
26866WAT     H180840   9.623   4.324   9.483
26866WAT     H280841   9.510   4.243   9.398
26867WAT      O80842   0.801   3.450   7.747
26867WAT     H180843   0.720   3.401   7.713
26867WAT     H280844   0.863   3.385   7.790
26868WAT      O80845   4.875   3.715   1.353
26868WAT     H180846   4.923   3.711   1.440
26868WAT     H280847   4.792   3.769   1.363
26869WAT      O80848   9.865   1.690   7.815
26869WAT     H180849   9.914   1.610   7.783
26869WAT     H280850   9.923   1.771   7.806
26870WAT      O80851   4.722   7.872   3.733
26870WAT     H180852   4.700   7.866   3.635
26870WAT     H280853   4.809   7.920   3.744
26871WAT      O80854   9.747   1.865   7.009
26871WAT     H180855   9.830   1.813   7.031
26871WAT     H280856   9.702   1.893   7.094
26872WAT      O80857   8.013   1.592   5.295
26872WAT     H180858   8.099   1.541   5.297
26872WAT     H280859   7.994   1.630   5.385
26873WAT      O80860   3.260   8.317   9.387
26873WAT     H180861   3.354   8.340   9.360
26873WAT     H280862   3.224   8.389   9.446
26874WAT      O80863   6.245   4.794   1.717
26874WAT     H180864   6.200   4.821   1.632
26874WAT     H280865   6.344   4.805   1.707
26875WAT      O80866   5.866   4.215   3.626
26875WAT     H180867   5.894   4.147   3.558
26875WAT     H280868   5.938   4.283   3.635
26876WAT      O80869   6.424   2.400   1.901
26876WAT     H180870   6.380   2.459   1.969
26876WAT     H280871   6.514   2.437   1.879
26877WAT      O80872   4.025   9.491   3.329
26877WAT     H180873   3.991   9.565   3.387
26877WAT     H280874   4.068   9.531   3.247
26878WAT      O80875   7.919   6.834   1.418
26878WAT     H180876   7.820   6.851   1.426
26878WAT     H280877   7.953   6.793   1.503
26879WAT      O80878   5.368   1.955   8.365
26879WAT     H180879   5.389   2.002   8.451
26879WAT     H280880   5.367   1.856   8.381
26880WAT      O80881   4.614   5.445   8.805
26880WAT     H180882   4.601   5.430   8.903
26880WAT     H280883   4.641   5.540   8.789
26881WAT      O80884   8.994   2.387   4.089
26881WAT     H180885   8.974   2.331   4.009
26881WAT     H280886   8.973   2.336   4.172
26882WAT      O80887   3.106   7.304   8.722
26882WAT     H180888   3.124   7.399   8.696
26882WAT     H280889   3.170   7.243   8.674
26883WAT      O80890   4.291   3.387   5.502
26883WAT     H180891   4.216   3.321   5.511
26883WAT     H280892   4.255   3.474   5.469
26884WAT      O80893   7.080   1.041   8.793
26884WAT     H180894   7.019   1.015   8.719
26884WAT     H280895   7.171   1.060   8.755
26885WAT      O80896   0.257   9.807   3.908
26885WAT     H180897   0.250   9.760   3.820
26885WAT     H280898   0.185   9.876   3.914
26886WAT      O80899   2.234   2.261   4.265
26886WAT     H180900   2.162   2.228   4.204
26886WAT     H280901   2.197   2.331   4.326
26887WAT      O80902   6.331   5.359   6.628
26887WAT     H180903   6.301   5.452   6.604
26887WAT     H280904   6.253   5.307   6.661
26888WAT      O80905   6.263   8.669   7.268
26888WAT     H180906   6.351   8.659   7.314
26888WAT     H280907   6.189   8.659   7.334
26889WAT      O80908   8.005   6.483   0.994
26889WAT     H180909   7.908   6.462   0.999
26889WAT     H280910   8.020   6.553   0.924
26890WAT      O80911   0.867   3.148   9.035
26890WAT     H180912   0.841   3.192   8.949
26890WAT     H280913   0.965   3.161   9.051
26891WAT      O80914   4.035   6.427   5.907
26891WAT     H180915   4.046   6.368   5.987
26891WAT     H280916   4.065   6.378   5.826
26892WAT      O80917   5.331   8.572   8.595
26892WAT     H180918   5.387   8.655   8.597
26892WAT     H280919   5.383   8.496   8.633
26893WAT      O80920   2.266   1.509   1.919
26893WAT     H180921   2.206   1.588   1.921
26893WAT     H280922   2.266   1.469   1.827
26894WAT      O80923   3.670   7.426   6.536
26894WAT     H180924   3.623   7.407   6.450
26894WAT     H280925   3.612   7.400   6.613
26895WAT      O80926   8.898   1.586   9.422
26895WAT     H180927   8.931   1.586   9.516
26895WAT     H280928   8.950   1.653   9.368
26896WAT      O80929   7.971   8.197   9.840
26896WAT     H180930   8.051   8.161   9.888
26896WAT     H280931   7.991   8.289   9.806
26897WAT      O80932   9.263   0.441   2.676
26897WAT     H180933   9.351   0.486   2.660
26897WAT     H280934   9.213   0.489   2.749
26898WAT      O80935   0.240   4.007   9.801
26898WAT     H180936   0.247   4.064   9.719
26898WAT     H280937   0.312   3.938   9.800
26899WAT      O80938   9.345   4.689   8.334
26899WAT     H180939   9.355   4.590   8.329
26899WAT     H280940   9.339   4.717   8.430
26900WAT      O80941   5.826   6.714   2.266
26900WAT     H180942   5.783   6.727   2.177
26900WAT     H280943   5.767   6.753   2.337
26901WAT      O80944   5.851   8.473   6.097
26901WAT     H180945   5.799   8.429   6.170
26901WAT     H280946   5.925   8.527   6.137
26902WAT      O80947   7.063   7.221   2.200
26902WAT     H180948   6.986   7.161   2.218
26902WAT     H280949   7.131   7.173   2.144
26903WAT      O80950   9.245   0.607   6.687
26903WAT     H180951   9.202   0.669   6.622
26903WAT     H280952   9.262   0.519   6.644
26904WAT      O80953   8.871   2.852   3.583
26904WAT     H180954   8.823   2.792   3.647
26904WAT     H280955   8.948   2.896   3.630
26905WAT      O80956   0.421   8.212   3.351
26905WAT     H180957   0.403   8.266   3.269
26905WAT     H280958   0.341   8.216   3.411
26906WAT      O80959   4.071   3.439   7.165
26906WAT     H180960   4.143   3.370   7.176
26906WAT     H280961   4.112   3.530   7.162
26907WAT      O80962   9.518   4.223   7.148
26907WAT     H180963   9.458   4.250   7.072
26907WAT     H280964   9.545   4.304   7.199
26908WAT      O80965   3.105   4.200   5.291
26908WAT     H180966   3.098   4.276   5.226
26908WAT     H280967   3.152   4.231   5.373
26909WAT      O80968   9.696   4.992   4.468
26909WAT     H180969   9.791   4.966   4.489
26909WAT     H280970   9.660   5.047   4.543
26910WAT      O80971   0.620   3.288   1.376
26910WAT     H180972   0.716   3.309   1.396
26910WAT     H280973   0.581   3.234   1.451
26911WAT      O80974   7.037   2.103   7.947
26911WAT     H180975   6.970   2.176   7.927
26911WAT     H280976   7.083   2.124   8.033
26912WAT      O80977   3.696   2.630   5.742
26912WAT     H180978   3.671   2.697   5.673
26912WAT     H280979   3.720   2.544   5.698
26913WAT      O80980   9.413   6.609   9.836
26913WAT     H180981   9.486   6.553   9.873
26913WAT     H280982   9.331   6.599   9.892
26914WAT      O80983   9.098   5.187   2.806
26914WAT     H180984   9.190   5.152   2.789
26914WAT     H280985   9.057   5.216   2.719
26915WAT      O80986   3.297   6.991   1.441
26915WAT     H180987   3.276   7.025   1.532
26915WAT     H280988   3.223   7.014   1.378
26916WAT      O80989   5.921   4.655   0.161
26916WAT     H180990   6.000   4.622   0.109
26916WAT     H280991   5.927   4.754   0.172
26917WAT      O80992   2.745   5.065   7.628
26917WAT     H180993   2.747   4.969   7.656
26917WAT     H280994   2.654   5.102   7.646
26918WAT      O80995   9.720   8.149   9.672
26918WAT     H180996   9.766   8.106   9.594
26918WAT     H280997   9.690   8.079   9.737
26919WAT      O80998   2.776   5.065   8.607
26919WAT     H180999   2.864   5.087   8.648
26919WAT     H281000   2.777   5.093   8.511
26920WAT      O81001   8.188   8.458   5.422
26920WAT     H181002   8.216   8.554   5.425
26920WAT     H281003   8.150   8.431   5.510
26921WAT      O81004   9.508   5.194   5.380
26921WAT     H181005   9.528   5.151   5.292
26921WAT     H281006   9.475   5.125   5.444
26922WAT      O81007   5.353   5.448   3.342
26922WAT     H181008   5.267   5.463   3.294
26922WAT     H281009   5.410   5.530   3.335
26923WAT      O81010   9.163   6.478   9.040
26923WAT     H181011   9.082   6.430   9.007
26923WAT     H281012   9.165   6.476   9.140
26924WAT      O81013   4.120   0.149   2.730
26924WAT     H181014   4.049   0.219   2.722
26924WAT     H281015   4.151   0.144   2.825
26925WAT      O81016   5.130   6.616   4.669
26925WAT     H181017   5.179   6.639   4.753
26925WAT     H281018   5.071   6.537   4.685
26926WAT      O81019   9.196   8.477   1.167
26926WAT     H181020   9.256   8.413   1.120
26926WAT     H281021   9.197   8.565   1.120
26927WAT      O81022   3.089   9.285   9.171
26927WAT     H181023   3.028   9.298   9.249
26927WAT     H281024   3.089   9.367   9.114
26928WAT      O81025   8.225   3.476   8.759
26928WAT     H181026   8.196   3.551   8.701
26928WAT     H281027   8.179   3.391   8.730
26929WAT      O81028   3.171   4.893   6.998
26929WAT     H181029   3.209   4.826   6.935
26929WAT     H281030   3.212   4.881   7.088
26930WAT      O81031   7.813   5.642   8.008
26930WAT     H181032   7.862   5.556   7.995
26930WAT     H281033   7.784   5.677   7.918
26931WAT      O81034   7.125   1.335   3.493
26931WAT     H181035   7.138   1.267   3.565
26931WAT     H281036   7.212   1.355   3.450
26932WAT      O81037   0.754   6.281   8.395
26932WAT     H181038   0.686   6.251   8.462
26932WAT     H281039   0.824   6.210   8.386
26933WAT      O81040   1.280   1.098   6.797
26933WAT     H181041   1.281   1.160   6.875
26933WAT     H281042   1.362   1.111   6.743
26934WAT      O81043   4.975   9.324   0.039
26934WAT     H181044   4.976   9.242  -0.018
26934WAT     H281045   4.880   9.356   0.049
26935WAT      O81046   1.829   8.413   1.457
26935WAT     H181047   1.822   8.476   1.534
26935WAT     H281048   1.924   8.404   1.430
26936WAT      O81049   9.377   6.033   9.342
26936WAT     H181050   9.293   6.052   9.395
26936WAT     H281051   9.452   6.088   9.379
26937WAT      O81052   8.791   5.944   0.571
26937WAT     H181053   8.726   5.915   0.641
26937WAT     H281054   8.782   6.043   0.556
26938WAT      O81055   1.865   6.589   5.667
26938WAT     H181056   1.944   6.648   5.680
26938WAT     H281057   1.895   6.498   5.640
26939WAT      O81058   3.425   3.355   3.215
26939WAT     H181059   3.464   3.298   3.287
26939WAT     H281060   3.325   3.358   3.224
26940WAT      O81061   5.118   7.315   4.774
26940WAT     H181062   5.172   7.399   4.777
26940WAT     H281063   5.056   7.318   4.695
26941WAT      O81064   9.524   1.239   2.724
26941WAT     H181065   9.540   1.276   2.816
26941WAT     H281066   9.471   1.154   2.732
26942WAT      O81067   3.584   8.546   6.105
26942WAT     H181068   3.623   8.624   6.153
26942WAT     H281069   3.653   8.509   6.042
26943WAT      O81070   1.400   3.816   6.559
26943WAT     H181071   1.416   3.909   6.524
26943WAT     H281072   1.411   3.750   6.485
26944WAT      O81073   5.222   1.186   7.179
26944WAT     H181074   5.221   1.183   7.079
26944WAT     H281075   5.264   1.272   7.210
26945WAT      O81076   3.302   6.943   0.183
26945WAT     H181077   3.341   6.966   0.272
26945WAT     H281078   3.213   6.986   0.173
26946WAT      O81079   4.794   2.882   2.815
26946WAT     H181080   4.768   2.839   2.901
26946WAT     H281081   4.751   2.834   2.739
26947WAT      O81082   6.462   7.504   8.910
26947WAT     H181083   6.449   7.603   8.915
26947WAT     H281084   6.494   7.470   8.998
26948WAT      O81085   7.766   6.593   8.956
26948WAT     H181086   7.794   6.638   8.872
26948WAT     H281087   7.770   6.658   9.032
26949WAT      O81088   4.158   5.985   0.608
26949WAT     H181089   4.116   6.058   0.662
26949WAT     H281090   4.258   5.990   0.618
26950WAT      O81091   0.712   8.766   4.010
26950WAT     H181092   0.670   8.678   4.033
26950WAT     H281093   0.665   8.806   3.932
26951WAT      O81094   8.539   9.263   1.415
26951WAT     H181095   8.466   9.295   1.354
26951WAT     H281096   8.564   9.337   1.478
26952WAT      O81097   7.535   8.270   9.515
26952WAT     H181098   7.463   8.335   9.537
26952WAT     H281099   7.586   8.302   9.435
26953WAT      O81100   4.658   0.817   7.866
26953WAT     H181101   4.565   0.842   7.840
26953WAT     H281102   4.671   0.719   7.850
26954WAT      O81103   6.042   7.862   2.817
26954WAT     H181104   5.970   7.842   2.751
26954WAT     H281105   6.126   7.885   2.768
26955WAT      O81106   8.238   5.950   1.262
26955WAT     H181107   8.139   5.965   1.270
26955WAT     H281108   8.286   6.022   1.311
26956WAT      O81109   3.282   3.585   5.554
26956WAT     H181110   3.279   3.647   5.633
26956WAT     H281111   3.375   3.582   5.518
26957WAT      O81112   0.355   2.222   5.683
26957WAT     H181113   0.434   2.215   5.623
26957WAT     H281114   0.271   2.221   5.628
26958WAT      O81115   3.254   5.511   1.665
26958WAT     H181116   3.257   5.461   1.579
26958WAT     H281117   3.162   5.551   1.677
26959WAT      O81118   1.617   5.246   9.731
26959WAT     H181119   1.524   5.213   9.743
26959WAT     H281120   1.662   5.195   9.657
26960WAT      O81121   4.655   8.478   5.734
26960WAT     H181122   4.582   8.537   5.701
26960WAT     H281123   4.621   8.419   5.806
26961WAT      O81124   1.360   0.634   3.046
26961WAT     H181125   1.322   0.581   3.121
26961WAT     H281126   1.458   0.617   3.039
26962WAT      O81127   0.800   0.302   0.047
26962WAT     H181128   0.826   0.379   0.104
26962WAT     H281129   0.702   0.309   0.025
26963WAT      O81130   3.674   1.997   3.622
26963WAT     H181131   3.699   2.012   3.526
26963WAT     H281132   3.737   1.932   3.663
26964WAT      O81133   1.220   8.264   3.237
26964WAT     H181134   1.184   8.338   3.293
26964WAT     H281135   1.284   8.209   3.290
26965WAT      O81136   4.890   7.867   1.686
26965WAT     H181137   4.830   7.947   1.684
26965WAT     H281138   4.934   7.855   1.598
26966WAT      O81139   7.491   7.789   0.055
26966WAT     H181140   7.454   7.881   0.069
26966WAT     H281141   7.587   7.787   0.081
26967WAT      O81142   9.822   2.552   5.364
26967WAT     H181143   9.787   2.591   5.278
26967WAT     H281144   9.920   2.538   5.357
26968WAT      O81145   9.545   3.671   2.712
26968WAT     H181146   9.502   3.734   2.776
26968WAT     H281147   9.574   3.720   2.630
26969WAT      O81148   9.086   3.069   0.086
26969WAT     H181149   9.036   3.121   0.017
26969WAT     H281150   9.022   3.014   0.140
26970WAT      O81151   9.051   3.440   6.351
26970WAT     H181152   9.000   3.437   6.437
26970WAT     H281153   9.126   3.505   6.358
26971WAT      O81154   5.191   9.480   0.095
26971WAT     H181155   5.108   9.427   0.079
26971WAT     H281156   5.200   9.550   0.024
26972WAT      O81157   2.335   2.228   1.927
26972WAT     H181158   2.424   2.187   1.945
26972WAT     H281159   2.323   2.310   1.984
26973WAT      O81160   6.311   3.176   9.024
26973WAT     H181161   6.315   3.173   8.924
26973WAT     H281162   6.231   3.229   9.052
26974WAT      O81163   2.695   6.670   2.852
26974WAT     H181164   2.769   6.736   2.845
26974WAT     H281165   2.734   6.578   2.864
26975WAT      O81166   5.104   9.663   5.459
26975WAT     H181167   5.123   9.681   5.555
26975WAT     H281168   5.071   9.569   5.449
26976WAT      O81169   9.248   0.780   3.244
26976WAT     H181170   9.254   0.791   3.343
26976WAT     H281171   9.152   0.781   3.216
26977WAT      O81172   9.334   3.353   6.216
26977WAT     H181173   9.252   3.340   6.160
26977WAT     H281174   9.334   3.445   6.254
26978WAT      O81175   0.916   5.861   6.232
26978WAT     H181176   0.931   5.959   6.245
26978WAT     H281177   0.834   5.847   6.176
26979WAT      O81178   0.221   0.350   7.419
26979WAT     H181179   0.155   0.324   7.349
26979WAT     H281180   0.175   0.359   7.507
26980WAT      O81181   3.508   3.079   5.697
26980WAT     H181182   3.451   2.997   5.699
26980WAT     H281183   3.474   3.145   5.764
26981WAT      O81184   0.421   4.801   4.040
26981WAT     H181185   0.335   4.786   3.991
26981WAT     H281186   0.433   4.729   4.109
26982WAT      O81187   0.911   9.681   0.581
26982WAT     H181188   0.860   9.763   0.557
26982WAT     H281189   0.993   9.674   0.525
26983WAT      O81190   1.152   3.561   3.245
26983WAT     H181191   1.219   3.486   3.250
26983WAT     H281192   1.200   3.648   3.249
26984WAT      O81193   0.927   6.247   3.787
26984WAT     H181194   0.956   6.163   3.742
26984WAT     H281195   1.007   6.302   3.811
26985WAT      O81196   4.144   2.129   1.823
26985WAT     H181197   4.186   2.064   1.887
26985WAT     H281198   4.120   2.081   1.738
26986WAT      O81199   4.956   4.313   4.019
26986WAT     H181200   4.992   4.223   4.045
26986WAT     H281201   4.899   4.304   3.937
26987WAT      O81202   8.437   0.972   0.776
26987WAT     H181203   8.452   0.965   0.874
26987WAT     H281204   8.340   0.988   0.758
26988WAT      O81205   4.269   2.544   1.648
26988WAT     H181206   4.210   2.501   1.716
26988WAT     H281207   4.364   2.519   1.666
26989WAT      O81208   5.896   7.952   4.899
26989WAT     H181209   5.894   7.857   4.930
26989WAT     H281210   5.857   8.011   4.970
26990WAT      O81211   3.437   6.675   5.717
26990WAT     H181212   3.363   6.736   5.687
26990WAT     H281213   3.408   6.580   5.706
26991WAT      O81214   4.315   2.693   7.294
26991WAT     H181215   4.216   2.697   7.304
26991WAT     H281216   4.346   2.598   7.298
26992WAT      O81217   2.428   5.322   6.286
26992WAT     H181218   2.390   5.379   6.213
26992WAT     H281219   2.524   5.346   6.300
26993WAT      O81220   1.595   0.629   2.648
26993WAT     H181221   1.524   0.563   2.673
26993WAT     H281222   1.619   0.617   2.551
26994WAT      O81223   6.075   3.519   0.587
26994WAT     H181224   6.027   3.582   0.649
26994WAT     H281225   6.063   3.425   0.619
26995WAT      O81226   6.367   4.451   7.990
26995WAT     H181227   6.439   4.508   8.029
26995WAT     H281228   6.288   4.508   7.967
26996WAT      O81229   0.643   2.480   7.309
26996WAT     H181230   0.621   2.505   7.215
26996WAT     H281231   0.561   2.445   7.354
26997WAT      O81232   7.566   0.552   7.289
26997WAT     H181233   7.561   0.452   7.285
26997WAT     H281234   7.656   0.580   7.323
26998WAT      O81235   8.815   4.791   4.509
26998WAT     H181236   8.874   4.838   4.443
26998WAT     H281237   8.748   4.735   4.459
26999WAT      O81238   8.134   4.492   7.382
26999WAT     H181239   8.103   4.566   7.322
26999WAT     H281240   8.179   4.422   7.327
27000WAT      O81241   6.668   5.530   0.510
27000WAT     H181242   6.740   5.517   0.578
27000WAT     H281243   6.608   5.605   0.539
27001WAT      O81244   6.767   0.873   6.529
27001WAT     H181245   6.734   0.782   6.555
27001WAT     H281246   6.808   0.918   6.608
27002WAT      O81247   8.677   7.799   7.468
27002WAT     H181248   8.670   7.749   7.381
27002WAT     H281249   8.693   7.734   7.542
27003WAT      O81250   3.004   1.313   6.194
27003WAT     H181251   3.074   1.315   6.123
27003WAT     H281252   3.047   1.327   6.283
27004WAT      O81253   4.994   7.296   2.520
27004WAT     H181254   4.943   7.253   2.446
27004WAT     H281255   4.955   7.386   2.540
27005WAT      O81256   0.774   0.737   3.546
27005WAT     H181257   0.691   0.742   3.491
27005WAT     H281258   0.755   0.767   3.639
27006WAT      O81259   6.207   0.443   5.703
27006WAT     H181260   6.171   0.402   5.619
27006WAT     H281261   6.246   0.533   5.681
27007WAT      O81262   2.116   1.553   0.069
27007WAT     H181263   2.215   1.562   0.072
27007WAT     H281264   2.091   1.466   0.027
27008WAT      O81265   4.426   4.945   4.226
27008WAT     H181266   4.380   5.005   4.292
27008WAT     H281267   4.371   4.863   4.212
27009WAT      O81268   8.698   7.783   7.190
27009WAT     H181269   8.642   7.793   7.107
27009WAT     H281270   8.748   7.868   7.206
27010WAT      O81271   1.813   7.437   0.007
27010WAT     H181272   1.803   7.358  -0.054
27010WAT     H281273   1.876   7.503  -0.035
27011WAT      O81274   6.097   4.420   0.580
27011WAT     H181275   6.065   4.333   0.543
27011WAT     H281276   6.154   4.466   0.512
27012WAT      O81277   5.647   7.961   0.036
27012WAT     H181278   5.726   7.900   0.027
27012WAT     H281279   5.568   7.919  -0.009
27013WAT      O81280   2.829   2.834   1.235
27013WAT     H181281   2.912   2.844   1.290
27013WAT     H281282   2.850   2.789   1.149
27014WAT      O81283   8.666   8.011   8.547
27014WAT     H181284   8.634   7.918   8.527
27014WAT     H281285   8.589   8.069   8.573
27015WAT      O81286   1.496   5.765   2.965
27015WAT     H181287   1.456   5.826   3.034
27015WAT     H281288   1.552   5.696   3.010
27016WAT      O81289   1.287   2.912   2.713
27016WAT     H181290   1.327   2.844   2.775
27016WAT     H281291   1.189   2.918   2.731
27017WAT      O81292   6.635   0.946   7.791
27017WAT     H181293   6.708   0.898   7.839
27017WAT     H281294   6.549   0.896   7.803
27018WAT      O81295   7.459   7.800   6.323
27018WAT     H181296   7.471   7.886   6.273
27018WAT     H281297   7.450   7.818   6.421
27019WAT      O81298   0.849   4.319   4.396
27019WAT     H181299   0.897   4.336   4.482
27019WAT     H281300   0.790   4.239   4.406
27020WAT      O81301   5.058   4.219   6.354
27020WAT     H181302   5.074   4.317   6.367
27020WAT     H281303   5.146   4.173   6.341
27021WAT      O81304   4.793   4.880   4.318
27021WAT     H181305   4.881   4.896   4.363
27021WAT     H281306   4.763   4.965   4.275
27022WAT      O81307   2.700   2.892   6.221
27022WAT     H181308   2.652   2.818   6.174
27022WAT     H281309   2.673   2.980   6.182
27023WAT      O81310   0.251   4.113   4.773
27023WAT     H181311   0.157   4.119   4.740
27023WAT     H281312   0.262   4.175   4.851
27024WAT      O81313   7.373   3.774   9.516
27024WAT     H181314   7.471   3.774   9.535
27024WAT     H281315   7.358   3.792   9.418
27025WAT      O81316   2.690   6.561   8.133
27025WAT     H181317   2.612   6.506   8.104
27025WAT     H281318   2.678   6.588   8.229
27026WAT      O81319   7.353   4.582   3.061
27026WAT     H181320   7.262   4.604   3.094
27026WAT     H281321   7.379   4.490   3.092
27027WAT      O81322   1.533   5.015   0.569
27027WAT     H181323   1.459   5.082   0.560
27027WAT     H281324   1.592   5.041   0.646
27028WAT      O81325   4.934   1.136   1.672
27028WAT     H181326   4.927   1.136   1.572
27028WAT     H281327   4.927   1.042   1.706
27029WAT      O81328   9.032   5.637   8.229
27029WAT     H181329   8.949   5.585   8.209
27029WAT     H281330   9.092   5.583   8.288
27030WAT      O81331   6.005   2.117   6.808
27030WAT     H181332   6.097   2.110   6.846
27030WAT     H281333   6.002   2.071   6.719
27031WAT      O81334   1.540   8.097   6.113
27031WAT     H181335   1.464   8.122   6.053
27031WAT     H281336   1.506   8.077   6.205
27032WAT      O81337   6.422   3.350   1.347
27032WAT     H181338   6.509   3.374   1.389
27032WAT     H281339   6.348   3.402   1.391
27033WAT      O81340   8.266   8.123   8.832
27033WAT     H181341   8.176   8.151   8.866
27033WAT     H281342   8.260   8.031   8.794
27034WAT      O81343   9.596   8.844   6.883
27034WAT     H181344   9.627   8.939   6.889
27034WAT     H281345   9.496   8.842   6.881
27035WAT      O81346   4.383   4.326   8.860
27035WAT     H181347   4.291   4.288   8.871
27035WAT     H281348   4.387   4.379   8.776
27036WAT      O81349   8.840   5.894   9.644
27036WAT     H181350   8.747   5.911   9.675
27036WAT     H281351   8.839   5.862   9.550
27037WAT      O81352   3.931   1.478   7.347
27037WAT     H181353   3.980   1.433   7.421
27037WAT     H281354   3.833   1.477   7.366
27038WAT      O81355   9.358   4.819   8.561
27038WAT     H181356   9.359   4.918   8.546
27038WAT     H281357   9.315   4.798   8.648
27039WAT      O81358   4.125   5.557   5.286
27039WAT     H181359   4.219   5.529   5.305
27039WAT     H281360   4.120   5.597   5.194
27040WAT      O81361   9.753   0.859   6.219
27040WAT     H181362   9.705   0.832   6.136
27040WAT     H281363   9.821   0.930   6.197
27041WAT      O81364   9.741   5.514   0.037
27041WAT     H181365   9.689   5.490  -0.045
27041WAT     H281366   9.682   5.562   0.101
27042WAT      O81367   8.349   4.252   2.210
27042WAT     H181368   8.416   4.212   2.273
27042WAT     H281369   8.267   4.196   2.209
27043WAT      O81370   7.295   9.288   5.957
27043WAT     H181371   7.210   9.287   5.905
27043WAT     H281372   7.372   9.305   5.895
27044WAT      O81373   4.231   9.309   6.048
27044WAT     H181374   4.167   9.360   6.106
27044WAT     H281375   4.189   9.222   6.020
27045WAT      O81376   0.022   0.556   8.089
27045WAT     H181377   0.093   0.626   8.091
27045WAT     H281378  -0.004   0.530   8.182
27046WAT      O81379   2.785   7.985   0.892
27046WAT     H181380   2.741   8.061   0.845
27046WAT     H281381   2.879   8.010   0.916
27047WAT      O81382   8.563   4.345   1.264
27047WAT     H181383   8.477   4.358   1.215
27047WAT     H281384   8.548   4.284   1.342
27048WAT      O81385   7.413   3.006   7.942
27048WAT     H181386   7.446   3.032   8.033
27048WAT     H281387   7.454   2.920   7.914
27049WAT      O81388   3.236   0.343   2.555
27049WAT     H181389   3.226   0.401   2.637
27049WAT     H281390   3.284   0.259   2.580
27050WAT      O81391   3.609   5.281   6.530
27050WAT     H181392   3.545   5.229   6.586
27050WAT     H281393   3.562   5.357   6.486
27051WAT      O81394   0.796   1.965   4.294
27051WAT     H181395   0.698   1.952   4.279
27051WAT     H281396   0.847   1.911   4.228
27052WAT      O81397   3.511   8.064   1.439
27052WAT     H181398   3.417   8.041   1.466
27052WAT     H281399   3.573   7.995   1.476
27053WAT      O81400   8.337   1.023   5.241
27053WAT     H181401   8.251   0.972   5.242
27053WAT     H281402   8.347   1.075   5.326
27054WAT      O81403   3.796   1.221   0.188
27054WAT     H181404   3.809   1.129   0.151
27054WAT     H281405   3.844   1.287   0.130
27055WAT      O81406   9.844   0.742   7.342
27055WAT     H181407   9.825   0.711   7.435
27055WAT     H281408   9.843   0.663   7.280
27056WAT      O81409   2.222   2.726   9.111
27056WAT     H181410   2.321   2.720   9.098
27056WAT     H281411   2.190   2.816   9.081
27057WAT      O81412   4.014   3.125   7.933
27057WAT     H181413   3.954   3.190   7.978
27057WAT     H281414   4.061   3.069   8.001
27058WAT      O81415   8.867   9.284   1.738
27058WAT     H181416   8.876   9.379   1.709
27058WAT     H281417   8.885   9.223   1.661
27059WAT      O81418   4.154   3.763   0.526
27059WAT     H181419   4.108   3.847   0.497
27059WAT     H281420   4.085   3.693   0.545
27060WAT      O81421   6.657   8.427   1.309
27060WAT     H181422   6.602   8.399   1.231
27060WAT     H281423   6.596   8.463   1.380
27061WAT      O81424   6.466   0.678   1.315
27061WAT     H181425   6.512   0.763   1.341
27061WAT     H281426   6.368   0.693   1.307
27062WAT      O81427   1.448   2.602   6.902
27062WAT     H181428   1.483   2.689   6.936
27062WAT     H281429   1.382   2.619   6.829
27063WAT      O81430   7.335   6.482   9.337
27063WAT     H181431   7.352   6.543   9.260
27063WAT     H281432   7.243   6.444   9.330
27064WAT      O81433   4.934   4.026   7.891
27064WAT     H181434   4.978   4.039   7.980
27064WAT     H281435   4.868   3.951   7.897
27065WAT      O81436   1.673   3.033   8.916
27065WAT     H181437   1.715   3.005   8.830
27065WAT     H281438   1.577   3.056   8.900
27066WAT      O81439   9.456   0.375   4.030
27066WAT     H181440   9.430   0.415   3.942
27066WAT     H281441   9.450   0.276   4.025
27067WAT      O81442   9.808   9.383   0.821
27067WAT     H181443   9.787   9.329   0.739
27067WAT     H281444   9.811   9.323   0.901
27068WAT      O81445   7.702   9.484   5.539
27068WAT     H181446   7.614   9.530   5.531
27068WAT     H281447   7.744   9.505   5.627
27069WAT      O81448   0.183   1.798   5.701
27069WAT     H181449   0.236   1.834   5.778
27069WAT     H281450   0.099   1.850   5.691
27070WAT      O81451   4.934   8.409   8.032
27070WAT     H181452   4.922   8.458   8.118
27070WAT     H281453   4.962   8.315   8.050
27071WAT      O81454   0.204   0.225   7.787
27071WAT     H181455   0.213   0.265   7.878
27071WAT     H281456   0.130   0.272   7.738
27072WAT      O81457   5.675   1.554   1.127
27072WAT     H181458   5.767   1.592   1.130
27072WAT     H281459   5.625   1.594   1.049
27073WAT      O81460   7.537   0.628   4.738
27073WAT     H181461   7.445   0.615   4.775
27073WAT     H281462   7.545   0.721   4.702
27074WAT      O81463   7.107   3.791   9.571
27074WAT     H181464   7.191   3.844   9.571
27074WAT     H281465   7.079   3.773   9.666
27075WAT      O81466   2.216   9.693   2.849
27075WAT     H181467   2.300   9.694   2.795
27075WAT     H281468   2.197   9.600   2.879
27076WAT      O81469   3.964   1.600   2.404
27076WAT     H181470   4.017   1.612   2.488
27076WAT     H281471   3.868   1.581   2.427
27077WAT      O81472   1.401   7.709   6.158
27077WAT     H181473   1.409   7.740   6.064
27077WAT     H281474   1.492   7.686   6.194
27078WAT      O81475   9.620   8.826   8.231
27078WAT     H181476   9.579   8.917   8.231
27078WAT     H281477   9.653   8.805   8.323
27079WAT      O81478   9.540   9.758   4.213
27079WAT     H181479   9.556   9.704   4.131
27079WAT     H281480   9.615   9.743   4.278
27080WAT      O81481   3.913   1.535   2.035
27080WAT     H181482   3.946   1.627   2.013
27080WAT     H281483   3.858   1.539   2.119
27081WAT      O81484   0.119   7.812   5.930
27081WAT     H181485   0.072   7.757   5.860
27081WAT     H281486   0.053   7.870   5.977
27082WAT      O81487   4.871   3.491   9.869
27082WAT     H181488   4.889   3.538   9.956
27082WAT     H281489   4.850   3.559   9.799
27083WAT      O81490   4.268   7.764   4.342
27083WAT     H181491   4.276   7.687   4.406
27083WAT     H281492   4.359   7.797   4.318
27084WAT      O81493   3.448   7.715   2.771
27084WAT     H181494   3.524   7.656   2.798
27084WAT     H281495   3.440   7.716   2.671
27085WAT      O81496   8.067   9.773   6.030
27085WAT     H181497   8.023   9.751   5.942
27085WAT     H281498   8.007   9.832   6.083
27086WAT      O81499   9.145   7.080   7.993
27086WAT     H181500   9.063   7.070   7.937
27086WAT     H281501   9.168   7.177   8.001
27087WAT      O81502   8.554   3.220   3.887
27087WAT     H181503   8.587   3.201   3.794
27087WAT     H281504   8.632   3.247   3.944
27088WAT      O81505   5.769   5.932   6.761
27088WAT     H181506   5.861   5.907   6.729
27088WAT     H281507   5.712   5.850   6.766
27089WAT      O81508   8.731   3.226   5.735
27089WAT     H181509   8.707   3.295   5.803
27089WAT     H281510   8.820   3.187   5.758
27090WAT      O81511   2.131   5.781   5.918
27090WAT     H181512   2.040   5.793   5.878
27090WAT     H281513   2.174   5.700   5.878
27091WAT      O81514   2.388   6.072   2.654
27091WAT     H181515   2.391   6.009   2.731
27091WAT     H281516   2.472   6.126   2.652
27092WAT      O81517   6.038   8.617   0.951
27092WAT     H181518   6.018   8.625   1.049
27092WAT     H281519   6.012   8.703   0.905
27093WAT      O81520   0.071   5.204   2.956
27093WAT     H181521   0.137   5.161   3.019
27093WAT     H281522   0.085   5.303   2.955
27094WAT      O81523   1.302   0.504   2.422
27094WAT     H181524   1.398   0.529   2.409
27094WAT     H281525   1.244   0.583   2.402
27095WAT      O81526   9.699   2.710   5.680
27095WAT     H181527   9.633   2.639   5.655
27095WAT     H281528   9.659   2.771   5.748
27096WAT      O81529   7.424   6.634   7.848
27096WAT     H181530   7.384   6.551   7.887
27096WAT     H281531   7.453   6.616   7.754
27097WAT      O81532   8.422   8.369   5.872
27097WAT     H181533   8.416   8.271   5.856
27097WAT     H281534   8.448   8.415   5.788
27098WAT      O81535   0.778   3.270   8.779
27098WAT     H181536   0.699   3.285   8.719
27098WAT     H281537   0.842   3.347   8.769
27099WAT      O81538   2.990   5.684   0.403
27099WAT     H181539   3.073   5.720   0.445
27099WAT     H281540   2.916   5.684   0.471
27100WAT      O81541   2.111   1.887   0.748
27100WAT     H181542   2.085   1.967   0.695
27100WAT     H281543   2.077   1.804   0.702
27101WAT      O81544   9.369   2.036   2.159
27101WAT     H181545   9.334   2.035   2.253
27101WAT     H281546   9.303   2.082   2.100
27102WAT      O81547   5.904   6.155   3.461
27102WAT     H181548   5.861   6.132   3.373
27102WAT     H281549   5.971   6.228   3.446
27103WAT      O81550   5.306   5.777   7.608
27103WAT     H181551   5.270   5.827   7.529
27103WAT     H281552   5.234   5.766   7.676
27104WAT      O81553   7.718   9.566   9.047
27104WAT     H181554   7.804   9.613   9.028
27104WAT     H281555   7.681   9.598   9.135
27105WAT      O81556   7.698   1.778   0.996
27105WAT     H181557   7.636   1.750   0.923
27105WAT     H281558   7.658   1.855   1.047
27106WAT      O81559   3.053   0.445   7.343
27106WAT     H181560   2.966   0.458   7.296
27106WAT     H281561   3.112   0.525   7.327
27107WAT      O81562   8.920   3.907   3.018
27107WAT     H181563   8.874   3.905   3.107
27107WAT     H281564   8.976   3.990   3.011
27108WAT      O81565   8.007   4.842   4.068
27108WAT     H181566   8.046   4.778   4.001
27108WAT     H281567   8.066   4.922   4.075
27109WAT      O81568   0.877   4.473   1.995
27109WAT     H181569   0.931   4.406   2.046
27109WAT     H281570   0.817   4.522   2.057
27110WAT      O81571   5.077   2.916   7.596
27110WAT     H181572   4.991   2.920   7.648
27110WAT     H281573   5.145   2.975   7.640
27111WAT      O81574   2.505   7.639   6.976
27111WAT     H181575   2.557   7.555   6.958
27111WAT     H281576   2.408   7.621   6.959
27112WAT      O81577   2.252   6.652   3.648
27112WAT     H181578   2.320   6.623   3.581
27112WAT     H281579   2.212   6.572   3.692
27113WAT      O81580   0.444   3.391   8.241
27113WAT     H181581   0.526   3.397   8.184
27113WAT     H281582   0.441   3.301   8.285
27114WAT      O81583   6.218   3.447   7.903
27114WAT     H181584   6.300   3.493   7.870
27114WAT     H281585   6.244   3.368   7.959
27115WAT      O81586   8.076   2.546   7.483
27115WAT     H181587   8.016   2.471   7.454
27115WAT     H281588   8.168   2.531   7.447
27116WAT      O81589   1.897   7.924   0.218
27116WAT     H181590   1.853   7.838   0.243
27116WAT     H281591   1.963   7.907   0.145
27117WAT      O81592   3.363   8.599   0.958
27117WAT     H181593   3.319   8.539   0.891
27117WAT     H281594   3.386   8.546   1.039
27118WAT      O81595   6.538   1.762   0.706
27118WAT     H181596   6.468   1.692   0.694
27118WAT     H281597   6.497   1.853   0.700
27119WAT      O81598   7.878   3.057   8.216
27119WAT     H181599   7.930   3.128   8.169
27119WAT     H281600   7.940   3.003   8.273
27120WAT      O81601   8.040   5.343   4.345
27120WAT     H181602   7.984   5.375   4.421
27120WAT     H281603   8.074   5.251   4.365
27121WAT      O81604   2.185   3.703   8.110
27121WAT     H181605   2.270   3.674   8.067
27121WAT     H281606   2.194   3.798   8.141
27122WAT      O81607   8.566   7.460   8.543
27122WAT     H181608   8.488   7.506   8.502
27122WAT     H281609   8.584   7.374   8.495
27123WAT      O81610   3.613   3.264   5.952
27123WAT     H181611   3.571   3.307   5.872
27123WAT     H281612   3.573   3.302   6.035
27124WAT      O81613   1.329   9.183   7.074
27124WAT     H181614   1.349   9.106   7.134
27124WAT     H281615   1.398   9.254   7.086
27125WAT      O81616   5.750   3.446   7.851
27125WAT     H181617   5.789   3.405   7.769
27125WAT     H281618   5.662   3.489   7.828
27126WAT      O81619   0.058   8.190   1.341
27126WAT     H181620   0.125   8.116   1.338
27126WAT     H281621   0.032   8.207   1.436
27127WAT      O81622   6.927   6.264   7.395
27127WAT     H181623   6.938   6.198   7.469
27127WAT     H281624   7.006   6.258   7.333
27128WAT      O81625   5.696   5.206   4.983
27128WAT     H181626   5.645   5.121   4.998
27128WAT     H281627   5.656   5.279   5.039
27129WAT      O81628   0.775   5.036   5.770
27129WAT     H181629   0.729   5.008   5.854
27129WAT     H281630   0.792   5.135   5.772
27130WAT      O81631   7.749   3.902   4.886
27130WAT     H181632   7.699   3.975   4.933
27130WAT     H281633   7.691   3.863   4.815
27131WAT      O81634   5.384   3.053   5.397
27131WAT     H181635   5.303   3.095   5.440
27131WAT     H281636   5.370   2.955   5.390
27132WAT      O81637   1.932   7.328   6.711
27132WAT     H181638   1.944   7.413   6.659
27132WAT     H281639   1.953   7.250   6.652
27133WAT      O81640   1.816   8.574   3.381
27133WAT     H181641   1.769   8.625   3.309
27133WAT     H281642   1.882   8.634   3.427
27134WAT      O81643   4.417   7.178   2.542
27134WAT     H181644   4.482   7.253   2.551
27134WAT     H281645   4.427   7.136   2.452
27135WAT      O81646   9.628   7.072   6.225
27135WAT     H181647   9.659   7.162   6.253
27135WAT     H281648   9.576   7.030   6.300
27136WAT      O81649   4.353   3.060   9.493
27136WAT     H181650   4.333   3.128   9.422
27136WAT     H281651   4.279   3.060   9.561
27137WAT      O81652   3.629   2.213   4.439
27137WAT     H181653   3.598   2.118   4.445
27137WAT     H281654   3.696   2.231   4.510
27138WAT      O81655   1.051   1.262   3.927
27138WAT     H181656   0.970   1.282   3.872
27138WAT     H281657   1.122   1.329   3.907
27139WAT      O81658   5.921   7.186   6.403
27139WAT     H181659   5.842   7.177   6.343
27139WAT     H281660   5.954   7.281   6.401
27140WAT      O81661   0.705   6.050   6.759
27140WAT     H181662   0.728   6.145   6.738
27140WAT     H281663   0.612   6.030   6.727
27141WAT      O81664   7.337   0.312   0.468
27141WAT     H181665   7.385   0.348   0.387
27141WAT     H281666   7.342   0.379   0.542
27142WAT      O81667   4.980   3.846   9.386
27142WAT     H181668   5.025   3.894   9.461
27142WAT     H281669   4.959   3.911   9.313
27143WAT      O81670   6.992   4.828   4.710
27143WAT     H181671   6.949   4.813   4.799
27143WAT     H281672   6.993   4.743   4.659
27144WAT      O81673   6.968   9.372   7.843
27144WAT     H181674   6.942   9.431   7.920
27144WAT     H281675   6.914   9.397   7.763
27145WAT      O81676   6.451   2.223   3.094
27145WAT     H181677   6.524   2.212   3.162
27145WAT     H281678   6.491   2.237   3.004
27146WAT      O81679   0.703   6.015   7.055
27146WAT     H181680   0.664   6.036   6.965
27146WAT     H281681   0.634   6.031   7.125
27147WAT      O81682   6.197   7.306   2.381
27147WAT     H181683   6.165   7.247   2.307
27147WAT     H281684   6.145   7.287   2.464
27148WAT      O81685   9.363   1.497   9.403
27148WAT     H181686   9.337   1.552   9.483
27148WAT     H281687   9.344   1.400   9.423
27149WAT      O81688   7.721   7.964   2.687
27149WAT     H181689   7.664   8.025   2.632
27149WAT     H281690   7.663   7.915   2.753
27150WAT      O81691   1.135   5.446   1.225
27150WAT     H181692   1.184   5.524   1.187
27150WAT     H281693   1.134   5.452   1.325
27151WAT      O81694   3.480   8.213   2.756
27151WAT     H181695   3.448   8.120   2.742
27151WAT     H281696   3.575   8.221   2.724
27152WAT      O81697   2.247   8.922   9.599
27152WAT     H181698   2.304   8.951   9.676
27152WAT     H281699   2.294   8.848   9.550
27153WAT      O81700   5.512   3.640   4.226
27153WAT     H181701   5.474   3.553   4.194
27153WAT     H281702   5.439   3.696   4.265
27154WAT      O81703   5.545   7.061   7.285
27154WAT     H181704   5.567   7.153   7.252
27154WAT     H281705   5.531   7.000   7.207
27155WAT      O81706   6.579   6.951   0.945
27155WAT     H181707   6.576   7.049   0.931
27155WAT     H281708   6.486   6.913   0.942
27156WAT      O81709   1.207   6.509   1.419
27156WAT     H181710   1.156   6.522   1.504
27156WAT     H281711   1.191   6.586   1.358
27157WAT      O81712   4.835   8.699   2.179
27157WAT     H181713   4.764   8.685   2.109
27157WAT     H281714   4.920   8.655   2.148
27158WAT      O81715   7.320   8.286   3.697
27158WAT     H181716   7.281   8.195   3.691
27158WAT     H281717   7.365   8.309   3.610
27159WAT      O81718   1.346   1.457   0.977
27159WAT     H181719   1.258   1.414   0.996
27159WAT     H281720   1.362   1.458   0.878
27160WAT      O81721   8.738   1.130   7.447
27160WAT     H181722   8.764   1.033   7.446
27160WAT     H281723   8.729   1.161   7.541
27161WAT      O81724   1.494   3.089   3.825
27161WAT     H181725   1.510   3.139   3.911
27161WAT     H281726   1.501   3.153   3.749
27162WAT      O81727   2.271   1.219   8.211
27162WAT     H181728   2.247   1.183   8.301
27162WAT     H281729   2.191   1.264   8.171
27163WAT      O81730   6.373   7.137   0.627
27163WAT     H181731   6.302   7.067   0.619
27163WAT     H281732   6.458   7.103   0.586
27164WAT      O81733   0.820   3.018   8.757
27164WAT     H181734   0.793   3.113   8.776
27164WAT     H281735   0.742   2.968   8.721
27165WAT      O81736   9.393   4.931   6.789
27165WAT     H181737   9.339   4.847   6.780
27165WAT     H281738   9.438   4.932   6.878
27166WAT      O81739   1.283   1.211   9.303
27166WAT     H181740   1.351   1.232   9.232
27166WAT     H281741   1.192   1.237   9.270
27167WAT      O81742   3.799   5.507   7.258
27167WAT     H181743   3.769   5.468   7.171
27167WAT     H281744   3.887   5.552   7.246
27168WAT      O81745   2.368   9.509   4.977
27168WAT     H181746   2.288   9.563   4.952
27168WAT     H281747   2.403   9.462   4.896
27169WAT      O81748   0.583   7.941   0.799
27169WAT     H181749   0.655   7.928   0.867
27169WAT     H281750   0.605   8.020   0.742
27170WAT      O81751   1.951   5.131   1.589
27170WAT     H181752   1.901   5.053   1.549
27170WAT     H281753   1.992   5.103   1.675
27171WAT      O81754   3.870   8.709   3.722
27171WAT     H181755   3.949   8.678   3.670
27171WAT     H281756   3.825   8.785   3.674
27172WAT      O81757   5.565   6.867   9.399
27172WAT     H181758   5.502   6.846   9.474
27172WAT     H281759   5.529   6.942   9.345
27173WAT      O81760   7.373   5.905   9.831
27173WAT     H181761   7.279   5.905   9.866
27173WAT     H281762   7.420   5.822   9.859
27174WAT      O81763   5.117   3.974   0.566
27174WAT     H181764   5.122   4.072   0.552
27174WAT     H281765   5.208   3.934   0.557
27175WAT      O81766   0.819   0.484   6.840
27175WAT     H181767   0.913   0.509   6.865
27175WAT     H281768   0.821   0.432   6.754
27176WAT      O81769   7.780   1.116   0.784
27176WAT     H181770   7.847   1.190   0.776
27176WAT     H281771   7.747   1.092   0.693
27177WAT      O81772   2.244   7.944   8.832
27177WAT     H181773   2.306   7.877   8.872
27177WAT     H281774   2.293   8.001   8.766
27178WAT      O81775   8.241   7.564   4.142
27178WAT     H181776   8.331   7.524   4.124
27178WAT     H281777   8.246   7.663   4.132
27179WAT      O81778   1.340   7.705   4.470
27179WAT     H181779   1.435   7.694   4.440
27179WAT     H281780   1.310   7.799   4.455
27180WAT      O81781   6.596   5.225   2.478
27180WAT     H181782   6.552   5.289   2.416
27180WAT     H281783   6.592   5.133   2.439
27181WAT      O81784   3.000   3.648   4.637
27181WAT     H181785   2.926   3.582   4.637
27181WAT     H281786   3.003   3.696   4.725
27182WAT      O81787   7.715   6.272   1.956
27182WAT     H181788   7.638   6.305   2.010
27182WAT     H281789   7.794   6.331   1.972
27183WAT      O81790   1.711   3.782   9.227
27183WAT     H181791   1.737   3.863   9.175
27183WAT     H281792   1.612   3.767   9.218
27184WAT      O81793   6.957   6.585   0.703
27184WAT     H181794   6.861   6.601   0.726
27184WAT     H281795   7.012   6.662   0.736
27185WAT      O81796   6.460   1.362   1.837
27185WAT     H181797   6.512   1.314   1.767
27185WAT     H281798   6.517   1.376   1.918
27186WAT      O81799   7.762   2.000   9.641
27186WAT     H181800   7.824   1.921   9.641
27186WAT     H281801   7.798   2.071   9.702
27187WAT      O81802   9.817   4.048   0.394
27187WAT     H181803   9.757   3.972   0.373
27187WAT     H281804   9.840   4.047   0.492
27188WAT      O81805   0.450   9.255   6.402
27188WAT     H181806   0.387   9.194   6.451
27188WAT     H281807   0.415   9.349   6.406
27189WAT      O81808   0.084   5.650   8.715
27189WAT     H181809   0.016   5.670   8.644
27189WAT     H281810   0.175   5.647   8.674
27190WAT      O81811   5.730   3.435   9.177
27190WAT     H181812   5.818   3.482   9.170
27190WAT     H281813   5.666   3.493   9.228
27191WAT      O81814   7.665   0.599   0.964
27191WAT     H181815   7.618   0.687   0.961
27191WAT     H281816   7.760   0.613   0.992
27192WAT      O81817   6.788   6.686   2.842
27192WAT     H181818   6.695   6.720   2.833
27192WAT     H281819   6.809   6.626   2.765
27193WAT      O81820   0.002   1.472   3.800
27193WAT     H181821   0.061   1.549   3.777
27193WAT     H281822  -0.070   1.503   3.863
27194WAT      O81823   6.284   9.058   9.336
27194WAT     H181824   6.223   9.108   9.274
27194WAT     H281825   6.340   9.123   9.388
27195WAT      O81826   9.474   7.255   6.080
27195WAT     H181827   9.518   7.260   5.991
27195WAT     H281828   9.507   7.174   6.129
27196WAT      O81829   2.478   7.606   3.044
27196WAT     H181830   2.419   7.598   2.964
27196WAT     H281831   2.510   7.515   3.071
27197WAT      O81832   6.138   8.381   8.956
27197WAT     H181833   6.165   8.369   8.860
27197WAT     H281834   6.215   8.421   9.007
27198WAT      O81835   0.833   4.930   6.200
27198WAT     H181836   0.839   4.853   6.263
27198WAT     H281837   0.915   4.932   6.143
27199WAT      O81838   2.679   9.723   2.831
27199WAT     H181839   2.697   9.820   2.815
27199WAT     H281840   2.766   9.673   2.831
27200WAT      O81841   2.373   1.374   4.204
27200WAT     H181842   2.379   1.401   4.301
27200WAT     H281843   2.458   1.329   4.177
27201WAT      O81844   5.184   3.224   2.116
27201WAT     H181845   5.246   3.181   2.182
27201WAT     H281846   5.217   3.206   2.023
27202WAT      O81847   6.970   2.248   4.777
27202WAT     H181848   6.896   2.309   4.804
27202WAT     H281849   6.979   2.249   4.677
27203WAT      O81850   3.778   2.347   6.906
27203WAT     H181851   3.721   2.370   6.985
27203WAT     H281852   3.835   2.426   6.883
27204WAT      O81853   2.364   1.371   6.235
27204WAT     H181854   2.276   1.366   6.188
27204WAT     H281855   2.376   1.462   6.274
27205WAT      O81856   5.890   1.306   6.019
27205WAT     H181857   5.884   1.391   5.966
27205WAT     H281858   5.850   1.321   6.110
27206WAT      O81859   5.790   7.175   5.152
27206WAT     H181860   5.854   7.220   5.215
27206WAT     H281861   5.731   7.113   5.204
27207WAT      O81862   8.185   1.630   5.833
27207WAT     H181863   8.171   1.713   5.888
27207WAT     H281864   8.241   1.566   5.884
27208WAT      O81865   0.096   5.864   5.354
27208WAT     H181866   0.195   5.866   5.367
27208WAT     H281867   0.059   5.957   5.357
27209WAT      O81868   4.002   1.065   9.800
27209WAT     H181869   3.905   1.087   9.810
27209WAT     H281870   4.034   1.017   9.881
27210WAT      O81871   3.786   4.313   0.675
27210WAT     H181872   3.878   4.344   0.653
27210WAT     H281873   3.789   4.216   0.701
27211WAT      O81874   7.918   9.447   5.381
27211WAT     H181875   7.944   9.356   5.348
27211WAT     H281876   7.835   9.439   5.437
27212WAT      O81877   5.173   6.893   9.441
27212WAT     H181878   5.220   6.817   9.485
27212WAT     H281879   5.199   6.979   9.485
27213WAT      O81880   1.823   9.503   0.219
27213WAT     H181881   1.767   9.471   0.295
27213WAT     H281882   1.912   9.456   0.222
27214WAT      O81883   4.374   8.417   7.713
27214WAT     H181884   4.445   8.355   7.678
27214WAT     H281885   4.351   8.393   7.807
27215WAT      O81886   0.445   5.107   0.879
27215WAT     H181887   0.455   5.205   0.897
27215WAT     H281888   0.388   5.094   0.798
27216WAT      O81889   6.920   8.300   0.143
27216WAT     H181890   6.934   8.326   0.239
27216WAT     H281891   6.999   8.329   0.089
27217WAT      O81892   0.574   1.460   4.626
27217WAT     H181893   0.575   1.383   4.562
27217WAT     H281894   0.559   1.426   4.718
27218WAT      O81895   4.509   6.567   2.031
27218WAT     H181896   4.440   6.502   2.064
27218WAT     H281897   4.523   6.638   2.099
27219WAT      O81898   5.336   0.088   8.016
27219WAT     H181899   5.390   0.130   7.943
27219WAT     H281900   5.397   0.053   8.087
27220WAT      O81901   9.232   5.242   7.823
27220WAT     H181902   9.215   5.265   7.919
27220WAT     H281903   9.148   5.206   7.782
27221WAT      O81904   1.612   4.865   6.157
27221WAT     H181905   1.577   4.941   6.212
27221WAT     H281906   1.589   4.879   6.061
27222WAT      O81907   9.329   1.501   1.122
27222WAT     H181908   9.332   1.488   1.221
27222WAT     H281909   9.315   1.413   1.077
27223WAT      O81910   0.713   2.742   7.344
27223WAT     H181911   0.692   2.645   7.353
27223WAT     H281912   0.665   2.793   7.416
27224WAT      O81913   8.855   2.107   1.306
27224WAT     H181914   8.780   2.149   1.255
27224WAT     H281915   8.935   2.166   1.301
27225WAT      O81916   7.724   0.692   9.653
27225WAT     H181917   7.737   0.763   9.584
27225WAT     H281918   7.750   0.727   9.743
27226WAT      O81919   3.193   8.416   8.167
27226WAT     H181920   3.111   8.367   8.197
27226WAT     H281921   3.226   8.377   8.081
27227WAT      O81922   5.395   6.059   6.404
27227WAT     H181923   5.403   6.024   6.497
27227WAT     H281924   5.299   6.079   6.384
27228WAT      O81925   3.089   9.708   0.705
27228WAT     H181926   3.016   9.640   0.697
27228WAT     H281927   3.172   9.673   0.661
27229WAT      O81928   5.518   5.703   2.564
27229WAT     H181929   5.550   5.660   2.480
27229WAT     H281930   5.586   5.691   2.636
27230WAT      O81931   3.535   3.269   1.553
27230WAT     H181932   3.606   3.239   1.617
27230WAT     H281933   3.486   3.189   1.518
27231WAT      O81934   7.805   7.055   6.100
27231WAT     H181935   7.896   7.021   6.124
27231WAT     H281936   7.813   7.146   6.061
27232WAT      O81937   3.065   0.475   0.355
27232WAT     H181938   3.043   0.404   0.288
27232WAT     H281939   2.997   0.548   0.350
27233WAT      O81940   2.342   0.042   3.331
27233WAT     H181941   2.382  -0.049   3.340
27233WAT     H281942   2.415   0.111   3.335
27234WAT      O81943   1.769   5.206   1.866
27234WAT     H181944   1.736   5.195   1.772
27234WAT     H281945   1.840   5.275   1.869
27235WAT      O81946   7.978   2.841   1.062
27235WAT     H181947   7.897   2.786   1.045
27235WAT     H281948   7.991   2.907   0.988
27236WAT      O81949   2.500   5.167   7.648
27236WAT     H181950   2.471   5.262   7.641
27236WAT     H281951   2.439   5.118   7.710
27237WAT      O81952   4.118   0.691   1.517
27237WAT     H181953   4.156   0.655   1.602
27237WAT     H281954   4.192   0.730   1.462
27238WAT      O81955   0.294   4.639   0.672
27238WAT     H181956   0.235   4.583   0.615
27238WAT     H281957   0.365   4.582   0.713
27239WAT      O81958   2.692   7.083   3.197
27239WAT     H181959   2.760   7.136   3.247
27239WAT     H281960   2.607   7.079   3.251
27240WAT      O81961   2.934   8.998   4.500
27240WAT     H181962   2.860   8.995   4.433
27240WAT     H281963   2.910   8.939   4.578
27241WAT      O81964   7.390   1.362   5.194
27241WAT     H181965   7.328   1.437   5.171
27241WAT     H281966   7.447   1.341   5.115
27242WAT      O81967   3.707   0.972   6.097
27242WAT     H181968   3.610   0.970   6.120
27242WAT     H281969   3.730   0.892   6.042
27243WAT      O81970   6.293   5.285   2.172
27243WAT     H181971   6.291   5.357   2.242
27243WAT     H281972   6.266   5.324   2.084
27244WAT      O81973   0.701   8.632   5.288
27244WAT     H181974   0.758   8.552   5.269
27244WAT     H281975   0.725   8.706   5.225
27245WAT      O81976   4.038   8.188   4.970
27245WAT     H181977   3.958   8.128   4.962
27245WAT     H281978   4.044   8.247   4.890
27246WAT      O81979   8.141   8.778   9.426
27246WAT     H181980   8.186   8.770   9.514
27246WAT     H281981   8.068   8.847   9.431
27247WAT      O81982   8.736   7.632   5.207
27247WAT     H181983   8.828   7.593   5.218
27247WAT     H281984   8.669   7.558   5.204
27248WAT      O81985   8.756   2.049   8.844
27248WAT     H181986   8.726   2.063   8.750
27248WAT     H281987   8.854   2.028   8.845
27249WAT      O81988   2.363   3.926   0.732
27249WAT     H181989   2.414   3.846   0.701
27249WAT     H281990   2.385   3.945   0.828
27250WAT      O81991   6.168   8.520   8.418
27250WAT     H181992   6.186   8.426   8.389
27250WAT     H281993   6.070   8.536   8.422
27251WAT      O81994   7.157   8.148   4.265
27251WAT     H181995   7.200   8.124   4.177
27251WAT     H281996   7.198   8.233   4.299
27252WAT      O81997   8.504   6.575   5.584
27252WAT     H181998   8.444   6.561   5.506
27252WAT     H281999   8.557   6.491   5.601
27253WAT      O82000   9.334   2.765   6.353
27253WAT     H182001   9.403   2.718   6.408
27253WAT     H282002   9.300   2.845   6.403
27254WAT      O82003   5.115   8.219   0.540
27254WAT     H182004   5.192   8.207   0.478
27254WAT     H282005   5.049   8.282   0.499
27255WAT      O82006   0.328   7.316   6.869
27255WAT     H182007   0.307   7.270   6.955
27255WAT     H282008   0.249   7.309   6.807
27256WAT      O82009   8.086   2.809   4.521
27256WAT     H182010   8.055   2.814   4.616
27256WAT     H282011   8.007   2.791   4.461
27257WAT      O82012   5.388   0.070   7.472
27257WAT     H182013   5.306   0.124   7.490
27257WAT     H282014   5.450   0.123   7.414
27258WAT      O82015   5.195   9.292   1.388
27258WAT     H182016   5.159   9.200   1.402
27258WAT     H282017   5.281   9.302   1.438
27259WAT      O82018   9.395   8.663   8.220
27259WAT     H182019   9.423   8.602   8.294
27259WAT     H282020   9.472   8.721   8.195
27260WAT      O82021   5.477   2.714   7.128
27260WAT     H182022   5.443   2.777   7.198
27260WAT     H282023   5.430   2.626   7.137
27261WAT      O82024   3.812   6.510   8.284
27261WAT     H182025   3.872   6.574   8.235
27261WAT     H282026   3.864   6.428   8.307
27262WAT      O82027   5.168   0.286   3.138
27262WAT     H182028   5.087   0.229   3.151
27262WAT     H282029   5.240   0.258   3.201
27263WAT      O82030   5.656   0.505   9.372
27263WAT     H182031   5.707   0.571   9.429
27263WAT     H282032   5.644   0.420   9.422
27264WAT      O82033   8.490   8.061   7.060
27264WAT     H182034   8.453   8.037   6.971
27264WAT     H282035   8.583   8.025   7.068
27265WAT      O82036   2.124   9.175   7.162
27265WAT     H182037   2.186   9.153   7.237
27265WAT     H282038   2.111   9.274   7.158
27266WAT      O82039   0.672   0.724   9.387
27266WAT     H182040   0.772   0.720   9.389
27266WAT     H282041   0.635   0.633   9.370
27267WAT      O82042   5.244   0.253   4.397
27267WAT     H182043   5.176   0.191   4.436
27267WAT     H282044   5.306   0.285   4.469
27268WAT      O82045   6.281   8.593   2.797
27268WAT     H182046   6.286   8.501   2.834
27268WAT     H282047   6.324   8.657   2.861
27269WAT      O82048   3.315   4.450   6.252
27269WAT     H182049   3.313   4.369   6.193
27269WAT     H282050   3.235   4.507   6.234
27270WAT      O82051   2.317   8.328   2.787
27270WAT     H182052   2.244   8.352   2.724
27270WAT     H282053   2.295   8.362   2.879
27271WAT      O82054   8.837   0.344   8.347
27271WAT     H182055   8.908   0.321   8.414
27271WAT     H282056   8.869   0.420   8.291
27272WAT      O82057   5.669   8.189   0.185
27272WAT     H182058   5.677   8.096   0.148
27272WAT     H282059   5.682   8.186   0.285
27273WAT      O82060   5.329   4.208   4.559
27273WAT     H182061   5.420   4.214   4.519
27273WAT     H282062   5.337   4.184   4.656
27274WAT      O82063   2.661   5.709   8.051
27274WAT     H182064   2.644   5.793   8.103
27274WAT     H282065   2.610   5.712   7.965
27275WAT      O82066   4.731   0.891   3.261
27275WAT     H182067   4.782   0.852   3.185
27275WAT     H282068   4.633   0.887   3.241
27276WAT      O82069   3.469   8.568   4.388
27276WAT     H182070   3.530   8.579   4.466
27276WAT     H282071   3.519   8.529   4.311
27277WAT      O82072   0.224   1.984   7.151
27277WAT     H182073   0.141   1.966   7.204
27277WAT     H282074   0.293   2.024   7.210
27278WAT      O82075   8.967   8.062   9.594
27278WAT     H182076   9.032   8.035   9.523
27278WAT     H282077   8.878   8.020   9.577
27279WAT      O82078   8.989   6.305   7.625
27279WAT     H182079   8.943   6.377   7.678
27279WAT     H282080   9.041   6.246   7.687
27280WAT      O82081   6.351   6.026   8.098
27280WAT     H182082   6.401   6.110   8.080
27280WAT     H282083   6.365   5.961   8.024
27281WAT      O82084   2.418   5.067   1.387
27281WAT     H182085   2.320   5.085   1.377
27281WAT     H282086   2.450   5.014   1.309
27282WAT      O82087   3.208   6.716   9.429
27282WAT     H182088   3.298   6.720   9.387
27282WAT     H282089   3.200   6.788   9.497
27283WAT      O82090   7.756   4.527   9.716
27283WAT     H182091   7.713   4.582   9.644
27283WAT     H282092   7.742   4.571   9.804
27284WAT      O82093   0.596   0.538   5.981
27284WAT     H182094   0.646   0.485   5.913
27284WAT     H282095   0.645   0.623   6.001
27285WAT      O82096   4.863   0.889   1.380
27285WAT     H182097   4.914   0.840   1.309
27285WAT     H282098   4.823   0.824   1.444
27286WAT      O82099   6.499   8.336   3.373
27286WAT     H182100   6.408   8.294   3.380
27286WAT     H282101   6.567   8.265   3.354
27287WAT      O82102   5.693   3.305   6.288
27287WAT     H182103   5.716   3.328   6.382
27287WAT     H282104   5.599   3.334   6.269
27288WAT      O82105   4.597   0.936   9.075
27288WAT     H182106   4.635   0.849   9.042
27288WAT     H282107   4.497   0.932   9.073
27289WAT      O82108   8.098   5.573   7.809
27289WAT     H182109   8.055   5.494   7.853
27289WAT     H282110   8.031   5.645   7.798
27290WAT      O82111   6.321   1.782   2.436
27290WAT     H182112   6.324   1.759   2.533
27290WAT     H282113   6.288   1.876   2.426
27291WAT      O82114   0.820   1.884   5.261
27291WAT     H182115   0.882   1.807   5.275
27291WAT     H282116   0.732   1.864   5.303
27292WAT      O82117   9.887   3.532   6.994
27292WAT     H182118   9.947   3.520   6.914
27292WAT     H282119   9.806   3.475   6.984
27293WAT      O82120   4.617   5.702   0.261
27293WAT     H182121   4.557   5.698   0.181
27293WAT     H282122   4.692   5.637   0.248
27294WAT      O82123   4.934   3.404   4.538
27294WAT     H182124   4.883   3.425   4.621
27294WAT     H282125   4.895   3.455   4.461
27295WAT      O82126   3.811   3.995   7.047
27295WAT     H182127   3.903   4.013   7.081
27295WAT     H282128   3.816   3.959   6.954
27296WAT      O82129   7.098   3.204   1.039
27296WAT     H182130   7.168   3.251   1.093
27296WAT     H282131   7.138   3.127   0.991
27297WAT      O82132   2.671   4.628   7.081
27297WAT     H182133   2.639   4.549   7.030
27297WAT     H282134   2.707   4.696   7.017
27298WAT      O82135   9.483   3.527   2.190
27298WAT     H182136   9.418   3.454   2.212
27298WAT     H282137   9.434   3.613   2.177
27299WAT      O82138   9.721   4.064   8.134
27299WAT     H182139   9.820   4.068   8.123
27299WAT     H282140   9.684   4.156   8.135
27300WAT      O82141   5.966   4.438   0.884
27300WAT     H182142   6.037   4.382   0.841
27300WAT     H282143   5.949   4.405   0.977
27301WAT      O82144   3.547   4.164   1.550
27301WAT     H182145   3.615   4.211   1.495
27301WAT     H282146   3.583   4.076   1.580
27302WAT      O82147   4.992   6.001   3.597
27302WAT     H182148   5.002   5.946   3.515
27302WAT     H282149   5.082   6.036   3.625
27303WAT      O82150   0.688   7.525   8.839
27303WAT     H182151   0.658   7.591   8.770
27303WAT     H282152   0.779   7.551   8.871
27304WAT      O82153   7.982   3.185   5.155
27304WAT     H182154   8.054   3.152   5.215
27304WAT     H282155   7.893   3.162   5.193
27305WAT      O82156   9.682   8.161   4.650
27305WAT     H182157   9.721   8.185   4.739
27305WAT     H282158   9.738   8.200   4.577
27306WAT      O82159   7.879   0.133   8.005
27306WAT     H182160   7.970   0.140   8.046
27306WAT     H282161   7.815   0.190   8.057
27307WAT      O82162   8.620   2.744   9.732
27307WAT     H182163   8.576   2.702   9.811
27307WAT     H282164   8.587   2.838   9.721
27308WAT      O82165   2.544   6.566   1.564
27308WAT     H182166   2.506   6.479   1.595
27308WAT     H282167   2.643   6.560   1.561
27309WAT      O82168   0.894   6.841   0.776
27309WAT     H182169   0.883   6.745   0.802
27309WAT     H282170   0.975   6.879   0.820
27310WAT      O82171   2.803   3.246   6.837
27310WAT     H182172   2.712   3.218   6.809
27310WAT     H282173   2.865   3.241   6.759
27311WAT      O82174   2.060   4.484   2.025
27311WAT     H182175   2.003   4.559   1.993
27311WAT     H282176   2.038   4.401   1.975
27312WAT      O82177   5.284   3.412   1.363
27312WAT     H182178   5.190   3.398   1.332
27312WAT     H282179   5.284   3.471   1.444
27313WAT      O82180   0.150   0.542   8.800
27313WAT     H182181   0.054   0.544   8.827
27313WAT     H282182   0.203   0.604   8.857
27314WAT      O82183   3.084   2.155   5.227
27314WAT     H182184   3.017   2.223   5.254
27314WAT     H282185   3.176   2.187   5.250
27315WAT      O82186   8.520   5.182   3.686
27315WAT     H182187   8.611   5.217   3.709
27315WAT     H282188   8.516   5.163   3.587
27316WAT      O82189   0.600   7.334   3.262
27316WAT     H182190   0.693   7.315   3.292
27316WAT     H282191   0.551   7.247   3.247
27317WAT      O82192   2.655   1.742   0.222
27317WAT     H182193   2.671   1.804   0.145
27317WAT     H282194   2.600   1.789   0.292
27318WAT      O82195   3.859   4.852   4.150
27318WAT     H182196   3.807   4.936   4.143
27318WAT     H282197   3.938   4.866   4.210
27319WAT      O82198   5.688   0.888   7.840
27319WAT     H182199   5.680   0.975   7.888
27319WAT     H282200   5.599   0.842   7.840
27320WAT      O82201   0.722   7.136   2.356
27320WAT     H182202   0.660   7.083   2.299
27320WAT     H282203   0.801   7.166   2.302
27321WAT      O82204   7.410   2.590   5.119
27321WAT     H182205   7.483   2.521   5.126
27321WAT     H282206   7.444   2.676   5.156
27322WAT      O82207   4.482   7.842   9.661
27322WAT     H182208   4.564   7.893   9.688
27322WAT     H282209   4.424   7.828   9.741
27323WAT      O82210   8.522   7.195   5.891
27323WAT     H182211   8.535   7.124   5.960
27323WAT     H282212   8.569   7.169   5.806
27324WAT      O82213   2.650   8.288   8.809
27324WAT     H182214   2.641   8.387   8.807
27324WAT     H282215   2.667   8.254   8.717
27325WAT      O82216   0.845   5.316   8.602
27325WAT     H182217   0.806   5.248   8.540
27325WAT     H282218   0.866   5.399   8.550
27326WAT      O82219   2.497   8.532   7.560
27326WAT     H182220   2.575   8.593   7.568
27326WAT     H282221   2.426   8.574   7.504
27327WAT      O82222   7.421   9.030   7.830
27327WAT     H182223   7.487   9.061   7.762
27327WAT     H282224   7.332   9.015   7.787
27328WAT      O82225   7.414   0.941   2.169
27328WAT     H182226   7.404   0.977   2.262
27328WAT     H282227   7.508   0.911   2.156
27329WAT      O82228   1.339   3.058   6.299
27329WAT     H182229   1.390   3.107   6.370
27329WAT     H282230   1.299   2.975   6.338
27330WAT      O82231   8.745   0.913   5.220
27330WAT     H182232   8.722   0.932   5.315
27330WAT     H282233   8.789   0.993   5.180
27331WAT      O82234   8.007   9.355   9.758
27331WAT     H182235   7.923   9.372   9.810
27331WAT     H282236   8.078   9.419   9.788
27332WAT      O82237   8.814   9.737   7.802
27332WAT     H182238   8.849   9.729   7.709
27332WAT     H282239   8.763   9.822   7.812
27333WAT      O82240   5.979   1.194   0.998
27333WAT     H182241   5.940   1.129   0.932
27333WAT     H282242   5.929   1.280   0.995
27334WAT      O82243   3.128   6.802   7.149
27334WAT     H182244   3.101   6.706   7.136
27334WAT     H282245   3.227   6.807   7.162
27335WAT      O82246   7.093   9.310   4.733
27335WAT     H182247   7.026   9.338   4.800
27335WAT     H282248   7.060   9.230   4.683
27336WAT      O82249   3.474   7.953   7.071
27336WAT     H182250   3.555   7.921   7.119
27336WAT     H282251   3.427   7.875   7.028
27337WAT      O82252   2.762   6.186   6.634
27337WAT     H182253   2.757   6.104   6.578
27337WAT     H282254   2.728   6.167   6.725
27338WAT      O82255   0.855   7.317   3.681
27338WAT     H182256   0.848   7.372   3.764
27338WAT     H282257   0.932   7.348   3.626
27339WAT      O82258   5.557   3.152   0.585
27339WAT     H182259   5.638   3.128   0.532
27339WAT     H282260   5.535   3.078   0.648
27340WAT      O82261   5.331   1.067   4.747
27340WAT     H182262   5.403   1.028   4.689
27340WAT     H282263   5.371   1.098   4.833
27341WAT      O82264   0.481   0.031   8.754
27341WAT     H182265   0.539   0.080   8.819
27341WAT     H282266   0.514  -0.063   8.742
27342WAT      O82267   5.851   7.582   1.959
27342WAT     H182268   5.803   7.669   1.962
27342WAT     H282269   5.918   7.583   1.885
27343WAT      O82270   0.236   2.355   0.876
27343WAT     H182271   0.270   2.296   0.803
27343WAT     H282272   0.198   2.439   0.835
27344WAT      O82273   5.376   4.954   9.715
27344WAT     H182274   5.348   5.027   9.777
27344WAT     H282275   5.458   4.981   9.665
27345WAT      O82276   8.749   1.250   5.663
27345WAT     H182277   8.817   1.264   5.734
27345WAT     H282278   8.760   1.158   5.624
27346WAT      O82279   2.022   0.475   5.292
27346WAT     H182280   2.050   0.381   5.312
27346WAT     H282281   2.099   0.525   5.252
27347WAT      O82282   2.221   9.099   2.490
27347WAT     H182283   2.278   9.133   2.564
27347WAT     H282284   2.268   9.112   2.402
27348WAT      O82285   5.720   3.026   4.564
27348WAT     H182286   5.785   3.073   4.505
27348WAT     H282287   5.765   2.999   4.649
27349WAT      O82288   7.963   6.414   7.701
27349WAT     H182289   8.040   6.478   7.697
27349WAT     H282290   7.883   6.461   7.738
27350WAT      O82291   1.623   3.408   7.521
27350WAT     H182292   1.537   3.390   7.473
27350WAT     H282293   1.676   3.476   7.470
27351WAT      O82294   6.109   0.510   4.661
27351WAT     H182295   6.100   0.550   4.570
27351WAT     H282296   6.193   0.543   4.704
27352WAT      O82297   6.950   0.788   9.434
27352WAT     H182298   7.008   0.827   9.506
27352WAT     H282299   6.857   0.775   9.470
27353WAT      O82300   3.213   6.838   5.676
27353WAT     H182301   3.181   6.915   5.732
27353WAT     H282302   3.234   6.871   5.584
27354WAT      O82303   1.116   6.698   1.081
27354WAT     H182304   1.180   6.728   1.151
27354WAT     H282305   1.025   6.685   1.121
27355WAT      O82306   9.725   2.064   7.912
27355WAT     H182307   9.775   2.109   7.987
27355WAT     H282308   9.693   2.133   7.848
27356WAT      O82309   0.162   6.593   2.889
27356WAT     H182310   0.233   6.553   2.947
27356WAT     H282311   0.189   6.686   2.863
27357WAT      O82312   6.707   6.167   9.690
27357WAT     H182313   6.620   6.200   9.725
27357WAT     H282314   6.691   6.090   9.628
27358WAT      O82315   8.658   1.515   4.674
27358WAT     H182316   8.613   1.576   4.740
27358WAT     H282317   8.689   1.569   4.595
27359WAT      O82318   7.308   0.582   6.589
27359WAT     H182319   7.223   0.570   6.641
27359WAT     H282320   7.307   0.523   6.509
27360WAT      O82321   4.120   8.453   4.770
27360WAT     H182322   4.025   8.477   4.790
27360WAT     H282323   4.124   8.399   4.686
27361WAT      O82324   9.723   4.454   5.040
27361WAT     H182325   9.752   4.414   5.127
27361WAT     H282326   9.638   4.411   5.010
27362WAT      O82327   7.762   4.940   7.210
27362WAT     H182328   7.802   5.028   7.238
27362WAT     H282329   7.758   4.879   7.289
27363WAT      O82330   0.015   7.612   2.467
27363WAT     H182331   0.113   7.630   2.475
27363WAT     H282332  -0.028   7.685   2.413
27364WAT      O82333   0.494   2.738   5.798
27364WAT     H182334   0.454   2.654   5.761
27364WAT     H282335   0.573   2.765   5.744
27365WAT      O82336   6.884   6.873   4.725
27365WAT     H182337   6.979   6.892   4.750
27365WAT     H282338   6.857   6.929   4.647
27366WAT      O82339   1.437   3.798   8.347
27366WAT     H182340   1.456   3.806   8.445
27366WAT     H282341   1.425   3.701   8.323
27367WAT      O82342   2.045   5.014   5.019
27367WAT     H182343   2.045   4.918   4.991
27367WAT     H282344   1.977   5.065   4.965
27368WAT      O82345   7.670   6.813   5.476
27368WAT     H182346   7.658   6.715   5.457
27368WAT     H282347   7.767   6.837   5.469
27369WAT      O82348   1.375   0.511   1.509
27369WAT     H182349   1.322   0.432   1.541
27369WAT     H282350   1.468   0.505   1.545
27370WAT      O82351   2.022   3.781   6.865
27370WAT     H182352   2.031   3.727   6.781
27370WAT     H282353   2.033   3.721   6.944
27371WAT      O82354   6.021   5.950   5.821
27371WAT     H182355   5.983   5.900   5.744
27371WAT     H282356   5.995   5.905   5.906
27372WAT      O82357   4.405   6.090   0.674
27372WAT     H182358   4.406   6.176   0.726
27372WAT     H282359   4.457   6.020   0.723
27373WAT      O82360   6.622   3.110   5.368
27373WAT     H182361   6.650   3.193   5.417
27373WAT     H282362   6.523   3.101   5.371
27374WAT      O82363   0.366   1.464   2.651
27374WAT     H182364   0.303   1.537   2.622
27374WAT     H282365   0.321   1.375   2.639
27375WAT      O82366   4.052   4.437   4.042
27375WAT     H182367   4.024   4.529   4.014
27375WAT     H282368   3.974   4.391   4.085
27376WAT      O82369   2.997   1.453   3.635
27376WAT     H182370   2.978   1.439   3.537
27376WAT     H282371   2.958   1.539   3.665
27377WAT      O82372   6.877   0.792   0.276
27377WAT     H182373   6.865   0.731   0.197
27377WAT     H282374   6.788   0.823   0.309
27378WAT      O82375   1.559   1.193   2.172
27378WAT     H182376   1.602   1.158   2.089
27378WAT     H282377   1.624   1.187   2.248
27379WAT      O82378   3.252   0.338   7.196
27379WAT     H182379   3.247   0.393   7.113
27379WAT     H282380   3.176   0.360   7.256
27380WAT      O82381   1.633   9.582   3.043
27380WAT     H182382   1.671   9.500   3.002
27380WAT     H282383   1.700   9.656   3.037
27381WAT      O82384   2.442   8.686   2.303
27381WAT     H182385   2.342   8.679   2.302
27381WAT     H282386   2.468   8.777   2.335
27382WAT      O82387   6.190   7.437   1.224
27382WAT     H182388   6.094   7.456   1.203
27382WAT     H282389   6.232   7.518   1.266
27383WAT      O82390   3.790   3.763   8.704
27383WAT     H182391   3.811   3.860   8.716
27383WAT     H282392   3.752   3.727   8.788
27384WAT      O82393   1.657   8.414   2.578
27384WAT     H182394   1.724   8.440   2.648
27384WAT     H282395   1.583   8.362   2.621
27385WAT      O82396   8.454   4.698   2.217
27385WAT     H182397   8.521   4.755   2.263
27385WAT     H282398   8.375   4.753   2.189
27386WAT      O82399   2.146   6.330   3.129
27386WAT     H182400   2.227   6.326   3.071
27386WAT     H282401   2.154   6.409   3.190
27387WAT      O82402   4.083   5.761   5.456
27387WAT     H182403   4.059   5.673   5.415
27387WAT     H282404   4.095   5.829   5.383
27388WAT      O82405   5.241   8.068   2.874
27388WAT     H182406   5.247   8.168   2.873
27388WAT     H282407   5.195   8.038   2.957
27389WAT      O82408   3.438   0.516   8.015
27389WAT     H182409   3.515   0.577   8.033
27389WAT     H282410   3.432   0.497   7.917
27390WAT      O82411   2.634   1.492   6.357
27390WAT     H182412   2.612   1.415   6.297
27390WAT     H282413   2.664   1.457   6.446
27391WAT      O82414   7.019   0.567   8.677
27391WAT     H182415   6.927   0.588   8.711
27391WAT     H282416   7.034   0.614   8.590
27392WAT      O82417   0.474   1.374   4.196
27392WAT     H182418   0.506   1.448   4.138
27392WAT     H282419   0.377   1.358   4.179
27393WAT      O82420   9.229   2.103   5.860
27393WAT     H182421   9.275   2.043   5.795
27393WAT     H282422   9.203   2.189   5.815
27394WAT      O82423   7.468   8.633   0.306
27394WAT     H182424   7.505   8.584   0.227
27394WAT     H282425   7.495   8.586   0.390
27395WAT      O82426   1.520   7.448   2.365
27395WAT     H182427   1.492   7.358   2.333
27395WAT     H282428   1.616   7.446   2.392
27396WAT      O82429   3.680   8.347   9.095
27396WAT     H182430   3.776   8.350   9.068
27396WAT     H282431   3.630   8.284   9.035
27397WAT      O82432   9.224   4.259   1.142
27397WAT     H182433   9.151   4.328   1.135
27397WAT     H282434   9.289   4.286   1.212
27398WAT      O82435   1.089   7.128   9.766
27398WAT     H182436   1.002   7.149   9.810
27398WAT     H282437   1.079   7.046   9.710
27399WAT      O82438   9.861   4.179   6.149
27399WAT     H182439   9.780   4.123   6.165
27399WAT     H282440   9.919   4.178   6.230
27400WAT      O82441   0.126   0.691   6.522
27400WAT     H182442   0.091   0.776   6.483
27400WAT     H282443   0.226   0.697   6.530
27401WAT      O82444   8.860   1.617   8.797
27401WAT     H182445   8.812   1.529   8.803
27401WAT     H282446   8.835   1.663   8.712
27402WAT      O82447   4.692   2.680   5.107
27402WAT     H182448   4.594   2.698   5.097
27402WAT     H282449   4.737   2.762   5.143
27403WAT      O82450   9.729   6.088   9.150
27403WAT     H182451   9.767   5.998   9.131
27403WAT     H282452   9.686   6.088   9.240
27404WAT      O82453   3.262   3.434   6.500
27404WAT     H182454   3.295   3.528   6.508
27404WAT     H282455   3.277   3.386   6.587
27405WAT      O82456   2.773   0.132   6.751
27405WAT     H182457   2.733   0.195   6.684
27405WAT     H282458   2.851   0.176   6.795
27406WAT      O82459   1.803   6.422   6.799
27406WAT     H182460   1.808   6.508   6.747
27406WAT     H282461   1.763   6.440   6.889
27407WAT      O82462   6.048   7.812   8.939
27407WAT     H182463   5.950   7.833   8.935
27407WAT     H282464   6.094   7.855   8.861
27408WAT      O82465   3.905   0.461   8.483
27408WAT     H182466   3.901   0.521   8.403
27408WAT     H282467   3.813   0.424   8.501
27409WAT      O82468   5.291   7.259   4.141
27409WAT     H182469   5.388   7.244   4.122
27409WAT     H282470   5.267   7.355   4.128
27410WAT      O82471   5.896   6.527   6.442
27410WAT     H182472   5.991   6.558   6.445
27410WAT     H282473   5.864   6.508   6.535
27411WAT      O82474   0.464   0.758   9.780
27411WAT     H182475   0.487   0.757   9.877
27411WAT     H282476   0.372   0.797   9.768
27412WAT      O82477   6.921   7.191   5.683
27412WAT     H182478   7.018   7.214   5.690
27412WAT     H282479   6.911   7.092   5.672
27413WAT      O82480   0.127   9.117   2.189
27413WAT     H182481   0.104   9.076   2.277
27413WAT     H282482   0.075   9.201   2.177
27414WAT      O82483   3.442   0.823   9.841
27414WAT     H182484   3.371   0.790   9.902
27414WAT     H282485   3.416   0.807   9.746
27415WAT      O82486   1.022   2.699   6.685
27415WAT     H182487   0.956   2.748   6.628
27415WAT     H282488   1.003   2.717   6.781
27416WAT      O82489   1.888   1.550   7.754
27416WAT     H182490   1.910   1.631   7.699
27416WAT     H282491   1.893   1.573   7.851
27417WAT      O82492   0.601   7.862   3.337
27417WAT     H182493   0.598   7.820   3.428
27417WAT     H282494   0.683   7.919   3.330
27418WAT      O82495   1.992   6.543   6.209
27418WAT     H182496   1.957   6.492   6.131
27418WAT     H282497   2.091   6.531   6.216
27419WAT      O82498   9.271   1.025   0.372
27419WAT     H182499   9.280   1.018   0.272
27419WAT     H282500   9.304   1.114   0.402
27420WAT      O82501   4.032   1.735   5.391
27420WAT     H182502   4.110   1.696   5.342
27420WAT     H282503   4.043   1.721   5.489
27421WAT      O82504   1.819   1.809   6.539
27421WAT     H182505   1.873   1.893   6.534
27421WAT     H282506   1.775   1.792   6.451
27422WAT      O82507   7.745   0.552   4.067
27422WAT     H182508   7.765   0.530   3.971
27422WAT     H282509   7.685   0.482   4.105
27423WAT      O82510   1.354   5.562   0.883
27423WAT     H182511   1.432   5.549   0.822
27423WAT     H282512   1.270   5.575   0.829
27424WAT      O82513   8.880   5.046   9.479
27424WAT     H182514   8.842   5.078   9.392
27424WAT     H282515   8.847   5.104   9.554
27425WAT      O82516   0.897   2.864   4.079
27425WAT     H182517   0.829   2.932   4.050
27425WAT     H282518   0.956   2.841   4.002
27426WAT      O82519   2.028   8.047   8.977
27426WAT     H182520   2.055   7.999   9.061
27426WAT     H282521   2.103   8.041   8.910
27427WAT      O82522   5.187   1.818   8.139
27427WAT     H182523   5.258   1.806   8.208
27427WAT     H282524   5.103   1.852   8.181
27428WAT      O82525   4.075   8.487   4.118
27428WAT     H182526   4.105   8.522   4.207
27428WAT     H282527   3.989   8.436   4.130
27429WAT      O82528   5.950   7.579   5.711
27429WAT     H182529   5.972   7.667   5.753
27429WAT     H282530   5.901   7.593   5.625
27430WAT      O82531   1.837   6.709   9.681
27430WAT     H182532   1.789   6.758   9.754
27430WAT     H282533   1.810   6.613   9.681
27431WAT      O82534   5.286   7.897   5.164
27431WAT     H182535   5.248   7.972   5.219
27431WAT     H282536   5.247   7.900   5.072
27432WAT      O82537   2.604   7.862   1.288
27432WAT     H182538   2.577   7.784   1.345
27432WAT     H282539   2.565   7.852   1.197
27433WAT      O82540   5.682   4.052   1.129
27433WAT     H182541   5.688   3.990   1.207
27433WAT     H282542   5.772   4.062   1.087
27434WAT      O82543   4.765   5.265   0.776
27434WAT     H182544   4.809   5.234   0.692
27434WAT     H282545   4.757   5.189   0.840
27435WAT      O82546   0.976   8.901   2.672
27435WAT     H182547   0.927   8.862   2.750
27435WAT     H282548   1.070   8.921   2.699
27436WAT      O82549   6.384   4.923   3.592
27436WAT     H182550   6.295   4.920   3.548
27436WAT     H282551   6.374   4.905   3.690
27437WAT      O82552   3.309   7.676   1.056
27437WAT     H182553   3.377   7.603   1.060
27437WAT     H282554   3.355   7.764   1.043
27438WAT      O82555   5.178   0.528   3.512
27438WAT     H182556   5.274   0.513   3.485
27438WAT     H282557   5.166   0.497   3.607
27439WAT      O82558   7.085   5.840   1.537
27439WAT     H182559   7.173   5.882   1.558
27439WAT     H282560   7.090   5.742   1.557
27440WAT      O82561   5.050   2.654   1.173
27440WAT     H182562   5.002   2.675   1.088
27440WAT     H282563   5.106   2.733   1.199
27441WAT      O82564   2.267   2.347   5.063
27441WAT     H182565   2.279   2.350   4.964
27441WAT     H282566   2.282   2.254   5.096
27442WAT      O82567   9.048   8.652   6.022
27442WAT     H182568   9.110   8.707   6.077
27442WAT     H282569   9.002   8.585   6.081
27443WAT      O82570   8.872   7.567   8.236
27443WAT     H182571   8.881   7.471   8.213
27443WAT     H282572   8.870   7.578   8.336
27444WAT      O82573   2.349   8.090   7.350
27444WAT     H182574   2.414   8.166   7.352
27444WAT     H282575   2.256   8.126   7.356
27445WAT      O82576   0.055   1.354   1.763
27445WAT     H182577   0.026   1.355   1.667
27445WAT     H282578   0.102   1.440   1.784
27446WAT      O82579   4.171   2.468   0.153
27446WAT     H182580   4.196   2.397   0.088
27446WAT     H282581   4.107   2.430   0.220
27447WAT      O82582   4.044   9.371   6.230
27447WAT     H182583   4.032   9.448   6.293
27447WAT     H282584   4.026   9.285   6.280
27448WAT      O82585   6.361   0.052   9.235
27448WAT     H182586   6.280   0.104   9.260
27448WAT     H282587   6.396   0.004   9.315
27449WAT      O82588   1.844   8.316   3.241
27449WAT     H182589   1.897   8.242   3.282
27449WAT     H282590   1.864   8.402   3.290
27450WAT      O82591   8.673   7.061   0.386
27450WAT     H182592   8.665   7.134   0.454
27450WAT     H282593   8.699   7.100   0.298
27451WAT      O82594   1.356   9.492   6.673
27451WAT     H182595   1.417   9.565   6.643
27451WAT     H282596   1.279   9.484   6.609
27452WAT      O82597   1.792   9.353   6.245
27452WAT     H182598   1.771   9.272   6.189
27452WAT     H282599   1.880   9.339   6.292
27453WAT      O82600   2.957   8.777   4.687
27453WAT     H182601   2.882   8.768   4.753
27453WAT     H282602   3.028   8.837   4.724
27454WAT      O82603   6.381   5.801   5.940
27454WAT     H182604   6.374   5.892   5.900
27454WAT     H282605   6.427   5.739   5.876
27455WAT      O82606   5.149   0.031   2.922
27455WAT     H182607   5.052   0.040   2.899
27455WAT     H282608   5.159   0.025   3.021
27456WAT      O82609   9.138   7.130   5.984
27456WAT     H182610   9.165   7.134   6.081
27456WAT     H282611   9.039   7.118   5.977
27457WAT      O82612   0.967   8.051   2.934
27457WAT     H182613   0.923   7.963   2.947
27457WAT     H282614   0.897   8.121   2.918
27458WAT      O82615   2.770   3.587   0.399
27458WAT     H182616   2.824   3.606   0.482
27458WAT     H282617   2.747   3.490   0.396
27459WAT      O82618   6.319   5.559   1.445
27459WAT     H182619   6.325   5.491   1.518
27459WAT     H282620   6.355   5.521   1.360
27460WAT      O82621   8.298   7.361   3.099
27460WAT     H182622   8.375   7.425   3.107
27460WAT     H282623   8.212   7.411   3.109
27461WAT      O82624   7.995   1.630   2.416
27461WAT     H182625   7.964   1.543   2.379
27461WAT     H282626   7.987   1.629   2.515
27462WAT      O82627   3.377   4.763   6.522
27462WAT     H182628   3.441   4.701   6.477
27462WAT     H282629   3.367   4.738   6.618
27463WAT      O82630   2.870   1.917   1.743
27463WAT     H182631   2.774   1.938   1.763
27463WAT     H282632   2.875   1.852   1.667
27464WAT      O82633   9.508   5.380   2.932
27464WAT     H182634   9.530   5.289   2.968
27464WAT     H282635   9.528   5.448   3.003
27465WAT      O82636   5.219   2.144   8.019
27465WAT     H182637   5.253   2.162   7.927
27465WAT     H282638   5.293   2.109   8.077
27466WAT      O82639   6.746   6.651   4.653
27466WAT     H182640   6.725   6.656   4.555
27466WAT     H282641   6.790   6.735   4.682
27467WAT      O82642   9.236   4.413   9.583
27467WAT     H182643   9.197   4.505   9.587
27467WAT     H282644   9.280   4.392   9.671
27468WAT      O82645   0.451   2.853   2.020
27468WAT     H182646   0.500   2.916   1.959
27468WAT     H282647   0.429   2.769   1.970
27469WAT      O82648   5.432   9.671   7.588
27469WAT     H182649   5.378   9.669   7.672
27469WAT     H282650   5.429   9.764   7.550
27470WAT      O82651   7.662   0.022   3.890
27470WAT     H182652   7.742  -0.033   3.916
27470WAT     H282653   7.649   0.094   3.958
27471WAT      O82654   0.258   1.242   5.150
27471WAT     H182655   0.333   1.208   5.092
27471WAT     H282656   0.294   1.265   5.240
27472WAT      O82657   7.942   9.751   0.642
27472WAT     H182658   7.889   9.775   0.561
27472WAT     H282659   8.030   9.799   0.640
27473WAT      O82660   2.869   0.830   8.700
27473WAT     H182661   2.769   0.824   8.695
27473WAT     H282662   2.909   0.774   8.628
27474WAT      O82663   3.288   7.259   4.812
27474WAT     H182664   3.246   7.196   4.746
27474WAT     H282665   3.332   7.206   4.884
27475WAT      O82666   5.155   7.252   8.120
27475WAT     H182667   5.099   7.203   8.053
27475WAT     H282668   5.226   7.304   8.073
27476WAT      O82669   8.647   1.761   1.592
27476WAT     H182670   8.725   1.796   1.541
27476WAT     H282671   8.627   1.667   1.563
27477WAT      O82672   4.450   6.595   8.594
27477WAT     H182673   4.513   6.540   8.650
27477WAT     H282674   4.356   6.568   8.614
27478WAT      O82675   7.849   7.857   1.783
27478WAT     H182676   7.751   7.866   1.798
27478WAT     H282677   7.890   7.804   1.857
27479WAT      O82678   1.948   3.335   8.096
27479WAT     H182679   1.875   3.279   8.057
27479WAT     H282680   1.910   3.422   8.128
27480WAT      O82681   2.164   1.798   7.637
27480WAT     H182682   2.071   1.784   7.602
27480WAT     H282683   2.229   1.795   7.561
27481WAT      O82684   2.231   9.726   6.610
27481WAT     H182685   2.158   9.747   6.676
27481WAT     H282686   2.320   9.737   6.654
27482WAT      O82687   7.270   1.291   7.793
27482WAT     H182688   7.327   1.241   7.858
27482WAT     H282689   7.187   1.239   7.774
27483WAT      O82690   3.950   8.544   9.650
27483WAT     H182691   4.036   8.551   9.599
27483WAT     H282692   3.960   8.592   9.738
27484WAT      O82693   8.679   7.835   2.407
27484WAT     H182694   8.640   7.753   2.365
27484WAT     H282695   8.612   7.909   2.402
27485WAT      O82696   1.033   7.119   2.950
27485WAT     H182697   1.034   7.101   2.852
27485WAT     H282698   1.098   7.059   2.995
27486WAT      O82699   4.376   7.765   7.871
27486WAT     H182700   4.298   7.808   7.916
27486WAT     H282701   4.363   7.768   7.772
27487WAT      O82702   3.531   9.795   9.251
27487WAT     H182703   3.616   9.847   9.256
27487WAT     H282704   3.550   9.703   9.217
27488WAT      O82705   3.401   8.425   0.049
27488WAT     H182706   3.410   8.417   0.149
27488WAT     H282707   3.425   8.338   0.007
27489WAT      O82708   0.084   3.060   1.780
27489WAT     H182709   0.078   2.987   1.712
27489WAT     H282710   0.175   3.059   1.821
27490WAT      O82711   5.213   9.787   7.321
27490WAT     H182712   5.168   9.873   7.295
27490WAT     H282713   5.282   9.806   7.391
27491WAT      O82714   1.838   1.627   0.114
27491WAT     H182715   1.921   1.579   0.086
27491WAT     H282716   1.764   1.560   0.124
27492WAT      O82717   9.342   8.992   6.953
27492WAT     H182718   9.354   8.967   7.049
27492WAT     H282719   9.400   9.070   6.931
27493WAT      O82720   7.387   8.265   6.637
27493WAT     H182721   7.447   8.241   6.713
27493WAT     H282722   7.371   8.364   6.637
27494WAT      O82723   1.658   8.684   2.508
27494WAT     H182724   1.575   8.707   2.457
27494WAT     H282725   1.659   8.585   2.527
27495WAT      O82726   3.913   0.569   8.006
27495WAT     H182727   4.010   0.593   8.004
27495WAT     H282728   3.891   0.508   7.929
27496WAT      O82729   5.707   9.406   9.647
27496WAT     H182730   5.608   9.419   9.659
27496WAT     H282731   5.743   9.478   9.587
27497WAT      O82732   3.450   9.542   8.477
27497WAT     H182733   3.460   9.619   8.414
27497WAT     H282734   3.445   9.456   8.426
27498WAT      O82735   9.299   6.140   5.057
27498WAT     H182736   9.319   6.235   5.036
27498WAT     H282737   9.332   6.082   4.982
27499WAT      O82738   8.156   8.782   2.208
27499WAT     H182739   8.178   8.765   2.304
27499WAT     H282740   8.156   8.695   2.158
27500WAT      O82741   7.272   7.467   3.202
27500WAT     H182742   7.325   7.384   3.189
27500WAT     H282743   7.275   7.522   3.119
27501WAT      O82744   2.039   1.453   2.749
27501WAT     H182745   2.124   1.432   2.701
27501WAT     H282746   2.053   1.535   2.805
27502WAT      O82747   3.280   0.212   9.681
27502WAT     H182748   3.365   0.159   9.688
27502WAT     H282749   3.215   0.181   9.750
27503WAT      O82750   7.203   0.565   3.172
27503WAT     H182751   7.268   0.641   3.167
27503WAT     H282752   7.173   0.553   3.266
27504WAT      O82753   2.613   5.105   2.744
27504WAT     H182754   2.577   5.187   2.700
27504WAT     H282755   2.560   5.025   2.716
27505WAT      O82756   5.504   4.503   9.553
27505WAT     H182757   5.588   4.552   9.575
27505WAT     H282758   5.474   4.451   9.633
27506WAT      O82759   0.692   0.818   4.897
27506WAT     H182760   0.652   0.756   4.964
27506WAT     H282761   0.636   0.819   4.814
27507WAT      O82762   9.612   3.748   4.327
27507WAT     H182763   9.551   3.826   4.338
27507WAT     H282764   9.559   3.663   4.335
27508WAT      O82765   3.243   6.832   0.956
27508WAT     H182766   3.219   6.763   1.024
27508WAT     H282767   3.197   6.918   0.978
27509WAT      O82768   4.728   6.652   7.778
27509WAT     H182769   4.791   6.577   7.800
27509WAT     H282770   4.722   6.714   7.856
27510WAT      O82771   1.511   6.568   4.945
27510WAT     H182772   1.517   6.663   4.916
27510WAT     H282773   1.485   6.510   4.868
27511WAT      O82774   2.759   0.396   3.040
27511WAT     H182775   2.666   0.370   3.017
27511WAT     H282776   2.765   0.495   3.052
27512WAT      O82777   7.848   9.367   8.106
27512WAT     H182778   7.857   9.270   8.083
27512WAT     H282779   7.858   9.379   8.205
27513WAT      O82780   1.184   3.870   5.923
27513WAT     H182781   1.196   3.930   5.844
27513WAT     H282782   1.271   3.826   5.944
27514WAT      O82783   5.929   0.976   4.331
27514WAT     H182784   5.917   1.041   4.256
27514WAT     H282785   5.845   0.973   4.386
27515WAT      O82786   9.713   8.870   2.041
27515WAT     H182787   9.699   8.800   2.110
27515WAT     H282788   9.653   8.853   1.963
27516WAT      O82789   4.448   0.128   5.864
27516WAT     H182790   4.442   0.155   5.960
27516WAT     H282791   4.542   0.105   5.842
27517WAT      O82792   7.128   9.284   8.867
27517WAT     H182793   7.127   9.283   8.967
27517WAT     H282794   7.192   9.215   8.833
27518WAT      O82795   3.338   3.760   6.777
27518WAT     H182796   3.302   3.841   6.824
27518WAT     H282797   3.437   3.753   6.794
27519WAT      O82798   2.690   0.805   5.862
27519WAT     H182799   2.627   0.865   5.813
27519WAT     H282800   2.749   0.861   5.921
27520WAT      O82801   8.292   4.555   6.279
27520WAT     H182802   8.207   4.602   6.253
27520WAT     H282803   8.272   4.460   6.302
27521WAT      O82804   5.950   5.371   8.716
27521WAT     H182805   5.970   5.300   8.649
27521WAT     H282806   6.030   5.428   8.730
27522WAT      O82807   4.275   5.143   5.606
27522WAT     H182808   4.311   5.113   5.518
27522WAT     H282809   4.211   5.219   5.592
27523WAT      O82810   1.872   4.684   1.931
27523WAT     H182811   1.792   4.629   1.957
27523WAT     H282812   1.873   4.769   1.983
27524WAT      O82813   8.411   7.769   7.339
27524WAT     H182814   8.490   7.823   7.369
27524WAT     H282815   8.430   7.731   7.248
27525WAT      O82816   5.406   6.871   9.636
27525WAT     H182817   5.350   6.795   9.667
27525WAT     H282818   5.476   6.891   9.704
27526WAT      O82819   2.858   0.800   5.299
27526WAT     H182820   2.782   0.788   5.362
27526WAT     H282821   2.823   0.815   5.206
27527WAT      O82822   1.343   5.761   7.194
27527WAT     H182823   1.359   5.859   7.204
27527WAT     H282824   1.246   5.741   7.211
27528WAT      O82825   1.057   1.471   5.637
27528WAT     H182826   1.110   1.540   5.688
27528WAT     H282827   1.097   1.459   5.547
27529WAT      O82828   0.595   3.815   0.136
27529WAT     H182829   0.642   3.903   0.140
27529WAT     H282830   0.656   3.743   0.170
27530WAT      O82831   5.184   4.591   7.176
27530WAT     H182832   5.213   4.686   7.165
27530WAT     H282833   5.129   4.583   7.259
27531WAT      O82834   5.666   8.873   9.263
27531WAT     H182835   5.728   8.856   9.186
27531WAT     H282836   5.696   8.954   9.313
27532WAT      O82837   6.374   8.370   8.757
27532WAT     H182838   6.376   8.465   8.725
27532WAT     H282839   6.458   8.351   8.808
27533WAT      O82840   4.577   7.720   2.372
27533WAT     H182841   4.663   7.669   2.383
27533WAT     H282842   4.593   7.816   2.394
27534WAT      O82843   6.599   5.948   9.033
27534WAT     H182844   6.578   6.040   8.999
27534WAT     H282845   6.653   5.899   8.964
27535WAT      O82846   4.094   0.373   6.177
27535WAT     H182847   4.150   0.315   6.236
27535WAT     H282848   4.153   0.426   6.116
27536WAT      O82849   3.872   6.858   8.879
27536WAT     H182850   3.959   6.843   8.926
27536WAT     H282851   3.825   6.770   8.868
27537WAT      O82852   7.507   6.183   4.812
27537WAT     H182853   7.506   6.131   4.727
27537WAT     H282854   7.453   6.267   4.800
27538WAT      O82855   3.649   2.610   4.599
27538WAT     H182856   3.581   2.560   4.545
27538WAT     H282857   3.683   2.688   4.546
27539WAT      O82858   7.883   3.465   4.525
27539WAT     H182859   7.894   3.501   4.618
27539WAT     H282860   7.925   3.528   4.460
27540WAT      O82861   2.945   0.587   9.469
27540WAT     H182862   2.985   0.495   9.472
27540WAT     H282863   2.912   0.613   9.560
27541WAT      O82864   8.566   0.091   2.047
27541WAT     H182865   8.542   0.168   2.106
27541WAT     H282866   8.482   0.049   2.011
27542WAT      O82867   3.340   2.594   6.859
27542WAT     H182868   3.390   2.554   6.782
27542WAT     H282869   3.404   2.640   6.920
27543WAT      O82870   2.348   1.640   3.992
27543WAT     H182871   2.370   1.641   4.089
27543WAT     H282872   2.393   1.716   3.946
27544WAT      O82873   1.081   6.083   2.330
27544WAT     H182874   1.121   6.029   2.404
27544WAT     H282875   1.061   6.175   2.364
27545WAT      O82876   1.452   4.833   7.050
27545WAT     H182877   1.355   4.813   7.035
27545WAT     H282878   1.501   4.747   7.067
27546WAT      O82879   0.195   0.743   2.757
27546WAT     H182880   0.160   0.819   2.811
27546WAT     H282881   0.121   0.703   2.703
27547WAT      O82882   3.220   8.704   3.526
27547WAT     H182883   3.181   8.613   3.515
27547WAT     H282884   3.319   8.697   3.540
27548WAT      O82885   8.273   4.994   8.807
27548WAT     H182886   8.329   5.022   8.885
27548WAT     H282887   8.311   5.033   8.723
27549WAT      O82888   4.176   9.092   1.467
27549WAT     H182889   4.118   9.173   1.473
27549WAT     H282890   4.125   9.016   1.428
27550WAT      O82891   0.887   5.186   3.242
27550WAT     H182892   0.813   5.119   3.241
27550WAT     H282893   0.850   5.277   3.225
27551WAT      O82894   7.477   0.716   8.849
27551WAT     H182895   7.429   0.757   8.771
27551WAT     H282896   7.573   0.745   8.848
27552WAT      O82897   8.962   0.993   7.651
27552WAT     H182898   9.036   1.050   7.615
27552WAT     H282899   8.875   1.043   7.644
27553WAT      O82900   4.229   0.282   9.727
27553WAT     H182901   4.309   0.224   9.743
27553WAT     H282902   4.180   0.249   9.646
27554WAT      O82903   1.911   2.797   6.684
27554WAT     H182904   1.847   2.765   6.614
27554WAT     H282905   1.923   2.726   6.753
27555WAT      O82906   5.712   2.678   8.106
27555WAT     H182907   5.633   2.668   8.046
27555WAT     H282908   5.689   2.644   8.197
27556WAT      O82909   2.496   6.990   2.231
27556WAT     H182910   2.497   6.910   2.172
27556WAT     H282911   2.527   6.965   2.323
27557WAT      O82912   4.394   5.905   5.675
27557WAT     H182913   4.422   5.819   5.718
27557WAT     H282914   4.365   5.970   5.746
27558WAT      O82915   4.907   6.995   6.891
27558WAT     H182916   4.944   6.904   6.906
27558WAT     H282917   4.814   6.988   6.853
27559WAT      O82918   4.484   8.880   1.019
27559WAT     H182919   4.444   8.842   0.935
27559WAT     H282920   4.421   8.863   1.096
27560WAT      O82921   0.299   0.745   7.544
27560WAT     H182922   0.339   0.714   7.457
27560WAT     H282923   0.260   0.836   7.532
27561WAT      O82924   5.770   7.933   3.769
27561WAT     H182925   5.828   7.852   3.779
27561WAT     H282926   5.676   7.910   3.796
27562WAT      O82927   3.142   3.424   2.440
27562WAT     H182928   3.065   3.410   2.502
27562WAT     H282929   3.188   3.336   2.425
27563WAT      O82930   7.351   2.124   8.819
27563WAT     H182931   7.400   2.201   8.858
27563WAT     H282932   7.253   2.143   8.821
27564WAT      O82933   3.067   1.472   0.220
27564WAT     H182934   2.995   1.541   0.228
27564WAT     H282935   3.085   1.454   0.123
27565WAT      O82936   4.901   4.328   2.477
27565WAT     H182937   4.951   4.244   2.496
27565WAT     H282938   4.865   4.325   2.384
27566WAT      O82939   2.277   9.194   3.097
27566WAT     H182940   2.261   9.221   3.192
27566WAT     H282941   2.373   9.170   3.084
27567WAT      O82942   5.141   3.785   9.058
27567WAT     H182943   5.151   3.726   8.978
27567WAT     H282944   5.178   3.876   9.038
27568WAT      O82945   7.206   0.353   7.424
27568WAT     H182946   7.170   0.446   7.420
27568WAT     H282947   7.258   0.334   7.341
27569WAT      O82948   5.487   9.005   8.309
27569WAT     H182949   5.413   8.940   8.290
27569WAT     H282950   5.543   9.016   8.227
27570WAT      O82951   3.947   4.515   1.555
27570WAT     H182952   3.874   4.494   1.620
27570WAT     H282953   3.907   4.547   1.469
27571WAT      O82954   1.922   7.388   9.083
27571WAT     H182955   1.904   7.351   9.174
27571WAT     H282956   1.847   7.448   9.056
27572WAT      O82957   6.340   2.038   1.648
27572WAT     H182958   6.392   1.955   1.627
27572WAT     H282959   6.402   2.116   1.654
27573WAT      O82960   5.814   4.628   7.251
27573WAT     H182961   5.835   4.640   7.348
27573WAT     H282962   5.789   4.716   7.211
27574WAT      O82963   8.820   2.833   1.510
27574WAT     H182964   8.747   2.868   1.452
27574WAT     H282965   8.868   2.910   1.553
27575WAT      O82966   9.566   9.068   9.288
27575WAT     H182967   9.622   9.003   9.237
27575WAT     H282968   9.518   9.019   9.362
27576WAT      O82969   2.998   2.900   2.962
27576WAT     H182970   2.959   2.822   3.010
27576WAT     H282971   3.060   2.950   3.023
27577WAT      O82972   7.184   5.899   8.928
27577WAT     H182973   7.180   5.992   8.891
27577WAT     H282974   7.244   5.897   9.009
27578WAT      O82975   0.804   1.788   9.827
27578WAT     H182976   0.731   1.808   9.892
27578WAT     H282977   0.777   1.711   9.769
27579WAT      O82978   4.387   0.944   4.318
27579WAT     H182979   4.461   0.939   4.251
27579WAT     H282980   4.403   1.022   4.380
27580WAT      O82981   0.062   0.900   4.245
27580WAT     H182982   0.008   0.914   4.328
27580WAT     H282983   0.003   0.910   4.165
27581WAT      O82984   1.758   0.108   6.307
27581WAT     H182985   1.786   0.147   6.394
27581WAT     H282986   1.715   0.179   6.250
27582WAT      O82987   7.672   6.723   5.759
27582WAT     H182988   7.660   6.759   5.666
27582WAT     H282989   7.666   6.798   5.824
27583WAT      O82990   0.381   8.977   8.982
27583WAT     H182991   0.323   8.898   9.001
27583WAT     H282992   0.458   8.948   8.925
27584WAT      O82993   7.860   4.675   2.792
27584WAT     H182994   7.948   4.654   2.835
27584WAT     H282995   7.803   4.593   2.790
27585WAT      O82996   4.891   9.380   2.861
27585WAT     H182997   4.902   9.282   2.879
27585WAT     H282998   4.918   9.432   2.942
27586WAT      O82999   5.257   6.485   2.445
27586WAT     H183000   5.329   6.489   2.516
27586WAT     H283001   5.293   6.437   2.365
27587WAT      O83002   3.339   9.158   8.171
27587WAT     H183003   3.267   9.188   8.108
27587WAT     H283004   3.311   9.072   8.215
27588WAT      O83005   2.353   9.151   4.784
27588WAT     H183006   2.290   9.168   4.860
27588WAT     H283007   2.436   9.206   4.796
27589WAT      O83008   3.037   5.153   7.323
27589WAT     H183009   2.989   5.159   7.235
27589WAT     H283010   3.028   5.061   7.360
27590WAT      O83011   2.991   0.274   9.167
27590WAT     H183012   2.922   0.344   9.186
27590WAT     H283013   3.081   0.308   9.193
27591WAT      O83014   0.374   7.248   5.045
27591WAT     H183015   0.307   7.191   4.997
27591WAT     H283016   0.366   7.232   5.143
27592WAT      O83017   4.691   6.119   4.630
27592WAT     H183018   4.664   6.024   4.613
27592WAT     H283019   4.726   6.126   4.723
27593WAT      O83020   3.871   7.358   7.284
27593WAT     H183021   3.845   7.450   7.254
27593WAT     H283022   3.865   7.352   7.384
27594WAT      O83023   0.131   1.855   8.873
27594WAT     H183024   0.057   1.910   8.835
27594WAT     H283025   0.205   1.847   8.806
27595WAT      O83026   8.629   4.166   6.132
27595WAT     H183027   8.578   4.204   6.056
27595WAT     H283028   8.633   4.232   6.207
27596WAT      O83029   0.755   0.357   2.735
27596WAT     H183030   0.678   0.376   2.674
27596WAT     H283031   0.797   0.443   2.764
27597WAT      O83032   7.666   1.547   4.935
27597WAT     H183033   7.641   1.640   4.962
27597WAT     H283034   7.756   1.524   4.971
27598WAT      O83035   5.921   6.801   5.288
27598WAT     H183036   5.933   6.771   5.194
27598WAT     H283037   5.977   6.882   5.305
27599WAT      O83038   9.798   0.368   3.379
27599WAT     H183039   9.855   0.392   3.457
27599WAT     H283040   9.735   0.443   3.359
27600WAT      O83041   8.901   2.297   5.142
27600WAT     H183042   8.939   2.228   5.080
27600WAT     H283043   8.975   2.343   5.190
27601WAT      O83044   5.594   0.207   7.306
27601WAT     H183045   5.589   0.254   7.218
27601WAT     H283046   5.670   0.244   7.359
27602WAT      O83047   9.347   7.296   5.085
27602WAT     H183048   9.445   7.301   5.104
27602WAT     H283049   9.326   7.211   5.037
27603WAT      O83050   8.412   6.258   3.107
27603WAT     H183051   8.406   6.270   3.206
27603WAT     H283052   8.375   6.169   3.081
27604WAT      O83053   7.492   1.784   3.098
27604WAT     H183054   7.483   1.870   3.048
27604WAT     H283055   7.402   1.739   3.103
27605WAT      O83056   7.036   4.054   4.993
27605WAT     H183057   7.120   4.063   4.940
27605WAT     H283058   6.969   4.002   4.942
27606WAT      O83059   5.356   7.023   1.290
27606WAT     H183060   5.362   7.097   1.224
27606WAT     H283061   5.414   7.044   1.369
27607WAT      O83062   5.469   3.774   3.155
27607WAT     H183063   5.443   3.712   3.081
27607WAT     H283064   5.403   3.849   3.160
27608WAT      O83065   3.095   1.627   1.996
27608WAT     H183066   3.155   1.627   1.916
27608WAT     H283067   3.082   1.534   2.028
27609WAT      O83068   3.108   5.518   2.533
27609WAT     H183069   3.137   5.448   2.468
27609WAT     H283070   3.021   5.491   2.574
27610WAT      O83071   6.367   1.457   5.641
27610WAT     H183072   6.392   1.544   5.684
27610WAT     H283073   6.447   1.398   5.635
27611WAT      O83074   6.371   8.724   6.680
27611WAT     H183075   6.359   8.788   6.756
27611WAT     H283076   6.437   8.761   6.615
27612WAT      O83077   3.630   8.266   1.820
27612WAT     H183078   3.587   8.289   1.733
27612WAT     H283079   3.563   8.222   1.880
27613WAT      O83080   9.475   9.790   2.468
27613WAT     H183081   9.462   9.843   2.552
27613WAT     H283082   9.497   9.851   2.392
27614WAT      O83083   8.040   0.802   1.328
27614WAT     H183084   8.016   0.849   1.243
27614WAT     H283085   7.986   0.719   1.336
27615WAT      O83086   8.075   4.050   3.815
27615WAT     H183087   8.021   4.092   3.888
27615WAT     H283088   8.098   3.956   3.840
27616WAT      O83089   8.740   8.950   3.969
27616WAT     H183090   8.667   9.018   3.976
27616WAT     H283091   8.709   8.863   4.007
27617WAT      O83092   0.978   6.343   6.887
27617WAT     H183093   1.038   6.406   6.936
27617WAT     H283094   1.003   6.249   6.910
27618WAT      O83095   1.401   6.782   8.289
27618WAT     H183096   1.352   6.748   8.209
27618WAT     H283097   1.335   6.799   8.363
27619WAT      O83098   4.126   8.283   9.691
27619WAT     H183099   4.149   8.378   9.673
27619WAT     H283100   4.128   8.266   9.789
27620WAT      O83101   1.719   9.427   9.739
27620WAT     H183102   1.680   9.370   9.667
27620WAT     H283103   1.659   9.505   9.757
27621WAT      O83104   3.767   8.304   3.312
27621WAT     H183105   3.779   8.395   3.351
27621WAT     H283106   3.730   8.312   3.219
27622WAT      O83107   1.426   6.663   9.585
27622WAT     H183108   1.408   6.734   9.516
27622WAT     H283109   1.483   6.592   9.546
27623WAT      O83110   8.315   8.301   4.407
27623WAT     H183111   8.257   8.264   4.334
27623WAT     H283112   8.391   8.352   4.367
27624WAT      O83113   7.266   5.902   7.597
27624WAT     H183114   7.245   5.824   7.537
27624WAT     H283115   7.364   5.924   7.590
27625WAT      O83116   3.928   5.346   9.143
27625WAT     H183117   4.004   5.371   9.082
27625WAT     H283118   3.965   5.313   9.229
27626WAT      O83119   7.132   9.186   3.540
27626WAT     H183120   7.194   9.242   3.595
27626WAT     H283121   7.144   9.090   3.563
27627WAT      O83122   1.118   0.378   7.563
27627WAT     H183123   1.083   0.309   7.500
27627WAT     H283124   1.156   0.334   7.644
27628WAT      O83125   1.635   6.539   6.201
27628WAT     H183126   1.595   6.526   6.110
27628WAT     H283127   1.666   6.634   6.212
27629WAT      O83128   9.665   3.015   8.602
27629WAT     H183129   9.620   2.940   8.553
27629WAT     H283130   9.669   3.096   8.544
27630WAT      O83131   3.926   3.388   4.969
27630WAT     H183132   3.864   3.356   5.041
27630WAT     H283133   3.877   3.452   4.910
27631WAT      O83134   2.868   7.477   8.750
27631WAT     H183135   2.958   7.436   8.766
27631WAT     H283136   2.848   7.542   8.823
27632WAT      O83137   7.626   5.496   9.710
27632WAT     H183138   7.718   5.517   9.676
27632WAT     H283139   7.631   5.417   9.772
27633WAT      O83140   7.858   1.428   5.507
27633WAT     H183141   7.763   1.411   5.481
27633WAT     H283142   7.917   1.358   5.466
27634WAT      O83143   5.718   3.932   8.089
27634WAT     H183144   5.644   3.954   8.024
27634WAT     H283145   5.769   4.016   8.110
27635WAT      O83146   3.341   0.127   4.563
27635WAT     H183147   3.353   0.056   4.493
27635WAT     H283148   3.375   0.214   4.529
27636WAT      O83149   8.117   1.913   7.348
27636WAT     H183150   8.157   1.840   7.293
27636WAT     H283151   8.138   1.897   7.445
27637WAT      O83152   0.359   6.778   5.439
27637WAT     H183153   0.301   6.696   5.433
27637WAT     H283154   0.365   6.808   5.534
27638WAT      O83155   7.678   9.274   4.430
27638WAT     H183156   7.679   9.257   4.332
27638WAT     H283157   7.721   9.197   4.478
27639WAT      O83158   4.908   6.182   5.167
27639WAT     H183159   4.975   6.244   5.207
27639WAT     H283160   4.913   6.093   5.212
27640WAT      O83161   4.573   5.814   8.406
27640WAT     H183162   4.532   5.863   8.329
27640WAT     H283163   4.502   5.796   8.474
27641WAT      O83164   9.200   0.001   9.121
27641WAT     H183165   9.178   0.084   9.069
27641WAT     H283166   9.120  -0.026   9.175
27642WAT      O83167   4.701   9.295   3.416
27642WAT     H183168   4.632   9.340   3.472
27642WAT     H283169   4.702   9.197   3.436
27643WAT      O83170   1.763   2.949   8.360
27643WAT     H183171   1.800   3.042   8.351
27643WAT     H283172   1.801   2.906   8.442
27644WAT      O83173   5.263   0.282   0.014
27644WAT     H183174   5.217   0.359  -0.030
27644WAT     H283175   5.262   0.203  -0.048
27645WAT      O83176   4.061   6.976   2.683
27645WAT     H183177   4.024   6.991   2.591
27645WAT     H283178   4.159   6.958   2.677
27646WAT      O83179   5.840   0.687   2.565
27646WAT     H183180   5.763   0.635   2.529
27646WAT     H283181   5.829   0.783   2.540
27647WAT      O83182   8.565   9.467   1.962
27647WAT     H183183   8.481   9.472   2.016
27647WAT     H283184   8.625   9.543   1.987
27648WAT      O83185   7.305   1.075   3.148
27648WAT     H183186   7.257   1.135   3.084
27648WAT     H283187   7.242   1.048   3.221
27649WAT      O83188   2.547   3.912   1.246
27649WAT     H183189   2.631   3.859   1.260
27649WAT     H283190   2.548   3.991   1.308
27650WAT      O83191   8.649   1.555   0.699
27650WAT     H183192   8.722   1.555   0.630
27650WAT     H283193   8.673   1.492   0.773
27651WAT      O83194   8.533   3.574   0.423
27651WAT     H183195   8.549   3.583   0.324
27651WAT     H283196   8.436   3.585   0.442
27652WAT      O83197   5.728   9.072   5.064
27652WAT     H183198   5.809   9.016   5.047
27652WAT     H283199   5.679   9.036   5.144
27653WAT      O83200   8.235   6.364   0.358
27653WAT     H183201   8.265   6.420   0.435
27653WAT     H283202   8.305   6.366   0.286
27654WAT      O83203   9.152   7.092   9.443
27654WAT     H183204   9.132   7.168   9.505
27654WAT     H283205   9.250   7.093   9.420
27655WAT      O83206   5.990   3.663   0.079
27655WAT     H183207   6.020   3.758   0.066
27655WAT     H283208   5.987   3.617  -0.009
27656WAT      O83209   8.520   5.894   1.925
27656WAT     H183210   8.458   5.853   1.858
27656WAT     H283211   8.516   5.842   2.010
27657WAT      O83212   7.215   8.145   4.788
27657WAT     H183213   7.178   8.155   4.881
27657WAT     H283214   7.218   8.048   4.764
27658WAT      O83215   1.834   1.634   7.298
27658WAT     H183216   1.769   1.704   7.328
27658WAT     H283217   1.844   1.638   7.199
27659WAT      O83218   0.398   8.637   9.688
27659WAT     H183219   0.402   8.590   9.776
27659WAT     H283220   0.344   8.721   9.696
27660WAT      O83221   3.453   1.336   3.497
27660WAT     H183222   3.548   1.316   3.476
27660WAT     H283223   3.446   1.365   3.593
27661WAT      O83224   1.209   6.264   8.802
27661WAT     H183225   1.288   6.318   8.831
27661WAT     H283226   1.142   6.324   8.758
27662WAT      O83227   6.450   5.696   7.360
27662WAT     H183228   6.469   5.637   7.281
27662WAT     H283229   6.536   5.718   7.406
27663WAT      O83230   0.968   5.127   8.259
27663WAT     H183231   0.973   5.126   8.159
27663WAT     H283232   1.010   5.211   8.293
27664WAT      O83233   1.803   0.643   2.840
27664WAT     H183234   1.821   0.727   2.890
27664WAT     H283235   1.719   0.652   2.787
27665WAT      O83236   1.813   0.785   3.732
27665WAT     H183237   1.769   0.799   3.820
27665WAT     H283238   1.815   0.871   3.681
27666WAT      O83239   8.654   7.819   0.495
27666WAT     H183240   8.639   7.871   0.411
27666WAT     H283241   8.681   7.882   0.568
27667WAT      O83242   1.329   9.118   4.475
27667WAT     H183243   1.290   9.031   4.443
27667WAT     H283244   1.348   9.177   4.396
27668WAT      O83245   1.817   4.578   9.034
27668WAT     H183246   1.863   4.631   8.963
27668WAT     H283247   1.881   4.561   9.109
27669WAT      O83248   8.354   3.817   4.000
27669WAT     H183249   8.436   3.873   3.994
27669WAT     H283250   8.374   3.725   3.965
27670WAT      O83251   0.228   6.374   8.664
27670WAT     H183252   0.285   6.408   8.738
27670WAT     H283253   0.281   6.371   8.579
27671WAT      O83254   1.096   0.021   2.361
27671WAT     H183255   1.057   0.084   2.427
27671WAT     H283256   1.170   0.066   2.310
27672WAT      O83257   3.919   8.212   5.347
27672WAT     H183258   3.870   8.268   5.415
27672WAT     H283259   4.014   8.242   5.341
27673WAT      O83260   9.561   2.833   3.832
27673WAT     H183261   9.518   2.841   3.742
27673WAT     H283262   9.500   2.782   3.893
27674WAT      O83263   4.494   2.009   8.773
27674WAT     H183264   4.594   2.018   8.781
27674WAT     H283265   4.469   1.913   8.787
27675WAT      O83266   7.062   8.083   6.385
27675WAT     H183267   6.974   8.052   6.422
27675WAT     H283268   7.083   8.032   6.302
27676WAT      O83269   2.264   5.200   8.914
27676WAT     H183270   2.244   5.226   8.819
27676WAT     H283271   2.178   5.185   8.963
27677WAT      O83272   9.201   4.565   4.787
27677WAT     H183273   9.205   4.646   4.846
27677WAT     H283274   9.150   4.587   4.704
27678WAT      O83275   5.264   4.966   6.508
27678WAT     H183276   5.308   4.967   6.599
27678WAT     H283277   5.169   4.996   6.517
27679WAT      O83278   1.201   8.411   4.105
27679WAT     H183279   1.124   8.473   4.125
27679WAT     H283280   1.283   8.444   4.153
27680WAT      O83281   7.640   3.509   2.046
27680WAT     H183282   7.663   3.494   2.142
27680WAT     H283283   7.584   3.433   2.013
27681WAT      O83284   4.592   4.278   0.687
27681WAT     H183285   4.493   4.272   0.700
27681WAT     H283286   4.614   4.275   0.589
27682WAT      O83287   8.627   1.824   9.504
27682WAT     H183288   8.538   1.842   9.461
27682WAT     H283289   8.700   1.849   9.440
27683WAT      O83290   7.713   4.913   9.092
27683WAT     H183291   7.651   4.970   9.038
27683WAT     H283292   7.760   4.848   9.032
27684WAT      O83293   8.322   3.623   5.826
27684WAT     H183294   8.385   3.696   5.802
27684WAT     H283295   8.235   3.662   5.857
27685WAT      O83296   7.338   1.431   2.358
27685WAT     H183297   7.373   1.500   2.294
27685WAT     H283298   7.290   1.359   2.308
27686WAT      O83299   3.173   7.631   5.370
27686WAT     H183300   3.176   7.718   5.420
27686WAT     H283301   3.149   7.649   5.275
27687WAT      O83302   6.317   3.227   2.241
27687WAT     H183303   6.264   3.291   2.296
27687WAT     H283304   6.269   3.139   2.238
27688WAT      O83305   7.849   4.110   1.553
27688WAT     H183306   7.863   4.049   1.631
27688WAT     H283307   7.935   4.117   1.501
27689WAT      O83308   3.564   5.660   5.113
27689WAT     H183309   3.609   5.571   5.124
27689WAT     H283310   3.614   5.714   5.046
27690WAT      O83311   9.576   3.568   8.402
27690WAT     H183312   9.478   3.569   8.382
27690WAT     H283313   9.593   3.611   8.490
27691WAT      O83314   7.120   6.224   3.819
27691WAT     H183315   7.128   6.186   3.727
27691WAT     H283316   7.041   6.184   3.865
27692WAT      O83317   1.334   7.942   0.020
27692WAT     H183318   1.279   8.022   0.046
27692WAT     H283319   1.408   7.929   0.086
27693WAT      O83320   1.765   6.519   8.938
27693WAT     H183321   1.746   6.602   8.885
27693WAT     H283322   1.800   6.448   8.877
27694WAT      O83323   0.514   7.593   3.254
27694WAT     H183324   0.569   7.677   3.260
27694WAT     H283325   0.575   7.513   3.254
27695WAT      O83326   7.268   4.651   2.802
27695WAT     H183327   7.276   4.749   2.817
27695WAT     H283328   7.297   4.602   2.885
27696WAT      O83329   4.459   3.243   2.765
27696WAT     H183330   4.457   3.296   2.680
27696WAT     H283331   4.381   3.180   2.766
27697WAT      O83332   8.778   9.126   9.741
27697WAT     H183333   8.840   9.178   9.683
27697WAT     H283334   8.758   9.179   9.824
27698WAT      O83335   3.703   2.688   7.769
27698WAT     H183336   3.612   2.688   7.728
27698WAT     H283337   3.728   2.781   7.795
27699WAT      O83338   5.055   0.651   3.844
27699WAT     H183339   4.980   0.713   3.820
27699WAT     H283340   5.018   0.569   3.888
27700WAT      O83341   0.262   8.031   2.866
27700WAT     H183342   0.327   7.959   2.891
27700WAT     H283343   0.311   8.107   2.824
27701WAT      O83344   7.341   2.646   8.913
27701WAT     H183345   7.369   2.690   8.827
27701WAT     H283346   7.421   2.630   8.970
27702WAT      O83347   2.836   7.734   2.440
27702WAT     H183348   2.816   7.640   2.410
27702WAT     H283349   2.752   7.777   2.473
27703WAT      O83350   8.852   4.762   0.318
27703WAT     H183351   8.775   4.698   0.320
27703WAT     H283352   8.912   4.740   0.241
27704WAT      O83353   6.485   9.001   3.254
27704WAT     H183354   6.458   8.913   3.217
27704WAT     H283355   6.497   8.993   3.353
27705WAT      O83356   7.421   6.925   8.972
27705WAT     H183357   7.404   6.848   8.911
27705WAT     H283358   7.496   6.981   8.935
27706WAT      O83359   2.045   2.490   3.367
27706WAT     H183360   2.096   2.414   3.327
27706WAT     H283361   2.075   2.504   3.461
27707WAT      O83362   5.303   4.684   7.778
27707WAT     H183363   5.285   4.683   7.679
27707WAT     H283364   5.227   4.638   7.825
27708WAT      O83365   4.769   2.179   7.448
27708WAT     H183366   4.817   2.267   7.438
27708WAT     H283367   4.699   2.172   7.377
27709WAT      O83368   0.552   3.103   1.152
27709WAT     H183369   0.594   3.176   1.206
27709WAT     H283370   0.552   3.129   1.056
27710WAT      O83371   4.576   2.717   1.400
27710WAT     H183372   4.615   2.724   1.491
27710WAT     H283373   4.480   2.689   1.407
27711WAT      O83374   3.214   9.024   9.877
27711WAT     H183375   3.154   9.082   9.823
27711WAT     H283376   3.179   8.930   9.878
27712WAT      O83377   2.202   0.705   5.736
27712WAT     H183378   2.222   0.756   5.652
27712WAT     H283379   2.107   0.721   5.763
27713WAT      O83380   6.759   3.427   0.664
27713WAT     H183381   6.844   3.386   0.631
27713WAT     H283382   6.699   3.356   0.701
27714WAT      O83383   5.154   9.746   4.249
27714WAT     H183384   5.099   9.814   4.299
27714WAT     H283385   5.209   9.694   4.313
27715WAT      O83386   2.860   1.204   2.895
27715WAT     H183387   2.849   1.216   2.796
27715WAT     H283388   2.933   1.138   2.912
27716WAT      O83389   8.472   9.144   0.925
27716WAT     H183390   8.429   9.215   0.870
27716WAT     H283391   8.465   9.056   0.877
27717WAT      O83392   0.660   5.170   2.692
27717WAT     H183393   0.756   5.148   2.672
27717WAT     H283394   0.656   5.238   2.765
27718WAT      O83395   7.205   6.670   0.937
27718WAT     H183396   7.211   6.606   1.014
27718WAT     H283397   7.241   6.627   0.855
27719WAT      O83398   1.083   1.191   4.575
27719WAT     H183399   1.139   1.234   4.504
27719WAT     H283400   0.986   1.209   4.557
27720WAT      O83401   0.774   7.853   8.407
27720WAT     H183402   0.781   7.936   8.462
27720WAT     H283403   0.697   7.861   8.343
27721WAT      O83404   9.763   8.637   8.094
27721WAT     H183405   9.738   8.713   8.154
27721WAT     H283406   9.827   8.576   8.141
27722WAT      O83407   5.586   7.521   9.779
27722WAT     H183408   5.573   7.486   9.686
27722WAT     H283409   5.522   7.596   9.796
27723WAT      O83410   4.111   6.662   2.398
27723WAT     H183411   4.101   6.572   2.355
27723WAT     H283412   4.022   6.708   2.400
27724WAT      O83413   4.964   7.020   8.552
27724WAT     H183414   4.889   7.078   8.520
27724WAT     H283415   4.971   6.939   8.494
27725WAT      O83416   3.903   9.549   5.141
27725WAT     H183417   3.957   9.616   5.090
27725WAT     H283418   3.952   9.462   5.144
27726WAT      O83419   6.132   0.740   2.468
27726WAT     H183420   6.041   0.723   2.506
27726WAT     H283421   6.126   0.813   2.400
27727WAT      O83422   9.662   3.253   6.596
27727WAT     H183423   9.718   3.223   6.519
27727WAT     H283424   9.722   3.274   6.674
27728WAT      O83425   2.259   1.955   6.516
27728WAT     H183426   2.213   1.876   6.476
27728WAT     H283427   2.229   2.039   6.470
27729WAT      O83428   0.697   5.873   6.011
27729WAT     H183429   0.761   5.816   5.960
27729WAT     H283430   0.646   5.931   5.948
27730WAT      O83431   2.648   8.147   0.473
27730WAT     H183432   2.586   8.225   0.462
27730WAT     H283433   2.609   8.067   0.427
27731WAT      O83434   2.581   8.393   2.965
27731WAT     H183435   2.484   8.394   2.986
27731WAT     H283436   2.601   8.465   2.898
27732WAT      O83437   6.696   7.844   8.159
27732WAT     H183438   6.656   7.876   8.246
27732WAT     H283439   6.731   7.751   8.171
27733WAT      O83440   1.685   2.628   8.386
27733WAT     H183441   1.663   2.695   8.314
27733WAT     H283442   1.637   2.654   8.470
27734WAT      O83443   4.658   8.797   7.766
27734WAT     H183444   4.643   8.712   7.817
27734WAT     H283445   4.579   8.815   7.707
27735WAT      O83446   1.863   5.962   7.053
27735WAT     H183447   1.900   5.870   7.068
27735WAT     H283448   1.763   5.958   7.054
27736WAT      O83449   9.054   0.451   3.255
27736WAT     H183450   9.090   0.392   3.183
27736WAT     H283451   9.130   0.487   3.309
27737WAT      O83452   4.290   6.540   4.672
27737WAT     H183453   4.278   6.486   4.755
27737WAT     H283454   4.310   6.478   4.595
27738WAT      O83455   9.121   2.867   5.139
27738WAT     H183456   9.128   2.785   5.197
27738WAT     H283457   9.123   2.949   5.196
27739WAT      O83458   6.211   0.207   8.755
27739WAT     H183459   6.161   0.292   8.741
27739WAT     H283460   6.235   0.168   8.666
27740WAT      O83461   0.014   1.142   8.534
27740WAT     H183462  -0.077   1.152   8.573
27740WAT     H283463   0.032   1.218   8.471
27741WAT      O83464   8.098   8.397   8.407
27741WAT     H183465   8.095   8.415   8.505
27741WAT     H283466   8.128   8.303   8.391
27742WAT      O83467   7.889   2.686   2.322
27742WAT     H183468   7.854   2.653   2.410
27742WAT     H283469   7.867   2.620   2.251
27743WAT      O83470   1.512   3.340   1.774
27743WAT     H183471   1.573   3.418   1.765
27743WAT     H283472   1.565   3.256   1.776
27744WAT      O83473   8.545   8.974   9.145
27744WAT     H183474   8.468   8.952   9.205
27744WAT     H283475   8.614   8.902   9.152
27745WAT      O83476   9.584   1.878   7.749
27745WAT     H183477   9.658   1.919   7.801
27745WAT     H283478   9.497   1.889   7.798
27746WAT      O83479   8.016   3.957   3.378
27746WAT     H183480   8.065   4.021   3.320
27746WAT     H283481   7.979   3.882   3.322
27747WAT      O83482   3.154   9.454   7.903
27747WAT     H183483   3.195   9.538   7.866
27747WAT     H283484   3.179   9.377   7.845
27748WAT      O83485   4.884   7.504   9.497
27748WAT     H183486   4.920   7.468   9.583
27748WAT     H283487   4.834   7.431   9.449
27749WAT      O83488   6.636   3.290   3.983
27749WAT     H183489   6.547   3.285   4.030
27749WAT     H283490   6.630   3.355   3.908
27750WAT      O83491   1.995   9.461   2.572
27750WAT     H183492   1.958   9.433   2.484
27750WAT     H283493   2.024   9.557   2.568
27751WAT      O83494   7.174   1.887   7.883
27751WAT     H183495   7.138   1.841   7.802
27751WAT     H283496   7.114   1.963   7.908
27752WAT      O83497   8.240   4.126   8.708
27752WAT     H183498   8.216   4.218   8.738
27752WAT     H283499   8.238   4.121   8.608
27753WAT      O83500   6.304   6.500   3.487
27753WAT     H183501   6.291   6.472   3.392
27753WAT     H283502   6.401   6.489   3.513
27754WAT      O83503   2.482   0.347   6.272
27754WAT     H183504   2.571   0.386   6.294
27754WAT     H283505   2.411   0.392   6.327
27755WAT      O83506   0.328   1.748   7.567
27755WAT     H183507   0.403   1.792   7.519
27755WAT     H283508   0.344   1.753   7.666
27756WAT      O83509   8.283   3.057   2.533
27756WAT     H183510   8.344   3.054   2.454
27756WAT     H283511   8.327   3.107   2.607
27757WAT      O83512   6.382   1.493   9.428
27757WAT     H183513   6.468   1.444   9.437
27757WAT     H283514   6.351   1.523   9.518
27758WAT      O83515   5.598   4.321   3.506
27758WAT     H183516   5.668   4.276   3.561
27758WAT     H283517   5.612   4.299   3.410
27759WAT      O83518   6.910   0.880   9.848
27759WAT     H183519   6.866   0.943   9.911
27759WAT     H283520   6.883   0.786   9.870
27760WAT      O83521   2.345   4.576   9.216
27760WAT     H183522   2.318   4.644   9.285
27760WAT     H283523   2.342   4.484   9.257
27761WAT      O83524   7.326   6.475   4.267
27761WAT     H183525   7.372   6.481   4.356
27761WAT     H283526   7.265   6.554   4.256
27762WAT      O83527   3.826   8.948   8.919
27762WAT     H183528   3.854   8.985   8.830
27762WAT     H283529   3.733   8.913   8.912
27763WAT      O83530   5.272   3.076   1.608
27763WAT     H183531   5.330   2.997   1.625
27763WAT     H283532   5.185   3.046   1.569
27764WAT      O83533   9.167   8.928   2.923
27764WAT     H183534   9.266   8.942   2.916
27764WAT     H283535   9.120   9.017   2.916
27765WAT      O83536   5.754   7.537   3.364
27765WAT     H183537   5.659   7.522   3.335
27765WAT     H283538   5.816   7.486   3.304
27766WAT      O83539   6.410   3.320   4.121
27766WAT     H183540   6.319   3.293   4.152
27766WAT     H283541   6.412   3.419   4.107
27767WAT      O83542   0.113   9.096   3.678
27767WAT     H183543   0.196   9.045   3.656
27767WAT     H283544   0.130   9.194   3.664
27768WAT      O83545   4.236   0.925   8.429
27768WAT     H183546   4.306   0.995   8.445
27768WAT     H283547   4.171   0.925   8.505
27769WAT      O83548   2.922   3.179   4.130
27769WAT     H183549   2.915   3.079   4.137
27769WAT     H283550   3.015   3.207   4.152
27770WAT      O83551   9.190   4.332   8.884
27770WAT     H183552   9.133   4.328   8.966
27770WAT     H283553   9.131   4.345   8.804
27771WAT      O83554   9.845   3.247   5.751
27771WAT     H183555   9.861   3.341   5.721
27771WAT     H283556   9.788   3.247   5.833
27772WAT      O83557   8.228   8.405   6.729
27772WAT     H183558   8.155   8.454   6.681
27772WAT     H283559   8.297   8.470   6.760
27773WAT      O83560   5.733   2.496   1.318
27773WAT     H183561   5.685   2.532   1.238
27773WAT     H283562   5.666   2.466   1.387
27774WAT      O83563   1.459   1.388   3.063
27774WAT     H183564   1.433   1.484   3.073
27774WAT     H283565   1.379   1.334   3.038
27775WAT      O83566   0.160   6.276   9.302
27775WAT     H183567   0.134   6.327   9.384
27775WAT     H283568   0.190   6.184   9.329
27776WAT      O83569   4.582   6.709   6.800
27776WAT     H183570   4.529   6.687   6.883
27776WAT     H283571   4.603   6.806   6.799
27777WAT      O83572   3.997   1.699   8.350
27777WAT     H183573   4.060   1.716   8.275
27777WAT     H283574   3.928   1.632   8.322
27778WAT      O83575   2.189   0.731   2.697
27778WAT     H183576   2.167   0.717   2.793
27778WAT     H283577   2.271   0.788   2.689
27779WAT      O83578   1.293   9.165   9.205
27779WAT     H183579   1.230   9.100   9.162
27779WAT     H283580   1.246   9.212   9.281
27780WAT      O83581   0.366   2.739   7.400
27780WAT     H183582   0.435   2.791   7.450
27780WAT     H283583   0.310   2.802   7.346
27781WAT      O83584   3.611   6.783   0.049
27781WAT     H183585   3.643   6.867   0.092
27781WAT     H283586   3.553   6.805  -0.030
27782WAT      O83587   9.165   2.684   9.676
27782WAT     H183588   9.075   2.724   9.690
27782WAT     H283589   9.177   2.605   9.735
27783WAT      O83590   3.979   6.610   0.861
27783WAT     H183591   3.906   6.674   0.885
27783WAT     H283592   3.950   6.517   0.883
27784WAT      O83593   7.814   4.951   2.884
27784WAT     H183594   7.827   4.854   2.862
27784WAT     H283595   7.717   4.974   2.880
27785WAT      O83596   4.780   6.610   1.373
27785WAT     H183597   4.710   6.566   1.428
27785WAT     H283598   4.853   6.545   1.352
27786WAT      O83599   4.384   2.539   1.089
27786WAT     H183600   4.392   2.442   1.113
27786WAT     H283601   4.475   2.581   1.088
27787WAT      O83602   8.219   2.543   4.645
27787WAT     H183603   8.174   2.527   4.557
27787WAT     H283604   8.314   2.512   4.640
27788WAT      O83605   5.225   6.944   4.451
27788WAT     H183606   5.159   6.880   4.410
27788WAT     H283607   5.316   6.903   4.449
27789WAT      O83608   8.544   6.033   2.809
27789WAT     H183609   8.495   6.008   2.725
27789WAT     H283610   8.633   6.071   2.786
27790WAT      O83611   5.448   8.523   0.643
27790WAT     H183612   5.382   8.467   0.694
27790WAT     H283613   5.409   8.614   0.626
27791WAT      O83614   7.185   6.274   1.929
27791WAT     H183615   7.284   6.264   1.933
27791WAT     H283616   7.151   6.236   1.843
27792WAT      O83617   8.871   8.133   2.710
27792WAT     H183618   8.804   8.064   2.684
27792WAT     H283619   8.877   8.202   2.638
27793WAT      O83620   0.751   3.562   8.613
27793WAT     H183621   0.796   3.645   8.646
27793WAT     H283622   0.663   3.551   8.658
27794WAT      O83623   2.447   0.364   0.449
27794WAT     H183624   2.440   0.337   0.353
27794WAT     H283625   2.363   0.412   0.476
27795WAT      O83626   5.913   8.420   5.398
27795WAT     H183627   5.925   8.383   5.490
27795WAT     H283628   5.915   8.346   5.332
27796WAT      O83629   4.344   6.987   5.515
27796WAT     H183630   4.395   7.050   5.574
27796WAT     H283631   4.371   6.893   5.535
27797WAT      O83632   1.648   7.045   6.716
27797WAT     H183633   1.726   6.997   6.756
27797WAT     H283634   1.650   7.141   6.743
27798WAT      O83635   4.342   1.779   5.313
27798WAT     H183636   4.334   1.728   5.399
27798WAT     H283637   4.386   1.867   5.330
27799WAT      O83638   8.574   1.219   5.165
27799WAT     H183639   8.572   1.237   5.067
27799WAT     H283640   8.505   1.151   5.188
27800WAT      O83641   6.866   7.392   9.299
27800WAT     H183642   6.856   7.427   9.206
27800WAT     H283643   6.934   7.319   9.301
27801WAT      O83644   9.258   9.205   2.280
27801WAT     H183645   9.299   9.265   2.348
27801WAT     H283646   9.326   9.140   2.247
27802WAT      O83647   4.537   8.895   8.240
27802WAT     H183648   4.501   8.987   8.222
27802WAT     H283649   4.618   8.879   8.184
27803WAT      O83650   5.405   8.753   3.029
27803WAT     H183651   5.369   8.659   3.031
27803WAT     H283652   5.436   8.775   2.937
27804WAT      O83653   6.824   4.296   5.090
27804WAT     H183654   6.894   4.225   5.081
27804WAT     H283655   6.864   4.378   5.129
27805WAT      O83656   8.408   9.812   5.812
27805WAT     H183657   8.383   9.909   5.816
27805WAT     H283658   8.426   9.779   5.905
27806WAT      O83659   5.684   1.624   0.633
27806WAT     H183660   5.678   1.543   0.574
27806WAT     H283661   5.739   1.694   0.588
27807WAT      O83662   7.718   0.548   3.766
27807WAT     H183663   7.622   0.535   3.738
27807WAT     H283664   7.742   0.644   3.757
27808WAT      O83665   4.278   6.945   6.503
27808WAT     H183666   4.265   7.037   6.541
27808WAT     H283667   4.305   6.883   6.577
27809WAT      O83668   7.609   7.363   8.737
27809WAT     H183669   7.581   7.364   8.641
27809WAT     H283670   7.530   7.340   8.794
27810WAT      O83671   1.660   7.403   1.780
27810WAT     H183672   1.594   7.403   1.856
27810WAT     H283673   1.748   7.436   1.813
27811WAT      O83674   7.552   7.607   8.067
27811WAT     H183675   7.648   7.577   8.064
27811WAT     H283676   7.549   7.706   8.078
27812WAT      O83677   3.739   4.467   4.527
27812WAT     H183678   3.826   4.421   4.506
27812WAT     H283679   3.665   4.399   4.526
27813WAT      O83680   7.942   7.970   2.511
27813WAT     H183681   8.023   7.938   2.561
27813WAT     H283682   7.862   7.962   2.570
27814WAT      O83683   1.064   3.667   0.200
27814WAT     H183684   1.020   3.684   0.112
27814WAT     H283685   1.085   3.754   0.244
27815WAT      O83686   5.782   3.857   2.462
27815WAT     H183687   5.709   3.806   2.507
27815WAT     H283688   5.800   3.816   2.373
27816WAT      O83689   5.114   5.830   5.167
27816WAT     H183690   5.156   5.910   5.124
27816WAT     H283691   5.181   5.756   5.173
27817WAT      O83692   0.423   4.947   5.608
27817WAT     H183693   0.483   4.868   5.605
27817WAT     H283694   0.426   4.989   5.699
27818WAT      O83695   1.778   0.102   9.813
27818WAT     H183696   1.851   0.039   9.789
27818WAT     H283697   1.777   0.116   9.912
27819WAT      O83698   1.403   3.410   0.458
27819WAT     H183699   1.447   3.324   0.481
27819WAT     H283700   1.399   3.421   0.359
27820WAT      O83701   0.683   0.054   1.124
27820WAT     H183702   0.640  -0.025   1.167
27820WAT     H283703   0.781   0.036   1.110
27821WAT      O83704   3.292   4.494   2.536
27821WAT     H183705   3.249   4.568   2.485
27821WAT     H283706   3.358   4.447   2.478
27822WAT      O83707   2.250   5.543   1.519
27822WAT     H183708   2.224   5.460   1.568
27822WAT     H283709   2.349   5.547   1.508
27823WAT      O83710   3.061   3.020   6.408
27823WAT     H183711   3.127   2.960   6.453
27823WAT     H283712   3.109   3.093   6.359
27824WAT      O83713   9.353   9.806   8.377
27824WAT     H183714   9.330   9.737   8.446
27824WAT     H283715   9.270   9.845   8.339
27825WAT      O83716   4.608   9.135   4.564
27825WAT     H183717   4.545   9.067   4.526
27825WAT     H283718   4.685   9.147   4.502
27826WAT      O83719   9.617   0.366   0.672
27826WAT     H183720   9.689   0.397   0.734
27826WAT     H283721   9.538   0.336   0.724
27827WAT      O83722   4.389   5.448   5.372
27827WAT     H183723   4.427   5.490   5.290
27827WAT     H283724   4.463   5.408   5.427
27828WAT      O83725   2.637   5.643   2.562
27828WAT     H183726   2.703   5.646   2.487
27828WAT     H283727   2.641   5.730   2.612
27829WAT      O83728   0.579   6.103   1.799
27829WAT     H183729   0.651   6.163   1.832
27829WAT     H283730   0.573   6.021   1.856
27830WAT      O83731   1.120   0.892   6.750
27830WAT     H183732   1.184   0.969   6.748
27830WAT     H283733   1.083   0.882   6.842
27831WAT      O83734   5.921   2.230   7.119
27831WAT     H183735   5.998   2.248   7.058
27831WAT     H283736   5.905   2.131   7.125
27832WAT      O83737   8.513   2.511   6.506
27832WAT     H183738   8.583   2.505   6.577
27832WAT     H283739   8.519   2.599   6.460
27833WAT      O83740   8.313   7.643   5.139
27833WAT     H183741   8.369   7.590   5.075
27833WAT     H283742   8.358   7.646   5.228
27834WAT      O83743   2.746   5.227   8.181
27834WAT     H183744   2.665   5.230   8.241
27834WAT     H283745   2.717   5.236   8.086
27835WAT      O83746   4.989   9.100   1.080
27835WAT     H183747   4.912   9.061   1.029
27835WAT     H283748   5.001   9.050   1.165
27836WAT      O83749   5.348   0.287   3.356
27836WAT     H183750   5.403   0.244   3.428
27836WAT     H283751   5.403   0.357   3.311
27837WAT      O83752   9.351   2.273   4.299
27837WAT     H183753   9.264   2.255   4.345
27837WAT     H283754   9.410   2.325   4.361
27838WAT      O83755   1.493   8.235   5.121
27838WAT     H183756   1.397   8.213   5.134
27838WAT     H283757   1.548   8.189   5.191
27839WAT      O83758   2.489   9.466   4.719
27839WAT     H183759   2.452   9.514   4.639
27839WAT     H283760   2.579   9.504   4.741
27840WAT      O83761   0.873   9.174   1.104
27840WAT     H183762   0.890   9.140   1.197
27840WAT     H283763   0.834   9.102   1.048
27841WAT      O83764   2.214   2.073   6.755
27841WAT     H183765   2.226   1.999   6.688
27841WAT     H283766   2.229   2.161   6.711
27842WAT      O83767   0.604   0.226   6.636
27842WAT     H183768   0.622   0.182   6.724
27842WAT     H283769   0.654   0.178   6.564
27843WAT      O83770   9.747   6.644   7.027
27843WAT     H183771   9.762   6.699   7.109
27843WAT     H283772   9.755   6.702   6.946
27844WAT      O83773   9.020   6.819   2.362
27844WAT     H183774   8.948   6.862   2.417
27844WAT     H283775   9.103   6.876   2.366
27845WAT      O83776   6.504   0.575   7.889
27845WAT     H183777   6.593   0.534   7.908
27845WAT     H283778   6.506   0.622   7.801
27846WAT      O83779   5.419   1.540   8.844
27846WAT     H183780   5.417   1.636   8.817
27846WAT     H283781   5.487   1.491   8.790
27847WAT      O83782   0.193   9.552   5.867
27847WAT     H183783   0.157   9.507   5.949
27847WAT     H283784   0.283   9.514   5.845
27848WAT      O83785   0.988   0.880   6.202
27848WAT     H183786   1.040   0.922   6.128
27848WAT     H283787   1.036   0.891   6.289
27849WAT      O83788   5.514   5.160   0.655
27849WAT     H183789   5.470   5.229   0.714
27849WAT     H283790   5.562   5.094   0.712
27850WAT      O83791   9.447   0.047   3.065
27850WAT     H183792   9.470   0.023   3.159
27850WAT     H283793   9.347   0.042   3.053
27851WAT      O83794   1.233   5.503   6.260
27851WAT     H183795   1.193   5.594   6.267
27851WAT     H283796   1.260   5.471   6.351
27852WAT      O83797   2.646   8.638   1.615
27852WAT     H183798   2.648   8.709   1.685
27852WAT     H283799   2.739   8.615   1.587
27853WAT      O83800   0.770   4.390   0.341
27853WAT     H183801   0.741   4.402   0.245
27853WAT     H283802   0.689   4.382   0.399
27854WAT      O83803   6.830   4.404   5.590
27854WAT     H183804   6.914   4.440   5.550
27854WAT     H283805   6.751   4.439   5.540
27855WAT      O83806   7.418   0.934   9.346
27855WAT     H183807   7.494   0.990   9.312
27855WAT     H283808   7.387   0.970   9.434
27856WAT      O83809   7.017   7.666   4.515
27856WAT     H183810   7.030   7.757   4.477
27856WAT     H283811   6.957   7.613   4.456
27857WAT      O83812   4.669   3.177   1.242
27857WAT     H183813   4.643   3.081   1.245
27857WAT     H283814   4.768   3.185   1.253
27858WAT      O83815   0.237   0.525   0.149
27858WAT     H183816   0.250   0.623   0.166
27858WAT     H283817   0.160   0.513   0.086
27859WAT      O83818   0.832   6.971   4.832
27859WAT     H183819   0.739   6.990   4.801
27859WAT     H283820   0.878   7.057   4.855
27860WAT      O83821   8.931   1.011   6.050
27860WAT     H183822   8.984   1.094   6.063
27860WAT     H283823   8.871   1.021   5.970
27861WAT      O83824   1.436   8.623   4.273
27861WAT     H183825   1.462   8.688   4.202
27861WAT     H283826   1.390   8.673   4.347
27862WAT      O83827   1.549   3.304   0.802
27862WAT     H183828   1.594   3.314   0.890
27862WAT     H283829   1.450   3.320   0.812
27863WAT      O83830   8.026   3.838   3.622
27863WAT     H183831   8.054   3.870   3.531
27863WAT     H283832   7.951   3.895   3.655
27864WAT      O83833   0.659   4.247   2.750
27864WAT     H183834   0.721   4.254   2.672
27864WAT     H283835   0.684   4.316   2.819
27865WAT      O83836   0.969   5.683   6.933
27865WAT     H183837   0.938   5.753   6.869
27865WAT     H283838   1.029   5.618   6.885
27866WAT      O83839   3.808   6.380   7.286
27866WAT     H183840   3.795   6.313   7.360
27866WAT     H283841   3.789   6.472   7.321
27867WAT      O83842   1.361   4.866   6.493
27867WAT     H183843   1.261   4.868   6.488
27867WAT     H283844   1.390   4.789   6.551
27868WAT      O83845   9.704   4.877   3.377
27868WAT     H183846   9.725   4.788   3.416
27868WAT     H283847   9.614   4.906   3.408
27869WAT      O83848   7.278   8.630   0.656
27869WAT     H183849   7.332   8.662   0.734
27869WAT     H283850   7.339   8.585   0.590
27870WAT      O83851   5.679   2.776   1.962
27870WAT     H183852   5.663   2.733   2.051
27870WAT     H283853   5.773   2.759   1.933
27871WAT      O83854   7.864   7.024   0.398
27871WAT     H183855   7.893   6.946   0.343
27871WAT     H283856   7.897   7.012   0.492
27872WAT      O83857   0.074   7.793   1.413
27872WAT     H183858  -0.014   7.786   1.458
27872WAT     H283859   0.072   7.740   1.328
27873WAT      O83860   2.927   4.470   0.204
27873WAT     H183861   2.855   4.536   0.227
27873WAT     H283862   2.987   4.458   0.282
27874WAT      O83863   6.589   6.688   5.645
27874WAT     H183864   6.510   6.728   5.692
27874WAT     H283865   6.666   6.681   5.708
27875WAT      O83866   4.716   8.025   2.743
27875WAT     H183867   4.627   8.028   2.697
27875WAT     H283868   4.721   8.099   2.810
27876WAT      O83869   5.623   8.526   4.011
27876WAT     H183870   5.646   8.547   3.916
27876WAT     H283871   5.669   8.442   4.039
27877WAT      O83872   3.541   6.450   0.306
27877WAT     H183873   3.537   6.550   0.312
27877WAT     H283874   3.563   6.423   0.212
27878WAT      O83875   8.961   6.935   2.769
27878WAT     H183876   8.927   6.893   2.853
27878WAT     H283877   8.965   7.035   2.781
27879WAT      O83878   5.929   7.577   0.511
27879WAT     H183879   5.943   7.480   0.530
27879WAT     H283880   5.881   7.587   0.424
27880WAT      O83881   8.920   1.489   1.581
27880WAT     H183882   8.929   1.534   1.670
27880WAT     H283883   8.952   1.395   1.588
27881WAT      O83884   6.181   1.084   4.403
27881WAT     H183885   6.089   1.046   4.395
27881WAT     H283886   6.190   1.163   4.343
27882WAT      O83887   3.567   1.401   8.464
27882WAT     H183888   3.573   1.501   8.455
27882WAT     H283889   3.564   1.359   8.374
27883WAT      O83890   1.980   4.411   9.782
27883WAT     H183891   1.920   4.483   9.818
27883WAT     H283892   1.960   4.325   9.830
27884WAT      O83893   5.943   3.506   9.737
27884WAT     H183894   5.929   3.566   9.658
27884WAT     H283895   5.859   3.500   9.790
27885WAT      O83896   9.687   8.837   7.901
27885WAT     H183897   9.701   8.766   7.970
27885WAT     H283898   9.640   8.796   7.822
27886WAT      O83899   1.270   5.855   6.091
27886WAT     H183900   1.298   5.950   6.103
27886WAT     H283901   1.227   5.822   6.175
27887WAT      O83902   3.512   5.731   9.231
27887WAT     H183903   3.540   5.726   9.327
27887WAT     H283904   3.435   5.669   9.215
27888WAT      O83905   4.269   1.763   6.491
27888WAT     H183906   4.258   1.749   6.589
27888WAT     H283907   4.202   1.830   6.459
27889WAT      O83908   5.822   6.221   1.546
27889WAT     H183909   5.911   6.245   1.507
27889WAT     H283910   5.750   6.242   1.480
27890WAT      O83911   5.440   0.796   7.836
27890WAT     H183912   5.388   0.877   7.809
27890WAT     H283913   5.380   0.717   7.843
27891WAT      O83914   9.176   0.344   2.430
27891WAT     H183915   9.227   0.409   2.374
27891WAT     H283916   9.209   0.349   2.525
27892WAT      O83917   3.850   7.011   1.441
27892WAT     H183918   3.949   7.023   1.446
27892WAT     H283919   3.807   7.094   1.404
27893WAT      O83920   9.787   1.537   6.045
27893WAT     H183921   9.698   1.491   6.044
27893WAT     H283922   9.813   1.556   6.139
27894WAT      O83923   7.250   0.700   7.134
27894WAT     H183924   7.328   0.764   7.132
27894WAT     H283925   7.174   0.743   7.184
27895WAT      O83926   8.167   6.766   8.379
27895WAT     H183927   8.182   6.833   8.453
27895WAT     H283928   8.196   6.676   8.411
27896WAT      O83929   0.270   5.459   8.974
27896WAT     H183930   0.292   5.556   8.980
27896WAT     H283931   0.351   5.404   8.994
27897WAT      O83932   9.851   7.699   2.804
27897WAT     H183933   9.921   7.637   2.839
27897WAT     H283934   9.892   7.766   2.743
27898WAT      O83935   4.247   8.822   4.248
27898WAT     H183936   4.235   8.891   4.177
27898WAT     H283937   4.342   8.790   4.247
27899WAT      O83938   4.846   8.961   2.132
27899WAT     H183939   4.857   8.872   2.176
27899WAT     H283940   4.849   8.951   2.033
27900WAT      O83941   1.080   9.055   7.579
27900WAT     H183942   1.169   9.061   7.533
27900WAT     H283943   1.057   8.958   7.592
27901WAT      O83944   4.529   7.438   0.546
27901WAT     H183945   4.435   7.473   0.542
27901WAT     H283946   4.537   7.370   0.618
27902WAT      O83947   5.575   9.220   6.547
27902WAT     H183948   5.658   9.246   6.596
27902WAT     H283949   5.534   9.300   6.504
27903WAT      O83950   3.115   4.545   7.005
27903WAT     H183951   3.159   4.596   6.931
27903WAT     H283952   3.185   4.509   7.067
27904WAT      O83953   9.537   8.960   1.392
27904WAT     H183954   9.583   8.890   1.446
27904WAT     H283955   9.493   9.026   1.453
27905WAT      O83956   8.087   6.690   4.849
27905WAT     H183957   8.107   6.618   4.782
27905WAT     H283958   8.144   6.770   4.830
27906WAT      O83959   1.018   4.475   2.350
27906WAT     H183960   1.096   4.535   2.332
27906WAT     H283961   0.961   4.514   2.421
27907WAT      O83962   0.368   4.882   1.751
27907WAT     H183963   0.288   4.834   1.787
27907WAT     H283964   0.341   4.974   1.721
27908WAT      O83965   5.469   1.640   7.998
27908WAT     H183966   5.489   1.618   7.902
27908WAT     H283967   5.391   1.585   8.029
27909WAT      O83968   1.328   0.150   0.959
27909WAT     H183969   1.283   0.184   1.041
27909WAT     H283970   1.353   0.227   0.900
27910WAT      O83971   4.132   4.420   7.434
27910WAT     H183972   4.085   4.393   7.518
27910WAT     H283973   4.119   4.518   7.418
27911WAT      O83974   3.305   4.017   5.818
27911WAT     H183975   3.234   4.067   5.867
27911WAT     H283976   3.395   4.044   5.852
27912WAT      O83977   3.251   0.537   6.791
27912WAT     H183978   3.188   0.535   6.869
27912WAT     H283979   3.324   0.470   6.806
27913WAT      O83980   8.710   6.513   0.384
27913WAT     H183981   8.710   6.466   0.295
27913WAT     H283982   8.786   6.578   0.386
27914WAT      O83983   3.317   7.187   7.156
27914WAT     H183984   3.261   7.234   7.224
27914WAT     H283985   3.413   7.195   7.181
27915WAT      O83986   9.308   9.458   2.975
27915WAT     H183987   9.356   9.538   2.941
27915WAT     H283988   9.282   9.399   2.898
27916WAT      O83989   4.902   6.390   9.373
27916WAT     H183990   4.990   6.386   9.326
27916WAT     H283991   4.898   6.319   9.443
27917WAT      O83992   5.114   1.274   8.477
27917WAT     H183993   5.211   1.299   8.484
27917WAT     H283994   5.059   1.339   8.529
27918WAT      O83995   5.301   1.561   1.485
27918WAT     H183996   5.320   1.534   1.579
27918WAT     H283997   5.203   1.553   1.467
27919WAT      O83998   5.227   1.443   7.288
27919WAT     H183999   5.210   1.521   7.228
27919WAT     H284000   5.298   1.466   7.354
27920WAT      O84001   9.033   3.620   1.775
27920WAT     H184002   9.098   3.571   1.717
27920WAT     H284003   9.018   3.712   1.739
27921WAT      O84004   6.332   4.148   3.830
27921WAT     H184005   6.402   4.127   3.899
27921WAT     H284006   6.286   4.063   3.803
27922WAT      O84007   3.053   5.540   8.245
27922WAT     H184008   3.138   5.548   8.297
27922WAT     H284009   3.046   5.447   8.209
27923WAT      O84010   5.963   5.244   4.879
27923WAT     H184011   6.017   5.253   4.963
27923WAT     H284012   5.867   5.232   4.902
27924WAT      O84013   8.159   0.424   3.149
27924WAT     H184014   8.162   0.495   3.219
27924WAT     H284015   8.065   0.412   3.117
27925WAT      O84016   5.031   3.765   5.124
27925WAT     H184017   4.994   3.759   5.217
27925WAT     H284018   5.089   3.685   5.106
27926WAT      O84019   1.006   5.524   3.051
27926WAT     H184020   0.997   5.427   3.028
27926WAT     H284021   1.097   5.556   3.024
27927WAT      O84022   0.047   4.317   3.511
27927WAT     H184023  -0.023   4.326   3.582
27927WAT     H284024   0.014   4.358   3.426
27928WAT      O84025   6.513   0.421   7.430
27928WAT     H184026   6.504   0.518   7.408
27928WAT     H284027   6.596   0.384   7.388
27929WAT      O84028   8.785   5.831   4.096
27929WAT     H184029   8.762   5.881   4.179
27929WAT     H284030   8.704   5.826   4.037
27930WAT      O84031   1.838   8.647   1.884
27930WAT     H184032   1.936   8.668   1.884
27930WAT     H284033   1.819   8.576   1.952
27931WAT      O84034   6.489   7.844   0.385
27931WAT     H184035   6.417   7.914   0.380
27931WAT     H284036   6.491   7.791   0.301
27932WAT      O84037   0.121   0.349   5.496
27932WAT     H184038   0.067   0.368   5.578
27932WAT     H284039   0.061   0.353   5.416
27933WAT      O84040   8.306   3.838   6.426
27933WAT     H184041   8.234   3.900   6.397
27933WAT     H284042   8.327   3.774   6.352
27934WAT      O84043   8.842   6.751   9.621
27934WAT     H184044   8.829   6.692   9.700
27934WAT     H284045   8.754   6.769   9.578
27935WAT      O84046   7.235   8.636   7.618
27935WAT     H184047   7.154   8.686   7.586
27935WAT     H284048   7.206   8.554   7.667
27936WAT      O84049   4.397   1.175   4.923
27936WAT     H184050   4.491   1.146   4.938
27936WAT     H284051   4.369   1.236   4.997
27937WAT      O84052   9.519   4.822   4.800
27937WAT     H184053   9.556   4.819   4.707
27937WAT     H284054   9.577   4.769   4.861
27938WAT      O84055   5.072   7.442   1.311
27938WAT     H184056   5.097   7.501   1.234
27938WAT     H284057   5.151   7.431   1.371
27939WAT      O84058   5.049   6.369   6.505
27939WAT     H184059   5.057   6.269   6.511
27939WAT     H284060   4.960   6.397   6.540
27940WAT      O84061   5.300   5.970   4.529
27940WAT     H184062   5.274   6.067   4.526
27940WAT     H284063   5.234   5.916   4.476
27941WAT      O84064   3.428   4.132   2.090
27941WAT     H184065   3.442   4.226   2.057
27941WAT     H284066   3.516   4.085   2.094
27942WAT      O84067   1.686   0.324   1.091
27942WAT     H184068   1.643   0.314   1.181
27942WAT     H284069   1.767   0.381   1.100
27943WAT      O84070   7.893   7.499   8.797
27943WAT     H184071   7.967   7.440   8.830
27943WAT     H284072   7.806   7.469   8.837
27944WAT      O84073   4.549   4.178   8.634
27944WAT     H184074   4.492   4.113   8.685
27944WAT     H284075   4.627   4.205   8.691
27945WAT      O84076   3.353   6.155   3.008
27945WAT     H184077   3.279   6.100   2.969
27945WAT     H284078   3.430   6.158   2.944
27946WAT      O84079   0.866   2.810   2.185
27946WAT     H184080   0.915   2.729   2.152
27946WAT     H284081   0.771   2.785   2.205
27947WAT      O84082   5.684   7.026   1.215
27947WAT     H184083   5.600   7.040   1.267
27947WAT     H284084   5.665   6.969   1.135
27948WAT      O84085   5.728   8.959   6.647
27948WAT     H184086   5.770   9.040   6.687
27948WAT     H284087   5.724   8.969   6.548
27949WAT      O84088   4.764   9.464   2.649
27949WAT     H184089   4.801   9.548   2.609
27949WAT     H284090   4.801   9.451   2.741
27950WAT      O84091   5.710   3.692   5.892
27950WAT     H184092   5.714   3.592   5.896
27950WAT     H284093   5.615   3.721   5.880
27951WAT      O84094   0.223   1.064   9.883
27951WAT     H184095   0.315   1.041   9.914
27951WAT     H284096   0.187   0.989   9.828
27952WAT      O84097   1.560   6.313   8.052
27952WAT     H184098   1.514   6.398   8.027
27952WAT     H284099   1.501   6.235   8.030
27953WAT      O84100   7.578   2.777   5.183
27953WAT     H184101   7.671   2.799   5.213
27953WAT     H284102   7.571   2.793   5.084
27954WAT      O84103   6.544   4.206   9.586
27954WAT     H184104   6.477   4.149   9.540
27954WAT     H284105   6.532   4.301   9.559
27955WAT      O84106   5.892   3.522   2.280
27955WAT     H184107   5.936   3.608   2.252
27955WAT     H284108   5.815   3.543   2.340
27956WAT      O84109   1.765   0.759   1.001
27956WAT     H184110   1.863   0.738   0.992
27956WAT     H284111   1.727   0.778   0.911
27957WAT      O84112   9.784   3.277   5.325
27957WAT     H184113   9.756   3.232   5.410
27957WAT     H284114   9.716   3.259   5.254
27958WAT      O84115   4.709   5.689   1.822
27958WAT     H184116   4.743   5.598   1.844
27958WAT     H284117   4.628   5.682   1.763
27959WAT      O84118   6.970   5.203   1.899
27959WAT     H184119   6.991   5.107   1.877
27959WAT     H284120   7.042   5.239   1.958
27960WAT      O84121   3.200   9.438   3.575
27960WAT     H184122   3.154   9.483   3.498
27960WAT     H284123   3.134   9.420   3.647
27961WAT      O84124   0.300   6.132   4.435
27961WAT     H184125   0.205   6.119   4.462
27961WAT     H284126   0.304   6.168   4.342
27962WAT      O84127   8.403   4.931   6.105
27962WAT     H184128   8.372   5.010   6.159
27962WAT     H284129   8.452   4.867   6.164
27963WAT      O84130   3.256   1.270   1.349
27963WAT     H184131   3.310   1.187   1.365
27963WAT     H284132   3.307   1.350   1.380
27964WAT      O84133   2.401   4.538   2.370
27964WAT     H184134   2.304   4.524   2.348
27964WAT     H284135   2.430   4.628   2.337
27965WAT      O84136   1.619   5.330   3.560
27965WAT     H184137   1.684   5.386   3.611
27965WAT     H284138   1.527   5.345   3.597
27966WAT      O84139   4.444   1.074   2.687
27966WAT     H184140   4.467   1.150   2.748
27966WAT     H284141   4.348   1.051   2.698
27967WAT      O84142   0.010   0.967   9.083
27967WAT     H184143   0.006   0.900   9.157
27967WAT     H284144   0.042   1.054   9.120
27968WAT      O84145   7.009   1.555   3.815
27968WAT     H184146   6.988   1.463   3.783
27968WAT     H284147   6.932   1.616   3.796
27969WAT      O84148   2.194   8.384   8.054
27969WAT     H184149   2.184   8.347   7.962
27969WAT     H284150   2.109   8.429   8.082
27970WAT      O84151   9.462   5.734   6.420
27970WAT     H184152   9.367   5.756   6.445
27970WAT     H284153   9.466   5.640   6.385
27971WAT      O84154   8.070   3.925   4.307
27971WAT     H184155   8.146   3.898   4.366
27971WAT     H284156   8.080   4.021   4.280
27972WAT      O84157   8.412   8.220   9.739
27972WAT     H184158   8.406   8.265   9.650
27972WAT     H284159   8.457   8.132   9.728
27973WAT      O84160   7.900   8.168   4.715
27973WAT     H184161   7.952   8.107   4.776
27973WAT     H284162   7.803   8.159   4.736
27974WAT      O84163   0.451   1.011   0.152
27974WAT     H184164   0.438   1.040   0.246
27974WAT     H284165   0.494   0.921   0.150
27975WAT      O84166   9.265   8.638   3.776
27975WAT     H184167   9.346   8.657   3.720
27975WAT     H284168   9.289   8.643   3.873
27976WAT      O84169   0.425   3.781   3.333
27976WAT     H184170   0.437   3.702   3.274
27976WAT     H284171   0.432   3.865   3.279
27977WAT      O84172   5.280   2.448   3.099
27977WAT     H184173   5.214   2.476   3.030
27977WAT     H284174   5.274   2.509   3.177
27978WAT      O84175   4.443   5.699   7.266
27978WAT     H184176   4.361   5.676   7.319
27978WAT     H284177   4.427   5.785   7.217
27979WAT      O84178   8.266   0.311   7.898
27979WAT     H184179   8.199   0.383   7.881
27979WAT     H284180   8.345   0.324   7.838
27980WAT      O84181   3.759   9.653   6.740
27980WAT     H184182   3.788   9.749   6.740
27980WAT     H284183   3.673   9.644   6.689
27981WAT      O84184   8.544   8.168   7.303
27981WAT     H184185   8.519   8.126   7.216
27981WAT     H284186   8.598   8.250   7.286
27982WAT      O84187   8.522   3.553   9.147
27982WAT     H184188   8.595   3.510   9.094
27982WAT     H284189   8.557   3.635   9.192
27983WAT      O84190   4.181   2.862   0.420
27983WAT     H184191   4.225   2.884   0.508
27983WAT     H284192   4.221   2.919   0.348
27984WAT      O84193   2.526   0.811   7.448
27984WAT     H184194   2.535   0.827   7.349
27984WAT     H284195   2.542   0.714   7.467
27985WAT      O84196   0.806   8.047   1.654
27985WAT     H184197   0.892   8.002   1.676
27985WAT     H284198   0.798   8.133   1.706
27986WAT      O84199   4.247   6.246   0.268
27986WAT     H184200   4.216   6.262   0.361
27986WAT     H284201   4.265   6.149   0.254
27987WAT      O84202   1.744   0.490   5.842
27987WAT     H184203   1.646   0.509   5.835
27987WAT     H284204   1.777   0.456   5.754
27988WAT      O84205   1.151   1.448   6.972
27988WAT     H184206   1.244   1.463   6.936
27988WAT     H284207   1.150   1.365   7.027
27989WAT      O84208   4.833   8.182   3.021
27989WAT     H184209   4.883   8.097   3.033
27989WAT     H284210   4.747   8.178   3.073
27990WAT      O84211   8.831   5.618   1.346
27990WAT     H184212   8.922   5.605   1.308
27990WAT     H284213   8.810   5.543   1.410
27991WAT      O84214   5.633   0.699   8.101
27991WAT     H184215   5.554   0.735   8.151
27991WAT     H284216   5.619   0.712   8.003
27992WAT      O84217   9.701   5.663   6.826
27992WAT     H184218   9.719   5.737   6.890
27992WAT     H284219   9.786   5.639   6.778
27993WAT      O84220   3.651   4.742   8.148
27993WAT     H184221   3.583   4.765   8.218
27993WAT     H284222   3.675   4.825   8.097
27994WAT      O84223   8.889   3.131   7.426
27994WAT     H184224   8.941   3.048   7.406
27994WAT     H284225   8.952   3.207   7.440
27995WAT      O84226   5.430   9.360   5.851
27995WAT     H184227   5.432   9.283   5.915
27995WAT     H284228   5.387   9.331   5.766
27996WAT      O84229   6.139   3.359   9.838
27996WAT     H184230   6.099   3.280   9.884
27996WAT     H284231   6.069   3.406   9.785
27997WAT      O84232   2.046   6.054   7.644
27997WAT     H184233   2.062   5.986   7.573
27997WAT     H284234   2.045   6.010   7.733
27998WAT      O84235   4.297   0.822   4.951
27998WAT     H184236   4.246   0.859   5.030
27998WAT     H284237   4.308   0.894   4.882
27999WAT      O84238   0.585   8.153   9.710
27999WAT     H184239   0.531   8.074   9.683
27999WAT     H284240   0.574   8.226   9.642
28000WAT      O84241   7.762   0.300   1.657
28000WAT     H184242   7.710   0.270   1.736
28000WAT     H284243   7.768   0.226   1.591
28001WAT      O84244   9.702   1.495   0.619
28001WAT     H184245   9.644   1.540   0.551
28001WAT     H284246   9.657   1.498   0.708
28002WAT      O84247   6.881   0.298   5.148
28002WAT     H184248   6.876   0.233   5.223
28002WAT     H284249   6.895   0.390   5.185
28003WAT      O84250   3.410   7.171   5.032
28003WAT     H184251   3.447   7.078   5.027
28003WAT     H284252   3.485   7.237   5.038
28004WAT      O84253   5.925   3.426   4.108
28004WAT     H184254   5.864   3.505   4.117
28004WAT     H284255   5.999   3.449   4.045
28005WAT      O84256   0.930   3.544   3.079
28005WAT     H184257   0.931   3.640   3.053
28005WAT     H284258   1.009   3.524   3.137
28006WAT      O84259   2.433   9.222   6.220
28006WAT     H184260   2.470   9.270   6.140
28006WAT     H284261   2.508   9.194   6.280
28007WAT      O84262   1.069   6.780   6.269
28007WAT     H184263   1.068   6.687   6.306
28007WAT     H284264   0.995   6.833   6.309
28008WAT      O84265   4.518   6.081   3.765
28008WAT     H184266   4.539   6.172   3.802
28008WAT     H284267   4.585   6.057   3.695
28009WAT      O84268   5.853   4.792   9.063
28009WAT     H184269   5.903   4.795   9.149
28009WAT     H284270   5.781   4.862   9.063
28010WAT      O84271   2.985   3.418   1.988
28010WAT     H184272   2.927   3.339   2.008
28010WAT     H284273   2.964   3.492   2.052
28011WAT      O84274   1.934   8.501   7.025
28011WAT     H184275   1.920   8.562   7.103
28011WAT     H284276   1.911   8.548   6.941
28012WAT      O84277   8.303   1.233   8.349
28012WAT     H184278   8.274   1.223   8.254
28012WAT     H284279   8.256   1.165   8.405
28013WAT      O84280   9.718   1.242   4.046
28013WAT     H184281   9.723   1.332   4.089
28013WAT     H284282   9.810   1.209   4.027
28014WAT      O84283   6.147   3.566   6.537
28014WAT     H184284   6.109   3.478   6.508
28014WAT     H284285   6.125   3.582   6.633
28015WAT      O84286   1.028   6.792   4.199
28015WAT     H184287   0.942   6.781   4.248
28015WAT     H284288   1.012   6.788   4.101
28016WAT      O84289   3.104   4.317   4.210
28016WAT     H184290   3.114   4.259   4.291
28016WAT     H284291   3.007   4.334   4.193
28017WAT      O84292   3.375   2.248   1.678
28017WAT     H184293   3.304   2.315   1.700
28017WAT     H284294   3.464   2.282   1.709
28018WAT      O84295   0.246   9.361   1.407
28018WAT     H184296   0.263   9.325   1.498
28018WAT     H284297   0.153   9.335   1.378
28019WAT      O84298   0.762   7.704   1.884
28019WAT     H184299   0.746   7.800   1.909
28019WAT     H284300   0.799   7.701   1.790
28020WAT      O84301   1.933   9.768   4.139
28020WAT     H184302   1.935   9.727   4.230
28020WAT     H284303   1.943   9.867   4.146
28021WAT      O84304   3.106   7.970   9.029
28021WAT     H184305   3.192   7.933   8.993
28021WAT     H284306   3.111   8.069   9.033
28022WAT      O84307   5.916   0.596   1.251
28022WAT     H184308   5.891   0.508   1.212
28022WAT     H284309   5.903   0.594   1.350
28023WAT      O84310   1.721   0.053   2.347
28023WAT     H184311   1.704   0.045   2.445
28023WAT     H284312   1.635   0.070   2.300
28024WAT      O84313   3.402   6.512   3.407
28024WAT     H184314   3.392   6.487   3.504
28024WAT     H284315   3.494   6.487   3.376
28025WAT      O84316   2.807   3.892   9.124
28025WAT     H184317   2.797   3.848   9.213
28025WAT     H284318   2.890   3.858   9.079
28026WAT      O84319   4.257   6.073   7.935
28026WAT     H184320   4.187   6.144   7.934
28026WAT     H284321   4.338   6.107   7.983
28027WAT      O84322   9.492   9.622   6.726
28027WAT     H184323   9.579   9.586   6.758
28027WAT     H284324   9.509   9.700   6.665
28028WAT      O84325   2.133   6.910   7.755
28028WAT     H184326   2.053   6.867   7.796
28028WAT     H284327   2.213   6.896   7.813
28029WAT      O84328   6.954   5.773   8.997
28029WAT     H184329   6.912   5.739   8.913
28029WAT     H284330   7.041   5.818   8.974
28030WAT      O84331   2.589   9.785   5.956
28030WAT     H184332   2.526   9.708   5.942
28030WAT     H284333   2.570   9.857   5.890
28031WAT      O84334   3.312   0.170   4.854
28031WAT     H184335   3.321   0.162   4.755
28031WAT     H284336   3.401   0.194   4.893
28032WAT      O84337   6.369   9.517   2.886
28032WAT     H184338   6.292   9.502   2.949
28032WAT     H284339   6.375   9.614   2.864
28033WAT      O84340   4.149   2.720   6.831
28033WAT     H184341   4.222   2.686   6.771
28033WAT     H284342   4.186   2.735   6.923
28034WAT      O84343   5.134   2.616   7.882
28034WAT     H184344   5.192   2.583   7.808
28034WAT     H284345   5.046   2.646   7.846
28035WAT      O84346   3.442   0.131   0.902
28035WAT     H184347   3.485   0.186   0.974
28035WAT     H284348   3.465   0.169   0.813
28036WAT      O84349   8.164   0.574   7.931
28036WAT     H184350   8.239   0.578   7.996
28036WAT     H284351   8.170   0.653   7.869
28037WAT      O84352   9.822   5.973   9.607
28037WAT     H184353   9.806   5.875   9.618
28037WAT     H284354   9.845   6.013   9.696
28038WAT      O84355   6.885   3.708   5.748
28038WAT     H184356   6.830   3.737   5.669
28038WAT     H284357   6.873   3.610   5.763
28039WAT      O84358   8.987   3.271   2.008
28039WAT     H184359   8.925   3.254   2.084
28039WAT     H284360   9.064   3.208   2.013
28040WAT      O84361   6.554   3.463   9.492
28040WAT     H184362   6.583   3.444   9.585
28040WAT     H284363   6.557   3.378   9.438
28041WAT      O84364   7.085   6.335   3.073
28041WAT     H184365   7.138   6.302   3.151
28041WAT     H284366   7.043   6.423   3.096
28042WAT      O84367   2.402   1.418   8.785
28042WAT     H184368   2.341   1.354   8.830
28042WAT     H284369   2.479   1.368   8.745
28043WAT      O84370   2.061   6.324   6.768
28043WAT     H184371   1.963   6.337   6.753
28043WAT     H284372   2.081   6.227   6.779
28044WAT      O84373   5.729   7.649   5.102
28044WAT     H184374   5.722   7.728   5.163
28044WAT     H284375   5.813   7.656   5.048
28045WAT      O84376   2.771   7.569   7.214
28045WAT     H184377   2.848   7.632   7.206
28045WAT     H284378   2.707   7.586   7.139
28046WAT      O84379   3.734   7.566   3.113
28046WAT     H184380   3.818   7.607   3.079
28046WAT     H284381   3.670   7.555   3.037
28047WAT      O84382   0.797   9.408   7.525
28047WAT     H184383   0.720   9.410   7.462
28047WAT     H284384   0.787   9.480   7.593
28048WAT      O84385   9.625   0.575   3.600
28048WAT     H184386   9.648   0.565   3.503
28048WAT     H284387   9.586   0.665   3.616
28049WAT      O84388   3.044   3.686   6.437
28049WAT     H184389   3.031   3.784   6.452
28049WAT     H284390   3.140   3.663   6.451
28050WAT      O84391   5.421   1.294   0.506
28050WAT     H184392   5.376   1.377   0.472
28050WAT     H284393   5.520   1.303   0.494
28051WAT      O84394   5.809   2.432   2.121
28051WAT     H184395   5.908   2.444   2.119
28051WAT     H284396   5.774   2.458   2.211
28052WAT      O84397   2.271   6.434   6.939
28052WAT     H184398   2.265   6.531   6.964
28052WAT     H284399   2.198   6.412   6.874
28053WAT      O84400   9.347   1.205   7.151
28053WAT     H184401   9.276   1.248   7.097
28053WAT     H284402   9.364   1.112   7.116
28054WAT      O84403   7.534   4.464   0.573
28054WAT     H184404   7.500   4.550   0.610
28054WAT     H284405   7.565   4.478   0.479
28055WAT      O84406   3.795   2.665   1.828
28055WAT     H184407   3.700   2.650   1.854
28055WAT     H284408   3.847   2.697   1.908
28056WAT      O84409   4.009   2.313   2.111
28056WAT     H184410   3.953   2.268   2.041
28056WAT     H284411   3.970   2.403   2.132
28057WAT      O84412   7.101   0.352   4.681
28057WAT     H184413   7.112   0.259   4.717
28057WAT     H284414   7.010   0.386   4.704
28058WAT      O84415   8.576   6.376   2.481
28058WAT     H184416   8.544   6.387   2.575
28058WAT     H284417   8.588   6.466   2.439
28059WAT      O84418   9.015   5.142   7.718
28059WAT     H184419   8.934   5.133   7.776
28059WAT     H284420   9.002   5.217   7.653
28060WAT      O84421   0.614   3.841   8.126
28060WAT     H184422   0.635   3.790   8.043
28060WAT     H284423   0.585   3.778   8.198
28061WAT      O84424   4.752   6.206   5.461
28061WAT     H184425   4.659   6.239   5.445
28061WAT     H284426   4.754   6.106   5.454
28062WAT      O84427   1.038   2.277   0.822
28062WAT     H184428   1.089   2.241   0.900
28062WAT     H284429   0.940   2.274   0.842
28063WAT      O84430   5.357   3.500   1.941
28063WAT     H184431   5.339   3.436   1.866
28063WAT     H284432   5.315   3.588   1.919
28064WAT      O84433   7.852   5.395   4.523
28064WAT     H184434   7.779   5.400   4.455
28064WAT     H284435   7.831   5.456   4.599
28065WAT      O84436   4.766   9.348   0.814
28065WAT     H184437   4.694   9.299   0.765
28065WAT     H284438   4.740   9.356   0.911
28066WAT      O84439   9.537   2.388   2.361
28066WAT     H184440   9.439   2.369   2.360
28066WAT     H284441   9.573   2.372   2.454
28067WAT      O84442   1.467   6.560   0.671
28067WAT     H184443   1.539   6.629   0.676
28067WAT     H284444   1.382   6.602   0.639
28068WAT      O84445   0.681   9.625   2.977
28068WAT     H184446   0.635   9.538   2.960
28068WAT     H284447   0.614   9.699   2.970
28069WAT      O84448   6.412   7.042   5.374
28069WAT     H184449   6.348   7.113   5.342
28069WAT     H284450   6.373   6.952   5.355
28070WAT      O84451   2.633   8.074   1.480
28070WAT     H184452   2.538   8.088   1.454
28070WAT     H284453   2.680   8.023   1.408
28071WAT      O84454   0.828   1.358   0.722
28071WAT     H184455   0.866   1.443   0.756
28071WAT     H284456   0.736   1.375   0.685
28072WAT      O84457   4.250   3.454   6.058
28072WAT     H184458   4.178   3.511   6.019
28072WAT     H284459   4.301   3.506   6.126
28073WAT      O84460   1.026   0.665   6.623
28073WAT     H184461   0.969   0.625   6.695
28073WAT     H284462   1.078   0.742   6.661
28074WAT      O84463   7.857   0.069   9.613
28074WAT     H184464   7.915   0.149   9.600
28074WAT     H284465   7.776   0.077   9.555
28075WAT      O84466   7.971   4.196   6.341
28075WAT     H184467   8.052   4.255   6.347
28075WAT     H284468   7.938   4.175   6.433
28076WAT      O84469   0.311   9.689   1.468
28076WAT     H184470   0.360   9.759   1.520
28076WAT     H284471   0.213   9.703   1.478
28077WAT      O84472   8.931   9.117   8.229
28077WAT     H184473   8.967   9.028   8.199
28077WAT     H284474   8.833   9.120   8.213
28078WAT      O84475   2.966   6.293   0.403
28078WAT     H184476   3.001   6.208   0.444
28078WAT     H284477   2.868   6.284   0.387
28079WAT      O84478   6.087   0.763   7.275
28079WAT     H184479   6.105   0.771   7.177
28079WAT     H284480   6.150   0.822   7.325
28080WAT      O84481   5.318   9.772   6.063
28080WAT     H184482   5.403   9.758   6.113
28080WAT     H284483   5.292   9.868   6.066
28081WAT      O84484   5.763   4.629   9.600
28081WAT     H184485   5.789   4.537   9.569
28081WAT     H284486   5.706   4.622   9.681
28082WAT      O84487   9.695   8.885   6.578
28082WAT     H184488   9.790   8.854   6.567
28082WAT     H284489   9.665   8.867   6.671
28083WAT      O84490   1.504   8.028   0.946
28083WAT     H184491   1.536   7.945   0.901
28083WAT     H284492   1.581   8.091   0.958
28084WAT      O84493   8.315   3.145   6.987
28084WAT     H184494   8.406   3.113   6.962
28084WAT     H284495   8.301   3.237   6.948
28085WAT      O84496   4.030   5.671   2.370
28085WAT     H184497   3.945   5.618   2.372
28085WAT     H284498   4.009   5.767   2.352
28086WAT      O84499   4.793   2.521   6.410
28086WAT     H184500   4.698   2.496   6.389
28086WAT     H284501   4.800   2.621   6.420
28087WAT      O84502   2.273   9.203   8.410
28087WAT     H184503   2.259   9.105   8.397
28087WAT     H284504   2.211   9.236   8.481
28088WAT      O84505   8.948   0.894   9.298
28088WAT     H184506   8.975   0.912   9.204
28088WAT     H284507   8.996   0.812   9.331
28089WAT      O84508   6.329   4.558   3.873
28089WAT     H184509   6.309   4.655   3.865
28089WAT     H284510   6.247   4.509   3.904
28090WAT      O84511   7.532   8.277   0.710
28090WAT     H184512   7.552   8.342   0.783
28090WAT     H284513   7.510   8.188   0.749
28091WAT      O84514   0.250   8.517   6.956
28091WAT     H184515   0.312   8.549   7.028
28091WAT     H284516   0.221   8.595   6.900
28092WAT      O84517   6.742   3.969   3.381
28092WAT     H184518   6.682   4.019   3.443
28092WAT     H284519   6.699   3.883   3.354
28093WAT      O84520   7.543   7.825   6.581
28093WAT     H184521   7.474   7.886   6.620
28093WAT     H284522   7.540   7.737   6.629
28094WAT      O84523   3.027   1.865   3.265
28094WAT     H184524   2.964   1.789   3.245
28094WAT     H284525   2.977   1.951   3.261
28095WAT      O84526   9.058   7.850   7.845
28095WAT     H184527   8.959   7.839   7.841
28095WAT     H284528   9.080   7.945   7.868
28096WAT      O84529   7.795   2.569   6.378
28096WAT     H184530   7.833   2.598   6.466
28096WAT     H284531   7.859   2.506   6.334
28097WAT      O84532   4.519   3.797   2.395
28097WAT     H184533   4.455   3.866   2.360
28097WAT     H284534   4.539   3.816   2.491
28098WAT      O84535   2.325   1.293   9.275
28098WAT     H184536   2.233   1.269   9.246
28098WAT     H284537   2.348   1.244   9.359
28099WAT      O84538   1.497   2.650   1.595
28099WAT     H184539   1.466   2.555   1.596
28099WAT     H284540   1.501   2.684   1.689
28100WAT      O84541   0.560   0.878   5.851
28100WAT     H184542   0.600   0.799   5.806
28100WAT     H284543   0.463   0.861   5.870
28101WAT      O84544   5.315   0.404   5.964
28101WAT     H184545   5.246   0.473   5.985
28101WAT     H284546   5.308   0.378   5.868
28102WAT      O84547   0.884   7.639   9.005
28102WAT     H184548   0.935   7.725   8.999
28102WAT     H284549   0.822   7.642   9.084
28103WAT      O84550   0.468   0.505   8.546
28103WAT     H184551   0.374   0.473   8.551
28103WAT     H284552   0.518   0.453   8.477
28104WAT      O84553   0.874   6.963   1.197
28104WAT     H184554   0.816   6.887   1.226
28104WAT     H284555   0.824   7.021   1.133
28105WAT      O84556   7.012   7.156   3.646
28105WAT     H184557   6.941   7.225   3.660
28105WAT     H284558   7.102   7.196   3.662
28106WAT      O84559   7.215   9.510   1.725
28106WAT     H184560   7.227   9.609   1.725
28106WAT     H284561   7.189   9.480   1.634
28107WAT      O84562   2.590   7.403   2.614
28107WAT     H184563   2.534   7.432   2.537
28107WAT     H284564   2.671   7.461   2.621
28108WAT      O84565   0.972   7.704   6.445
28108WAT     H184566   0.914   7.712   6.525
28108WAT     H284567   0.922   7.657   6.372
28109WAT      O84568   0.318   6.490   8.901
28109WAT     H184569   0.306   6.407   8.956
28109WAT     H284570   0.302   6.570   8.958
28110WAT      O84571   4.751   0.969   5.669
28110WAT     H184572   4.725   0.918   5.586
28110WAT     H284573   4.669   1.007   5.711
28111WAT      O84574   9.681   5.596   6.152
28111WAT     H184575   9.625   5.565   6.076
28111WAT     H284576   9.675   5.696   6.159
28112WAT      O84577   1.467   6.088   2.489
28112WAT     H184578   1.441   5.992   2.491
28112WAT     H284579   1.537   6.105   2.558
28113WAT      O84580   5.649   4.237   0.071
28113WAT     H184581   5.710   4.164   0.099
28113WAT     H284582   5.630   4.296   0.149
28114WAT      O84583   8.214   8.769   9.713
28114WAT     H184584   8.167   8.826   9.781
28114WAT     H284585   8.310   8.761   9.737
28115WAT      O84586   6.477   6.801   6.527
28115WAT     H184587   6.523   6.845   6.604
28115WAT     H284588   6.430   6.870   6.472
28116WAT      O84589   4.582   0.048   3.892
28116WAT     H184590   4.623   0.011   3.975
28116WAT     H284591   4.525   0.126   3.915
28117WAT      O84592   6.923   1.130   0.083
28117WAT     H184593   6.930   1.228   0.104
28117WAT     H284594   7.011   1.096   0.050
28118WAT      O84595   9.443   9.070   4.734
28118WAT     H184596   9.438   9.112   4.825
28118WAT     H284597   9.538   9.069   4.703
28119WAT      O84598   5.969   1.645   5.876
28119WAT     H184599   5.933   1.736   5.894
28119WAT     H284600   5.894   1.579   5.870
28120WAT      O84601   1.178   9.549   1.513
28120WAT     H184602   1.265   9.592   1.492
28120WAT     H284603   1.134   9.597   1.589
28121WAT      O84604   5.757   3.188   3.293
28121WAT     H184605   5.847   3.157   3.326
28121WAT     H284606   5.758   3.191   3.193
28122WAT      O84607   3.777   2.096   8.795
28122WAT     H184608   3.841   2.169   8.819
28122WAT     H284609   3.826   2.008   8.793
28123WAT      O84610   6.842   3.542   5.164
28123WAT     H184611   6.852   3.523   5.262
28123WAT     H284612   6.790   3.468   5.122
28124WAT      O84613   0.652   6.263   1.290
28124WAT     H184614   0.600   6.348   1.292
28124WAT     H284615   0.672   6.234   1.384
28125WAT      O84616   8.632   8.577   3.873
28125WAT     H184617   8.619   8.628   3.958
28125WAT     H284618   8.657   8.640   3.799
28126WAT      O84619   2.220   5.776   9.480
28126WAT     H184620   2.151   5.848   9.473
28126WAT     H284621   2.196   5.713   9.553
28127WAT      O84622   7.358   9.168   7.317
28127WAT     H184623   7.446   9.125   7.301
28127WAT     H284624   7.370   9.267   7.322
28128WAT      O84625   9.560   1.154   4.232
28128WAT     H184626   9.561   1.055   4.216
28128WAT     H284627   9.613   1.200   4.160
28129WAT      O84628   2.662   7.879   4.488
28129WAT     H184629   2.628   7.888   4.582
28129WAT     H284630   2.728   7.804   4.484
28130WAT      O84631   9.637   1.909   5.551
28130WAT     H184632   9.550   1.956   5.563
28130WAT     H284633   9.699   1.932   5.626
28131WAT      O84634   2.593   8.696   6.412
28131WAT     H184635   2.665   8.628   6.429
28131WAT     H284636   2.607   8.738   6.323
28132WAT      O84637   1.884   7.498   7.692
28132WAT     H184638   1.825   7.506   7.773
28132WAT     H284639   1.955   7.430   7.709
28133WAT      O84640   0.655   8.324   4.478
28133WAT     H184641   0.591   8.340   4.553
28133WAT     H284642   0.708   8.241   4.498
28134WAT      O84643   4.178   3.736   9.570
28134WAT     H184644   4.158   3.721   9.667
28134WAT     H284645   4.092   3.753   9.520
28135WAT      O84646   1.296   3.984   2.526
28135WAT     H184647   1.378   3.993   2.468
28135WAT     H284648   1.324   3.979   2.622
28136WAT      O84649   8.527   0.199   3.213
28136WAT     H184650   8.533   0.219   3.115
28136WAT     H284651   8.431   0.194   3.240
28137WAT      O84652   5.115   9.273   1.691
28137WAT     H184653   5.070   9.267   1.780
28137WAT     H284654   5.067   9.339   1.634
28138WAT      O84655   8.649   4.985   7.263
28138WAT     H184656   8.716   5.056   7.241
28138WAT     H284657   8.640   4.923   7.186
28139WAT      O84658   8.335   7.196   1.488
28139WAT     H184659   8.259   7.142   1.525
28139WAT     H284660   8.323   7.292   1.514
28140WAT      O84661   1.492   4.856   5.148
28140WAT     H184662   1.457   4.856   5.242
28140WAT     H284663   1.435   4.915   5.091
28141WAT      O84664   4.442   4.171   5.426
28141WAT     H184665   4.515   4.151   5.360
28141WAT     H284666   4.451   4.109   5.504
28142WAT      O84667   2.924   9.184   5.996
28142WAT     H184668   3.021   9.158   5.990
28142WAT     H284669   2.906   9.219   6.088
28143WAT      O84670   8.415   5.571   6.736
28143WAT     H184671   8.381   5.548   6.645
28143WAT     H284672   8.353   5.636   6.779
28144WAT      O84673   0.023   1.116   2.169
28144WAT     H184674  -0.040   1.050   2.126
28144WAT     H284675  -0.030   1.193   2.204
28145WAT      O84676   7.450   1.609   2.170
28145WAT     H184677   7.425   1.614   2.073
28145WAT     H284678   7.458   1.702   2.207
28146WAT      O84679   6.851   3.407   4.358
28146WAT     H184680   6.932   3.350   4.376
28146WAT     H284681   6.855   3.443   4.265
28147WAT      O84682   2.906   2.442   4.996
28147WAT     H184683   2.818   2.489   4.988
28147WAT     H284684   2.974   2.489   4.938
28148WAT      O84685   6.745   9.542   3.108
28148WAT     H184686   6.666   9.481   3.100
28148WAT     H284687   6.799   9.515   3.188
28149WAT      O84688   0.357   8.552   1.626
28149WAT     H184689   0.411   8.630   1.595
28149WAT     H284690   0.406   8.467   1.606
28150WAT      O84691   4.198   4.857   4.047
28150WAT     H184692   4.152   4.859   4.136
28150WAT     H284693   4.169   4.776   3.997
28151WAT      O84694   9.870   9.139   4.440
28151WAT     H184695   9.964   9.121   4.410
28151WAT     H284696   9.852   9.237   4.439
28152WAT      O84697   9.700   6.495   9.428
28152WAT     H184698   9.648   6.437   9.366
28152WAT     H284699   9.636   6.551   9.482
28153WAT      O84700   6.436   7.886   9.850
28153WAT     H184701   6.449   7.968   9.905
28153WAT     H284702   6.465   7.806   9.903
28154WAT      O84703   2.810   6.695   1.137
28154WAT     H184704   2.802   6.682   1.038
28154WAT     H284705   2.819   6.606   1.182
28155WAT      O84706   3.145   2.451   2.570
28155WAT     H184707   3.047   2.441   2.584
28155WAT     H284708   3.185   2.363   2.546
28156WAT      O84709   1.909   2.974   7.449
28156WAT     H184710   1.824   3.015   7.482
28156WAT     H284711   1.890   2.918   7.369
28157WAT      O84712   9.109   7.331   0.652
28157WAT     H184713   9.010   7.346   0.646
28157WAT     H284714   9.135   7.259   0.589
28158WAT      O84715   1.140   4.394   2.943
28158WAT     H184716   1.050   4.437   2.932
28158WAT     H284717   1.147   4.354   3.034
28159WAT      O84718   2.135   4.168   8.781
28159WAT     H184719   2.154   4.135   8.874
28159WAT     H284720   2.194   4.119   8.716
28160WAT      O84721   4.476   2.756   6.691
28160WAT     H184722   4.480   2.712   6.780
28160WAT     H284723   4.569   2.773   6.658
28161WAT      O84724   6.796   7.630   5.906
28161WAT     H184725   6.861   7.630   5.982
28161WAT     H284726   6.844   7.615   5.820
28162WAT      O84727   1.436   3.933   0.434
28162WAT     H184728   1.406   3.951   0.527
28162WAT     H284729   1.392   3.998   0.371
28163WAT      O84730   3.868   7.549   4.656
28163WAT     H184731   3.786   7.579   4.607
28163WAT     H284732   3.922   7.488   4.597
28164WAT      O84733   7.560   3.770   4.747
28164WAT     H184734   7.533   3.752   4.842
28164WAT     H284735   7.507   3.847   4.712
28165WAT      O84736   5.670   3.155   6.007
28165WAT     H184737   5.645   3.120   6.098
28165WAT     H284738   5.753   3.108   5.976
28166WAT      O84739   3.655   3.791   7.170
28166WAT     H184740   3.641   3.718   7.102
28166WAT     H284741   3.712   3.863   7.130
28167WAT      O84742   7.215   2.651   8.155
28167WAT     H184743   7.155   2.731   8.148
28167WAT     H284744   7.185   2.580   8.092
28168WAT      O84745   6.160   0.823   7.019
28168WAT     H184746   6.259   0.831   7.029
28168WAT     H284747   6.117   0.910   7.044
28169WAT      O84748   8.717   4.484   8.331
28169WAT     H184749   8.781   4.412   8.305
28169WAT     H284750   8.726   4.561   8.268
28170WAT      O84751   4.814   0.825   0.403
28170WAT     H184752   4.794   0.798   0.308
28170WAT     H284753   4.869   0.754   0.446
28171WAT      O84754   3.861   0.784   8.538
28171WAT     H184755   3.799   0.810   8.465
28171WAT     H284756   3.846   0.689   8.564
28172WAT      O84757   3.520   8.858   6.292
28172WAT     H184758   3.510   8.819   6.384
28172WAT     H284759   3.553   8.952   6.300
28173WAT      O84760   5.312   0.233   5.034
28173WAT     H184761   5.275   0.142   5.014
28173WAT     H284762   5.244   0.302   5.009
28174WAT      O84763   8.694   2.523   8.136
28174WAT     H184764   8.720   2.592   8.203
28174WAT     H284765   8.648   2.566   8.059
28175WAT      O84766   6.558   7.023   6.940
28175WAT     H184767   6.536   7.119   6.920
28175WAT     H284768   6.531   7.002   7.034
28176WAT      O84769   0.617   6.396   5.429
28176WAT     H184770   0.545   6.395   5.498
28176WAT     H284771   0.690   6.458   5.459
28177WAT      O84772   6.790   7.029   9.209
28177WAT     H184773   6.789   7.009   9.307
28177WAT     H284774   6.781   7.127   9.195
28178WAT      O84775   1.901   7.353   8.640
28178WAT     H184776   1.873   7.308   8.725
28178WAT     H284777   1.820   7.369   8.583
28179WAT      O84778   9.567   8.494   0.746
28179WAT     H184779   9.541   8.501   0.842
28179WAT     H284780   9.504   8.547   0.690
28180WAT      O84781   6.903   8.765   2.293
28180WAT     H184782   6.946   8.693   2.347
28180WAT     H284783   6.929   8.854   2.330
28181WAT      O84784   0.017   3.331   0.938
28181WAT     H184785   0.074   3.279   1.001
28181WAT     H284786  -0.028   3.268   0.875
28182WAT      O84787   7.909   8.202   5.936
28182WAT     H184788   7.961   8.288   5.944
28182WAT     H284789   7.912   8.170   5.842
28183WAT      O84790   4.308   9.407   0.651
28183WAT     H184791   4.300   9.334   0.719
28183WAT     H284792   4.217   9.441   0.628
28184WAT      O84793   5.789   0.691   9.557
28184WAT     H184794   5.884   0.710   9.531
28184WAT     H284795   5.738   0.777   9.561
28185WAT      O84796   8.052   4.674   3.867
28185WAT     H184797   8.132   4.718   3.827
28185WAT     H284798   8.058   4.575   3.854
28186WAT      O84799   4.599   2.585   2.313
28186WAT     H184800   4.532   2.600   2.240
28186WAT     H284801   4.623   2.488   2.316
28187WAT      O84802   8.215   6.775   0.425
28187WAT     H184803   8.283   6.837   0.388
28187WAT     H284804   8.127   6.790   0.379
28188WAT      O84805   8.878   1.892   1.483
28188WAT     H184806   8.949   1.925   1.544
28188WAT     H284807   8.861   1.960   1.411
28189WAT      O84808   6.063   1.840   7.567
28189WAT     H184809   6.099   1.862   7.657
28189WAT     H284810   6.104   1.754   7.534
28190WAT      O84811   0.853   7.887   5.793
28190WAT     H184812   0.759   7.880   5.826
28190WAT     H284813   0.917   7.864   5.866
28191WAT      O84814   4.396   1.369   9.255
28191WAT     H184815   4.393   1.341   9.351
28191WAT     H284816   4.469   1.436   9.241
28192WAT      O84817   2.254   3.097   4.138
28192WAT     H184818   2.279   3.037   4.215
28192WAT     H284819   2.322   3.169   4.129
28193WAT      O84820   1.172   6.221   5.153
28193WAT     H184821   1.077   6.193   5.165
28193WAT     H284822   1.189   6.304   5.207
28194WAT      O84823   9.880   9.515   1.662
28194WAT     H184824   9.921   9.597   1.622
28194WAT     H284825   9.860   9.532   1.758
28195WAT      O84826   7.413   7.497   2.090
28195WAT     H184827   7.459   7.409   2.102
28195WAT     H284828   7.322   7.494   2.131
28196WAT      O84829   3.447   1.061   7.351
28196WAT     H184830   3.367   1.106   7.310
28196WAT     H284831   3.483   0.993   7.288
28197WAT      O84832   7.729   8.888   0.167
28197WAT     H184833   7.770   8.891   0.075
28197WAT     H284834   7.714   8.981   0.200
28198WAT      O84835   8.404   9.224   5.746
28198WAT     H184836   8.325   9.222   5.685
28198WAT     H284837   8.472   9.289   5.711
28199WAT      O84838   3.616   8.824   6.727
28199WAT     H184839   3.605   8.791   6.821
28199WAT     H284840   3.711   8.851   6.713
28200WAT      O84841   1.183   8.339   0.942
28200WAT     H184842   1.085   8.348   0.961
28200WAT     H284843   1.205   8.242   0.929
28201WAT      O84844   7.939   1.967   4.870
28201WAT     H184845   8.035   1.947   4.889
28201WAT     H284846   7.885   1.956   4.953
28202WAT      O84847   5.108   8.412   3.911
28202WAT     H184848   5.207   8.421   3.919
28202WAT     H284849   5.076   8.468   3.834
28203WAT      O84850   5.030   3.661   2.579
28203WAT     H184851   4.979   3.603   2.643
28203WAT     H284852   5.083   3.603   2.517
28204WAT      O84853   5.613   8.027   2.604
28204WAT     H184854   5.552   8.033   2.525
28204WAT     H284855   5.673   7.947   2.593
28205WAT      O84856   8.600   3.978   9.064
28205WAT     H184857   8.559   3.904   9.010
28205WAT     H284858   8.683   4.009   9.019
28206WAT      O84859   8.298   8.160   8.205
28206WAT     H184860   8.275   8.132   8.299
28206WAT     H284861   8.270   8.255   8.192
28207WAT      O84862   2.408   3.115   9.154
28207WAT     H184863   2.457   3.145   9.236
28207WAT     H284864   2.312   3.140   9.162
28208WAT      O84865   3.253   8.487   6.866
28208WAT     H184866   3.197   8.406   6.849
28208WAT     H284867   3.223   8.562   6.806
28209WAT      O84868   5.828   2.608   3.235
28209WAT     H184869   5.796   2.703   3.247
28209WAT     H284870   5.756   2.554   3.191
28210WAT      O84871   9.749   1.200   6.032
28210WAT     H184872   9.751   1.180   5.934
28210WAT     H284873   9.682   1.271   6.050
28211WAT      O84874   8.964   7.565   7.678
28211WAT     H184875   8.960   7.545   7.580
28211WAT     H284876   8.960   7.664   7.692
28212WAT      O84877   4.156   2.010   3.183
28212WAT     H184878   4.076   1.998   3.241
28212WAT     H284879   4.236   2.029   3.240
28213WAT      O84880   9.801   1.028   6.906
28213WAT     H184881   9.762   1.115   6.874
28213WAT     H284882   9.726   0.964   6.924
28214WAT      O84883   3.637   2.971   0.682
28214WAT     H184884   3.571   2.981   0.756
28214WAT     H284885   3.595   2.923   0.605
28215WAT      O84886   4.909   1.734   2.877
28215WAT     H184887   4.898   1.636   2.861
28215WAT     H284888   4.832   1.768   2.931
28216WAT      O84889   2.244   6.661   5.183
28216WAT     H184890   2.190   6.666   5.268
28216WAT     H284891   2.339   6.643   5.205
28217WAT      O84892   9.673   4.820   2.651
28217WAT     H184893   9.754   4.855   2.604
28217WAT     H284894   9.690   4.727   2.682
28218WAT      O84895   3.986   5.528   1.889
28218WAT     H184896   3.891   5.552   1.909
28218WAT     H284897   3.996   5.509   1.791
28219WAT      O84898   7.299   1.122   2.713
28219WAT     H184899   7.316   1.216   2.743
28219WAT     H284900   7.220   1.120   2.653
28220WAT      O84901   8.672   4.411   6.686
28220WAT     H184902   8.765   4.415   6.721
28220WAT     H284903   8.624   4.496   6.708
28221WAT      O84904   0.922   6.022   7.629
28221WAT     H184905   0.829   6.056   7.623
28221WAT     H284906   0.956   6.000   7.538
28222WAT      O84907   3.386   8.117   5.794
28222WAT     H184908   3.479   8.098   5.764
28222WAT     H284909   3.384   8.130   5.893
28223WAT      O84910   0.809   9.568   7.003
28223WAT     H184911   0.907   9.561   7.017
28223WAT     H284912   0.776   9.656   7.039
28224WAT      O84913   6.116   4.575   5.480
28224WAT     H184914   6.141   4.482   5.453
28224WAT     H284915   6.140   4.590   5.576
28225WAT      O84916   2.097   3.978   2.292
28225WAT     H184917   2.008   3.933   2.287
28225WAT     H284918   2.104   4.046   2.220
28226WAT      O84919   9.089   0.061   9.476
28226WAT     H184920   9.014   0.029   9.417
28226WAT     H284921   9.057   0.139   9.530
28227WAT      O84922   5.079   9.599   6.717
28227WAT     H184923   5.088   9.500   6.722
28227WAT     H284924   5.157   9.642   6.761
28228WAT      O84925   6.786   6.059   5.483
28228WAT     H184926   6.754   6.131   5.422
28228WAT     H284927   6.817   5.980   5.429
28229WAT      O84928   0.259   2.805   0.829
28229WAT     H184929   0.357   2.825   0.833
28229WAT     H284930   0.208   2.891   0.819
28230WAT      O84931   3.888   3.430   6.496
28230WAT     H184932   3.919   3.480   6.577
28230WAT     H284933   3.959   3.434   6.426
28231WAT      O84934   7.070   9.214   3.289
28231WAT     H184935   7.152   9.209   3.233
28231WAT     H284936   7.095   9.207   3.385
28232WAT      O84937   9.205   7.146   0.276
28232WAT     H184938   9.175   7.232   0.235
28232WAT     H284939   9.303   7.135   0.261
28233WAT      O84940   6.451   0.019   9.502
28233WAT     H184941   6.509   0.097   9.525
28233WAT     H284942   6.489  -0.064   9.542
28234WAT      O84943   3.260   5.139   3.803
28234WAT     H184944   3.163   5.161   3.803
28234WAT     H284945   3.276   5.056   3.856
28235WAT      O84946   2.089   4.190   1.696
28235WAT     H184947   2.143   4.211   1.778
28235WAT     H284948   2.008   4.249   1.694
28236WAT      O84949   4.323   8.342   9.321
28236WAT     H184950   4.370   8.304   9.401
28236WAT     H284951   4.340   8.284   9.242
28237WAT      O84952   7.615   6.315   5.463
28237WAT     H184953   7.628   6.218   5.483
28237WAT     H284954   7.561   6.325   5.379
28238WAT      O84955   9.039   3.610   6.911
28238WAT     H184956   9.019   3.678   6.981
28238WAT     H284957   8.958   3.552   6.897
28239WAT      O84958   4.639   0.881   1.866
28239WAT     H184959   4.573   0.955   1.881
28239WAT     H284960   4.610   0.799   1.916
28240WAT      O84961   8.964   0.763   5.944
28240WAT     H184962   8.888   0.771   5.880
28240WAT     H284963   8.961   0.840   6.008
28241WAT      O84964   1.395   9.478   5.586
28241WAT     H184965   1.344   9.555   5.623
28241WAT     H284966   1.331   9.406   5.557
28242WAT      O84967   3.955   1.957   2.939
28242WAT     H184968   4.010   2.019   2.883
28242WAT     H284969   4.016   1.898   2.994
28243WAT      O84970   4.602   6.468   1.793
28243WAT     H184971   4.604   6.560   1.832
28243WAT     H284972   4.513   6.426   1.809
28244WAT      O84973   4.272   0.580   1.981
28244WAT     H184974   4.324   0.508   2.028
28244WAT     H284975   4.183   0.591   2.024
28245WAT      O84976   1.993   2.583   2.724
28245WAT     H184977   1.961   2.618   2.636
28245WAT     H284978   1.960   2.642   2.798
28246WAT      O84979   1.160   4.781   4.646
28246WAT     H184980   1.218   4.720   4.700
28246WAT     H284981   1.178   4.876   4.673
28247WAT      O84982   2.675   6.535   4.586
28247WAT     H184983   2.691   6.476   4.666
28247WAT     H284984   2.760   6.581   4.561
28248WAT      O84985   9.879   9.093   2.807
28248WAT     H184986   9.836   9.131   2.725
28248WAT     H284987   9.947   9.024   2.781
28249WAT      O84988   6.072   4.374   3.647
28249WAT     H184989   6.115   4.290   3.614
28249WAT     H284990   6.093   4.450   3.585
28250WAT      O84991   1.449   8.401   1.462
28250WAT     H184992   1.416   8.335   1.394
28250WAT     H284993   1.380   8.472   1.475
28251WAT      O84994   0.486   8.079   2.378
28251WAT     H184995   0.434   8.027   2.310
28251WAT     H284996   0.502   8.021   2.458
28252WAT      O84997   3.290   9.661   0.544
28252WAT     H184998   3.288   9.736   0.478
28252WAT     H284999   3.329   9.580   0.502
28253WAT      O85000   8.961   7.647   8.765
28253WAT     H185001   9.041   7.698   8.794
28253WAT     H285002   8.983   7.550   8.761
28254WAT      O85003   6.700   2.018   8.201
28254WAT     H185004   6.635   1.963   8.254
28254WAT     H285005   6.712   1.977   8.111
28255WAT      O85006   2.058   9.143   4.476
28255WAT     H185007   2.124   9.070   4.459
28255WAT     H285008   2.105   9.225   4.505
28256WAT      O85009   6.890   4.553   5.149
28256WAT     H185010   6.897   4.602   5.236
28256WAT     H285011   6.876   4.619   5.075
28257WAT      O85012   4.986   8.812   3.064
28257WAT     H185013   5.055   8.801   3.136
28257WAT     H285014   5.032   8.813   2.975
28258WAT      O85015   2.012   2.805   5.819
28258WAT     H185016   1.938   2.871   5.804
28258WAT     H285017   2.074   2.807   5.740
28259WAT      O85018   1.270   5.916   7.530
28259WAT     H185019   1.346   5.850   7.524
28259WAT     H285020   1.307   6.007   7.551
28260WAT      O85021   4.830   4.378   4.556
28260WAT     H185022   4.743   4.409   4.594
28260WAT     H285023   4.854   4.289   4.595
28261WAT      O85024   1.809   1.187   5.276
28261WAT     H185025   1.897   1.166   5.320
28261WAT     H285026   1.743   1.115   5.298
28262WAT      O85027   3.087   3.274   9.732
28262WAT     H185028   3.031   3.216   9.672
28262WAT     H285029   3.027   3.327   9.792
28263WAT      O85030   0.036   7.762   6.311
28263WAT     H185031  -0.023   7.688   6.279
28263WAT     H285032   0.111   7.775   6.246
28264WAT      O85033   9.007   3.434   9.604
28264WAT     H185034   9.099   3.443   9.564
28264WAT     H285035   9.001   3.348   9.654
28265WAT      O85036   8.800   2.097   6.424
28265WAT     H185037   8.818   2.141   6.336
28265WAT     H285038   8.759   2.164   6.487
28266WAT      O85039   5.987   1.942   6.275
28266WAT     H185040   6.074   1.904   6.243
28266WAT     H285041   5.985   2.040   6.257
28267WAT      O85042   2.173   3.326   7.966
28267WAT     H185043   2.133   3.255   7.908
28267WAT     H285044   2.106   3.356   8.033
28268WAT      O85045   4.123   3.022   9.647
28268WAT     H185046   4.068   3.104   9.662
28268WAT     H285047   4.098   2.952   9.714
28269WAT      O85048   3.707   2.895   8.132
28269WAT     H185049   3.766   2.833   8.183
28269WAT     H285050   3.614   2.859   8.130
28270WAT      O85051   4.473   9.748   6.318
28270WAT     H185052   4.522   9.782   6.399
28270WAT     H285053   4.512   9.789   6.236
28271WAT      O85054   1.032   6.978   3.281
28271WAT     H185055   1.094   7.029   3.222
28271WAT     H285056   0.980   6.912   3.227
28272WAT      O85057   8.759   4.398   3.322
28272WAT     H185058   8.792   4.309   3.354
28272WAT     H285059   8.810   4.425   3.240
28273WAT      O85060   7.041   0.856   7.253
28273WAT     H185061   7.031   0.815   7.344
28273WAT     H285062   7.024   0.955   7.260
28274WAT      O85063   5.137   3.254   6.244
28274WAT     H185064   5.085   3.200   6.178
28274WAT     H285065   5.153   3.200   6.326
28275WAT      O85066   6.554   1.361   2.179
28275WAT     H185067   6.507   1.414   2.249
28275WAT     H285068   6.646   1.396   2.166
28276WAT      O85069   3.877   3.450   7.674
28276WAT     H185070   3.914   3.361   7.648
28276WAT     H285071   3.952   3.513   7.694
28277WAT      O85072   4.053   6.283   7.916
28277WAT     H185073   4.025   6.356   7.854
28277WAT     H285074   3.985   6.210   7.914
28278WAT      O85075   3.303   3.026   6.854
28278WAT     H185076   3.362   3.076   6.918
28278WAT     H285077   3.360   2.969   6.795
28279WAT      O85078   3.044   2.188   1.412
28279WAT     H185079   3.014   2.163   1.504
28279WAT     H285080   3.044   2.288   1.403
28280WAT      O85081   2.911   7.082   8.574
28280WAT     H185082   2.955   7.005   8.529
28280WAT     H285083   2.979   7.136   8.624
28281WAT      O85084   6.144   6.630   6.502
28281WAT     H185085   6.195   6.638   6.416
28281WAT     H285086   6.209   6.625   6.578
28282WAT      O85087   1.480   3.670   1.829
28282WAT     H185088   1.420   3.718   1.893
28282WAT     H285089   1.543   3.611   1.881
28283WAT      O85090   7.147   6.522   5.778
28283WAT     H185091   7.091   6.567   5.708
28283WAT     H285092   7.234   6.571   5.787
28284WAT      O85093   4.145   3.734   6.264
28284WAT     H185094   4.234   3.774   6.242
28284WAT     H285095   4.084   3.805   6.298
28285WAT      O85096   7.746   3.307   7.286
28285WAT     H185097   7.725   3.368   7.362
28285WAT     H285098   7.675   3.314   7.217
28286WAT      O85099   0.373   1.110   9.180
28286WAT     H185100   0.308   1.145   9.113
28286WAT     H285101   0.464   1.107   9.139
28287WAT      O85102   4.697   0.883   3.539
28287WAT     H185103   4.610   0.915   3.501
28287WAT     H285104   4.762   0.869   3.465
28288WAT      O85105   2.326   5.851   0.400
28288WAT     H185106   2.246   5.911   0.395
28288WAT     H285107   2.297   5.757   0.381
28289WAT      O85108   6.143   0.662   9.696
28289WAT     H185109   6.088   0.745   9.696
28289WAT     H285110   6.154   0.629   9.790
28290WAT      O85111   8.992   6.276   4.739
28290WAT     H185112   8.908   6.327   4.720
28290WAT     H285113   8.991   6.189   4.691
28291WAT      O85114   9.530   5.851   5.645
28291WAT     H185115   9.534   5.849   5.745
28291WAT     H285116   9.619   5.880   5.610
28292WAT      O85117   7.997   9.613   9.007
28292WAT     H185118   8.037   9.693   8.963
28292WAT     H285119   7.993   9.537   8.942
28293WAT      O85120   1.538   9.679   8.190
28293WAT     H185121   1.547   9.710   8.096
28293WAT     H285122   1.441   9.671   8.213
28294WAT      O85123   9.621   6.713   6.758
28294WAT     H185124   9.666   6.642   6.704
28294WAT     H285125   9.684   6.789   6.775
28295WAT      O85126   4.462   0.251   0.574
28295WAT     H185127   4.498   0.334   0.531
28295WAT     H285128   4.538   0.192   0.601
28296WAT      O85129   3.863   3.817   1.369
28296WAT     H185130   3.777   3.783   1.408
28296WAT     H285131   3.913   3.867   1.439
28297WAT      O85132   8.261   6.020   1.622
28297WAT     H185133   8.286   6.115   1.604
28297WAT     H285134   8.162   6.011   1.625
28298WAT      O85135   3.602   6.366   0.049
28298WAT     H185136   3.645   6.276   0.046
28298WAT     H285137   3.568   6.390  -0.042
28299WAT      O85138   8.025   3.715   9.359
28299WAT     H185139   8.058   3.630   9.399
28299WAT     H285140   8.089   3.746   9.288
28300WAT      O85141   3.423   4.844   9.841
28300WAT     H185142   3.388   4.751   9.827
28300WAT     H285143   3.358   4.896   9.896
28301WAT      O85144   2.334   7.879   1.903
28301WAT     H185145   2.249   7.932   1.901
28301WAT     H285146   2.397   7.916   1.834
28302WAT      O85147   4.608   3.427   6.724
28302WAT     H185148   4.589   3.330   6.738
28302WAT     H285149   4.546   3.482   6.781
28303WAT      O85150   0.125   9.127   5.374
28303WAT     H185151   0.202   9.074   5.408
28303WAT     H285152   0.094   9.090   5.287
28304WAT      O85153   0.126   9.453   9.466
28304WAT     H185154   0.199   9.399   9.424
28304WAT     H285155   0.078   9.396   9.534
28305WAT      O85156   5.492   8.841   6.727
28305WAT     H185157   5.587   8.868   6.739
28305WAT     H285158   5.450   8.894   6.653
28306WAT      O85159   4.814   5.951   7.251
28306WAT     H185160   4.790   5.872   7.195
28306WAT     H285161   4.838   5.921   7.343
28307WAT      O85162   7.581   6.840   4.515
28307WAT     H185163   7.596   6.845   4.416
28307WAT     H285164   7.654   6.889   4.563
28308WAT      O85165   3.075   7.382   0.737
28308WAT     H185166   3.125   7.462   0.705
28308WAT     H285167   3.055   7.321   0.660
28309WAT      O85168   8.398   0.424   5.075
28309WAT     H185169   8.491   0.406   5.043
28309WAT     H285170   8.394   0.410   5.174
28310WAT      O85171   5.016   3.799   1.135
28310WAT     H185172   4.954   3.781   1.212
28310WAT     H285173   5.104   3.831   1.170
28311WAT      O85174   4.993   3.402   0.723
28311WAT     H185175   5.073   3.344   0.705
28311WAT     H285176   5.012   3.495   0.691
28312WAT      O85177   2.792   5.739   7.646
28312WAT     H185178   2.795   5.695   7.557
28312WAT     H285179   2.788   5.838   7.635
28313WAT      O85180   9.315   7.690   1.661
28313WAT     H185181   9.266   7.658   1.742
28313WAT     H285182   9.261   7.668   1.579
28314WAT      O85183   9.886   2.373   7.048
28314WAT     H185184   9.922   2.370   6.955
28314WAT     H285185   9.844   2.462   7.065
28315WAT      O85186   0.719   3.199   3.763
28315WAT     H185187   0.624   3.230   3.752
28315WAT     H285188   0.723   3.129   3.833
28316WAT      O85189   3.595   4.418   7.784
28316WAT     H185190   3.555   4.476   7.855
28316WAT     H285191   3.546   4.331   7.781
28317WAT      O85192   1.164   9.535   1.182
28317WAT     H185193   1.257   9.511   1.208
28317WAT     H285194   1.163   9.624   1.137
28318WAT      O85195   0.240   5.846   8.019
28318WAT     H185196   0.305   5.888   7.955
28318WAT     H285197   0.150   5.841   7.976
28319WAT      O85198   6.560   2.767   9.882
28319WAT     H185199   6.572   2.669   9.867
28319WAT     H285200   6.471   2.795   9.845
28320WAT      O85201   4.433   2.451   7.325
28320WAT     H185202   4.475   2.449   7.416
28320WAT     H285203   4.494   2.407   7.259
28321WAT      O85204   1.532   9.654   2.461
28321WAT     H185205   1.572   9.722   2.522
28321WAT     H285206   1.592   9.642   2.381
28322WAT      O85207   8.824   9.381   2.220
28322WAT     H185208   8.908   9.333   2.197
28322WAT     H285209   8.786   9.424   2.138
28323WAT      O85210   8.068   9.566   0.487
28323WAT     H185211   7.989   9.619   0.520
28323WAT     H285212   8.125   9.540   0.564
28324WAT      O85213   5.944   0.992   5.686
28324WAT     H185214   5.856   0.988   5.734
28324WAT     H285215   5.933   1.045   5.602
28325WAT      O85216   5.792   1.143   1.446
28325WAT     H185217   5.870   1.109   1.393
28325WAT     H285218   5.811   1.134   1.543
28326WAT      O85219   0.535   2.175   2.292
28326WAT     H185220   0.631   2.176   2.318
28326WAT     H285221   0.503   2.080   2.286
28327WAT      O85222   5.101   5.472   2.095
28327WAT     H185223   5.037   5.459   2.019
28327WAT     H285224   5.192   5.490   2.058
28328WAT      O85225   1.764   2.428   1.248
28328WAT     H185226   1.752   2.397   1.153
28328WAT     H285227   1.770   2.527   1.250
28329WAT      O85228   7.490   1.373   2.971
28329WAT     H185229   7.530   1.454   3.013
28329WAT     H285230   7.559   1.300   2.966
28330WAT      O85231   5.674   5.895   1.435
28330WAT     H185232   5.739   5.853   1.372
28330WAT     H285233   5.624   5.968   1.389
28331WAT      O85234   2.767   0.436   0.925
28331WAT     H185235   2.768   0.363   0.857
28331WAT     H285236   2.752   0.524   0.880
28332WAT      O85237   5.100   1.989   0.079
28332WAT     H185238   5.026   1.926   0.054
28332WAT     H285239   5.095   2.008   0.177
28333WAT      O85240   1.471   3.902   5.084
28333WAT     H185241   1.535   3.968   5.123
28333WAT     H285242   1.502   3.809   5.105
28334WAT      O85243   1.134   4.356   0.924
28334WAT     H185244   1.200   4.424   0.895
28334WAT     H285245   1.092   4.313   0.844
28335WAT      O85246   8.694   0.036   6.795
28335WAT     H185247   8.711   0.003   6.702
28335WAT     H285248   8.775   0.084   6.829
28336WAT      O85249   4.540   2.735   8.317
28336WAT     H185250   4.550   2.785   8.403
28336WAT     H285251   4.523   2.638   8.336
28337WAT      O85252   1.168   1.625   6.093
28337WAT     H185253   1.167   1.551   6.026
28337WAT     H285254   1.201   1.589   6.181
28338WAT      O85255   8.550   3.976   7.008
28338WAT     H185256   8.597   3.942   6.927
28338WAT     H285257   8.563   4.074   7.016
28339WAT      O85258   8.002   6.243   9.156
28339WAT     H185259   7.958   6.224   9.244
28339WAT     H285260   7.933   6.239   9.083
28340WAT      O85261   8.939   0.047   1.718
28340WAT     H185262   8.946   0.051   1.818
28340WAT     H285263   9.028   0.021   1.680
28341WAT      O85264   7.666   6.920   1.442
28341WAT     H185265   7.645   7.011   1.479
28341WAT     H285266   7.589   6.888   1.387
28342WAT      O85267   5.156   8.656   4.234
28342WAT     H185268   5.240   8.602   4.239
28342WAT     H285269   5.080   8.598   4.203
28343WAT      O85270   1.954   5.088   4.244
28343WAT     H185271   1.889   5.015   4.223
28343WAT     H285272   1.965   5.147   4.164
28344WAT      O85273   2.436   6.446   7.447
28344WAT     H185274   2.412   6.393   7.529
28344WAT     H285275   2.535   6.452   7.439
28345WAT      O85276   2.862   2.989   8.632
28345WAT     H185277   2.905   2.905   8.598
28345WAT     H285278   2.882   3.064   8.570
28346WAT      O85279   5.460   6.497   6.540
28346WAT     H185280   5.529   6.461   6.477
28346WAT     H285281   5.506   6.540   6.618
28347WAT      O85282   8.511   5.315   2.270
28347WAT     H185283   8.546   5.337   2.361
28347WAT     H285284   8.583   5.270   2.217
28348WAT      O85285   7.549   7.551   4.516
28348WAT     H185286   7.519   7.478   4.578
28348WAT     H285287   7.596   7.622   4.568
28349WAT      O85288   9.223   3.262   3.793
28349WAT     H185289   9.231   3.334   3.725
28349WAT     H285290   9.173   3.295   3.872
28350WAT      O85291   2.521   9.150   2.362
28350WAT     H185292   2.545   9.228   2.420
28350WAT     H285293   2.456   9.180   2.292
28351WAT      O85294   5.890   9.297   4.995
28351WAT     H185295   5.815   9.262   5.051
28351WAT     H285296   5.960   9.226   4.984
28352WAT      O85297   8.845   5.569   4.164
28352WAT     H185298   8.804   5.660   4.167
28352WAT     H285299   8.841   5.527   4.255
28353WAT      O85300   3.040   1.447   2.396
28353WAT     H185301   3.109   1.409   2.334
28353WAT     H285302   3.027   1.385   2.473
28354WAT      O85303   0.442   3.040   4.147
28354WAT     H185304   0.423   2.943   4.161
28354WAT     H285305   0.358   3.092   4.163
28355WAT      O85306   8.082   3.599   6.375
28355WAT     H185307   8.067   3.502   6.393
28355WAT     H285308   8.174   3.612   6.338
28356WAT      O85309   8.793   7.825   8.878
28356WAT     H185310   8.853   7.768   8.822
28356WAT     H285311   8.828   7.827   8.972
28357WAT      O85312   0.818   1.413   2.492
28357WAT     H185313   0.906   1.368   2.480
28357WAT     H285314   0.789   1.456   2.406
28358WAT      O85315   8.330   3.508   3.441
28358WAT     H185316   8.280   3.573   3.498
28358WAT     H285317   8.350   3.549   3.352
28359WAT      O85318   2.886   0.784   4.484
28359WAT     H185319   2.891   0.688   4.514
28359WAT     H285320   2.929   0.842   4.554
28360WAT      O85321   6.860   3.205   4.750
28360WAT     H185322   6.807   3.158   4.821
28360WAT     H285323   6.799   3.242   4.681
28361WAT      O85324   8.434   4.529   9.270
28361WAT     H185325   8.500   4.573   9.331
28361WAT     H285326   8.342   4.563   9.290
28362WAT      O85327   7.438   5.680   5.046
28362WAT     H185328   7.437   5.772   5.007
28362WAT     H285329   7.348   5.659   5.084
28363WAT      O85330   5.700   8.280   4.145
28363WAT     H185331   5.781   8.220   4.146
28363WAT     H285332   5.700   8.337   4.227
28364WAT      O85333   2.083   1.689   5.614
28364WAT     H185334   2.087   1.590   5.629
28364WAT     H285335   2.041   1.707   5.526
28365WAT      O85336   0.759   6.488   9.014
28365WAT     H185337   0.788   6.550   8.941
28365WAT     H285338   0.698   6.536   9.077
28366WAT      O85339   1.747   8.935   5.978
28366WAT     H185340   1.677   8.866   5.962
28366WAT     H285341   1.764   8.985   5.893
28367WAT      O85342   8.762   7.370   1.163
28367WAT     H185343   8.834   7.377   1.094
28367WAT     H285344   8.781   7.432   1.238
28368WAT      O85345   3.140   2.619   6.629
28368WAT     H185346   3.046   2.632   6.661
28368WAT     H285347   3.201   2.613   6.707
28369WAT      O85348   3.922   1.741   0.968
28369WAT     H185349   3.946   1.673   0.899
28369WAT     H285350   3.984   1.731   1.047
28370WAT      O85351   1.798   7.492   7.034
28370WAT     H185352   1.828   7.518   6.943
28370WAT     H285353   1.876   7.491   7.096
28371WAT      O85354   9.662   1.508   7.770
28371WAT     H185355   9.723   1.585   7.750
28371WAT     H285356   9.715   1.429   7.799
28372WAT      O85357   0.770   3.304   9.247
28372WAT     H185358   0.793   3.220   9.198
28372WAT     H285359   0.701   3.354   9.195
28373WAT      O85360   1.746   5.513   9.682
28373WAT     H185361   1.687   5.433   9.698
28373WAT     H285362   1.690   5.594   9.668
28374WAT      O85363   5.519   5.725   1.555
28374WAT     H185364   5.585   5.794   1.525
28374WAT     H285365   5.441   5.770   1.598
28375WAT      O85366   6.077   2.229   9.434
28375WAT     H185367   6.139   2.210   9.511
28375WAT     H285368   6.072   2.327   9.418
28376WAT      O85369   0.260   2.956   7.893
28376WAT     H185370   0.193   3.009   7.842
28376WAT     H285371   0.352   2.971   7.856
28377WAT      O85372   0.218   2.061   9.238
28377WAT     H185373   0.281   2.109   9.299
28377WAT     H285374   0.126   2.066   9.276
28378WAT      O85375   0.132   3.812   1.352
28378WAT     H185376   0.123   3.717   1.382
28378WAT     H285377   0.171   3.814   1.260
28379WAT      O85378   1.857   1.059   6.634
28379WAT     H185379   1.930   1.080   6.700
28379WAT     H285380   1.775   1.032   6.684
28380WAT      O85381   8.856   9.055   2.973
28380WAT     H185382   8.922   9.130   2.967
28380WAT     H285383   8.763   9.093   2.972
28381WAT      O85384   5.694   5.443   2.827
28381WAT     H185385   5.696   5.536   2.792
28381WAT     H285386   5.716   5.443   2.925
28382WAT      O85387   4.889   8.093   2.370
28382WAT     H185388   4.942   8.113   2.453
28382WAT     H285389   4.908   8.162   2.301
28383WAT      O85390   3.062   7.054   6.203
28383WAT     H185391   3.044   7.107   6.120
28383WAT     H285392   2.976   7.020   6.240
28384WAT      O85393   5.341   2.710   5.993
28384WAT     H185394   5.307   2.617   5.978
28384WAT     H285395   5.315   2.741   6.084
28385WAT      O85396   0.027   5.707   7.730
28385WAT     H185397   0.088   5.775   7.689
28385WAT     H285398   0.007   5.732   7.824
28386WAT      O85399   2.798   4.992   1.816
28386WAT     H185400   2.702   4.962   1.821
28386WAT     H285401   2.858   4.913   1.830
28387WAT      O85402   3.318   5.785   4.337
28387WAT     H185403   3.325   5.728   4.255
28387WAT     H285404   3.251   5.857   4.321
28388WAT      O85405   8.612   6.372   1.160
28388WAT     H185406   8.675   6.437   1.116
28388WAT     H285407   8.630   6.280   1.126
28389WAT      O85408   4.935   5.859   3.844
28389WAT     H185409   4.947   5.894   3.751
28389WAT     H285410   4.840   5.874   3.872
28390WAT      O85411   7.891   0.866   5.333
28390WAT     H185412   7.944   0.842   5.414
28390WAT     H285413   7.799   0.894   5.360
28391WAT      O85414   3.535   4.572   6.333
28391WAT     H185415   3.579   4.623   6.260
28391WAT     H285416   3.456   4.522   6.297
28392WAT      O85417   4.974   2.404   2.980
28392WAT     H185418   5.058   2.351   2.963
28392WAT     H285419   4.898   2.341   2.996
28393WAT      O85420   6.186   1.786   4.476
28393WAT     H185421   6.092   1.820   4.483
28393WAT     H285422   6.185   1.693   4.438
28394WAT      O85423   4.857   2.948   7.765
28394WAT     H185424   4.843   2.987   7.856
28394WAT     H285425   4.802   2.999   7.699
28395WAT      O85426   7.106   1.486   7.584
28395WAT     H185427   7.186   1.465   7.528
28395WAT     H285428   7.095   1.586   7.591
28396WAT      O85429   5.794   1.071   1.748
28396WAT     H185430   5.696   1.049   1.750
28396WAT     H285431   5.806   1.169   1.763
28397WAT      O85432   2.344   0.966   8.087
28397WAT     H185433   2.340   0.975   7.987
28397WAT     H285434   2.326   1.055   8.129
28398WAT      O85435   4.003   9.127   6.354
28398WAT     H185436   3.938   9.052   6.340
28398WAT     H285437   4.092   9.089   6.379
28399WAT      O85438   1.572   2.304   5.008
28399WAT     H185439   1.542   2.394   5.041
28399WAT     H285440   1.577   2.305   4.908
28400WAT      O85441   9.239   9.722   6.879
28400WAT     H185442   9.294   9.665   6.818
28400WAT     H285443   9.150   9.679   6.893
28401WAT      O85444   2.245   4.335   3.224
28401WAT     H185445   2.166   4.395   3.238
28401WAT     H285446   2.292   4.360   3.140
28402WAT      O85447   3.753   7.679   4.878
28402WAT     H185448   3.657   7.673   4.853
28402WAT     H285449   3.808   7.629   4.811
28403WAT      O85450   7.180   4.281   7.749
28403WAT     H185451   7.093   4.306   7.708
28403WAT     H285452   7.195   4.182   7.739
28404WAT      O85453   3.710   6.606   3.557
28404WAT     H185454   3.720   6.511   3.586
28404WAT     H285455   3.697   6.610   3.458
28405WAT      O85456   9.873   9.647   2.329
28405WAT     H185457   9.907   9.740   2.317
28405WAT     H285458   9.779   9.641   2.295
28406WAT      O85459   1.128   6.834   5.582
28406WAT     H185460   1.041   6.883   5.590
28406WAT     H285461   1.162   6.813   5.674
28407WAT      O85462   6.134   7.739   0.514
28407WAT     H185463   6.054   7.681   0.531
28407WAT     H285464   6.215   7.697   0.554
28408WAT      O85465   5.252   1.517   5.321
28408WAT     H185466   5.284   1.583   5.253
28408WAT     H285467   5.233   1.429   5.276
28409WAT      O85468   8.152   0.085   0.544
28409WAT     H185469   8.143   0.184   0.534
28409WAT     H285470   8.181   0.046   0.456
28410WAT      O85471   8.909   0.239   5.387
28410WAT     H185472   8.876   0.313   5.330
28410WAT     H285473   9.008   0.245   5.396
28411WAT      O85474   5.090   8.961   3.386
28411WAT     H185475   5.122   8.944   3.293
28411WAT     H285476   5.050   8.878   3.423
28412WAT      O85477   7.247   9.367   6.251
28412WAT     H185478   7.285   9.361   6.159
28412WAT     H285479   7.158   9.321   6.254
28413WAT      O85480   1.436   2.785   1.092
28413WAT     H185481   1.485   2.754   1.010
28413WAT     H285482   1.456   2.722   1.168
28414WAT      O85483   8.515   9.007   6.424
28414WAT     H185484   8.424   9.030   6.390
28414WAT     H285485   8.585   9.049   6.366
28415WAT      O85486   2.064   6.608   6.774
28415WAT     H185487   2.043   6.517   6.740
28415WAT     H285488   2.084   6.669   6.698
28416WAT      O85489   2.460   4.976   1.108
28416WAT     H185490   2.397   5.052   1.124
28416WAT     H285491   2.520   4.997   1.031
28417WAT      O85492   8.075   0.957   3.208
28417WAT     H185493   8.142   0.902   3.158
28417WAT     H285494   8.060   0.916   3.298
28418WAT      O85495   7.549   1.034   7.968
28418WAT     H185496   7.542   1.132   7.948
28418WAT     H285497   7.610   0.991   7.901
28419WAT      O85498   1.615   0.630   1.681
28419WAT     H185499   1.697   0.677   1.648
28419WAT     H285500   1.629   0.531   1.676
28420WAT      O85501   4.921   0.385   9.518
28420WAT     H185502   4.837   0.376   9.570
28420WAT     H285503   4.903   0.366   9.421
28421WAT      O85504   8.173   3.751   7.451
28421WAT     H185505   8.268   3.734   7.475
28421WAT     H285506   8.163   3.750   7.352
28422WAT      O85507   8.044   1.998   6.169
28422WAT     H185508   8.081   2.090   6.177
28422WAT     H285509   7.966   1.988   6.232
28423WAT      O85510   7.905   6.340   6.977
28423WAT     H185511   7.954   6.369   7.059
28423WAT     H285512   7.845   6.414   6.946
28424WAT      O85513   5.897   7.078   0.718
28424WAT     H185514   5.809   7.075   0.671
28424WAT     H285515   5.881   7.082   0.817
28425WAT      O85516   0.495   3.139   9.293
28425WAT     H185517   0.568   3.127   9.226
28425WAT     H285518   0.480   3.236   9.310
28426WAT      O85519   6.387   7.526   4.998
28426WAT     H185520   6.462   7.587   4.974
28426WAT     H285521   6.423   7.445   5.045
28427WAT      O85522   5.559   3.770   2.583
28427WAT     H185523   5.514   3.714   2.514
28427WAT     H285524   5.507   3.855   2.596
28428WAT      O85525   5.310   1.989   6.613
28428WAT     H185526   5.315   2.089   6.609
28428WAT     H285527   5.327   1.951   6.522
28429WAT      O85528   5.100   3.832   2.373
28429WAT     H185529   5.129   3.788   2.288
28429WAT     H285530   5.051   3.766   2.430
28430WAT      O85531   5.637   3.980   3.734
28430WAT     H185532   5.702   4.054   3.748
28430WAT     H285533   5.614   3.974   3.637
28431WAT      O85534   6.046   2.801   7.808
28431WAT     H185535   6.094   2.848   7.734
28431WAT     H285536   6.039   2.862   7.887
28432WAT      O85537   3.528   0.636   8.899
28432WAT     H185538   3.621   0.673   8.887
28432WAT     H285539   3.532   0.553   8.954
28433WAT      O85540   3.448   0.224   4.151
28433WAT     H185541   3.410   0.313   4.177
28433WAT     H285542   3.543   0.218   4.181
28434WAT      O85543   7.512   1.211   0.448
28434WAT     H185544   7.452   1.281   0.485
28434WAT     H285545   7.460   1.129   0.427
28435WAT      O85546   3.070   9.479   5.030
28435WAT     H185547   3.163   9.476   5.067
28435WAT     H285548   3.068   9.435   4.940
28436WAT      O85549   4.325   9.171   8.423
28436WAT     H185550   4.335   9.186   8.521
28436WAT     H285551   4.392   9.227   8.374
28437WAT      O85552   8.491   5.083   7.781
28437WAT     H185553   8.571   5.081   7.841
28437WAT     H285554   8.514   5.133   7.697
28438WAT      O85555   6.033   8.669   2.634
28438WAT     H185556   6.041   8.618   2.549
28438WAT     H285557   6.117   8.658   2.688
28439WAT      O85558   4.854   5.078   2.055
28439WAT     H185559   4.888   5.081   1.961
28439WAT     H285560   4.768   5.027   2.059
28440WAT      O85561   4.104   5.932   9.222
28440WAT     H185562   4.196   5.935   9.260
28440WAT     H285563   4.104   5.975   9.131
28441WAT      O85564   5.696   4.550   9.070
28441WAT     H185565   5.776   4.609   9.070
28441WAT     H285566   5.621   4.595   9.119
28442WAT      O85567   6.365   3.001   3.413
28442WAT     H185568   6.382   3.069   3.342
28442WAT     H285569   6.370   3.044   3.503
28443WAT      O85570   7.445   0.496   3.696
28443WAT     H185571   7.430   0.505   3.597
28443WAT     H285572   7.387   0.424   3.733
28444WAT      O85573   4.812   9.728   5.263
28444WAT     H185574   4.870   9.789   5.318
28444WAT     H285575   4.747   9.681   5.323
28445WAT      O85576   7.778   8.705   6.180
28445WAT     H185577   7.775   8.802   6.202
28445WAT     H285578   7.827   8.692   6.094
28446WAT      O85579   4.022   5.907   0.381
28446WAT     H185580   4.071   5.841   0.324
28446WAT     H285581   4.087   5.954   0.440
28447WAT      O85582   6.869   1.110   8.976
28447WAT     H185583   6.959   1.092   8.935
28447WAT     H285584   6.852   1.044   9.049
28448WAT      O85585   0.189   9.344   0.773
28448WAT     H185586   0.219   9.388   0.688
28448WAT     H285587   0.089   9.333   0.772
28449WAT      O85588   3.215   6.055   2.313
28449WAT     H185589   3.152   5.985   2.280
28449WAT     H285590   3.302   6.012   2.337
28450WAT      O85591   6.226   4.881   6.266
28450WAT     H185592   6.249   4.871   6.169
28450WAT     H285593   6.250   4.797   6.315
28451WAT      O85594   1.506   4.074   8.262
28451WAT     H185595   1.460   4.099   8.177
28451WAT     H285596   1.505   3.975   8.273
28452WAT      O85597   6.866   1.782   2.104
28452WAT     H185598   6.929   1.725   2.051
28452WAT     H285599   6.814   1.725   2.167
28453WAT      O85600   0.987   6.939   3.771
28453WAT     H185601   0.937   6.887   3.701
28453WAT     H285602   0.927   6.954   3.850
28454WAT      O85603   8.316   9.072   7.901
28454WAT     H185604   8.362   8.988   7.932
28454WAT     H285605   8.230   9.048   7.858
28455WAT      O85606   7.190   4.757   8.556
28455WAT     H185607   7.191   4.756   8.456
28455WAT     H285608   7.185   4.663   8.590
28456WAT      O85609   0.982   3.480   5.937
28456WAT     H185610   1.008   3.466   5.841
28456WAT     H285611   0.974   3.578   5.956
28457WAT      O85612   6.897   7.051   6.445
28457WAT     H185613   6.996   7.042   6.442
28457WAT     H285614   6.854   6.961   6.437
28458WAT      O85615   3.587   9.225   8.946
28458WAT     H185616   3.536   9.142   8.968
28458WAT     H285617   3.631   9.216   8.857
28459WAT      O85618   5.783   8.189   2.894
28459WAT     H185619   5.864   8.139   2.865
28459WAT     H285620   5.804   8.287   2.901
28460WAT      O85621   3.801   8.953   6.484
28460WAT     H185622   3.728   9.018   6.505
28460WAT     H285623   3.836   8.913   6.568
28461WAT      O85624   5.163   1.838   8.850
28461WAT     H185625   5.149   1.739   8.863
28461WAT     H285626   5.260   1.859   8.860
28462WAT      O85627   7.328   5.770   7.144
28462WAT     H185628   7.315   5.864   7.175
28462WAT     H285629   7.385   5.771   7.062
28463WAT      O85630   7.882   1.726   9.093
28463WAT     H185631   7.849   1.664   9.022
28463WAT     H285632   7.838   1.815   9.084
28464WAT      O85633   6.313   9.532   8.626
28464WAT     H185634   6.336   9.512   8.721
28464WAT     H285635   6.382   9.492   8.566
28465WAT      O85636   9.848   2.581   7.972
28465WAT     H185637   9.752   2.553   7.977
28465WAT     H285638   9.886   2.588   8.064
28466WAT      O85639   9.159   1.195   7.621
28466WAT     H185640   9.117   1.258   7.555
28466WAT     H285641   9.152   1.233   7.713
28467WAT      O85642   7.235   0.338   3.038
28467WAT     H185643   7.233   0.428   3.081
28467WAT     H285644   7.141   0.305   3.024
28468WAT      O85645   2.340   2.950   4.337
28468WAT     H185646   2.330   2.967   4.435
28468WAT     H285647   2.329   2.853   4.319
28469WAT      O85648   1.534   0.130   8.247
28469WAT     H185649   1.601   0.131   8.322
28469WAT     H285650   1.559   0.200   8.180
28470WAT      O85651   8.902   9.106   2.634
28470WAT     H185652   8.925   9.086   2.539
28470WAT     H285653   8.877   9.021   2.680
28471WAT      O85654   7.986   1.256   5.150
28471WAT     H185655   7.973   1.244   5.248
28471WAT     H285656   7.981   1.353   5.127
28472WAT      O85657   3.969   7.999   1.431
28472WAT     H185658   3.892   7.955   1.385
28472WAT     H285659   3.936   8.049   1.511
28473WAT      O85660   2.255   8.588   1.201
28473WAT     H185661   2.329   8.547   1.255
28473WAT     H285662   2.176   8.605   1.259
28474WAT      O85663   9.446   3.513   4.334
28474WAT     H185664   9.351   3.483   4.341
28474WAT     H285665   9.495   3.455   4.270
28475WAT      O85666   1.886   7.436   2.851
28475WAT     H185667   1.887   7.350   2.800
28475WAT     H285668   1.901   7.512   2.788
28476WAT      O85669   3.351   6.044   3.601
28476WAT     H185670   3.405   6.062   3.683
28476WAT     H285671   3.413   6.036   3.522
28477WAT      O85672   1.647   7.479   5.179
28477WAT     H185673   1.630   7.413   5.252
28477WAT     H285674   1.563   7.497   5.129
28478WAT      O85675   5.203   5.283   9.142
28478WAT     H185676   5.200   5.232   9.228
28478WAT     H285677   5.130   5.351   9.141
28479WAT      O85678   0.266   6.274   9.058
28479WAT     H185679   0.255   6.182   9.020
28479WAT     H285680   0.211   6.282   9.142
28480WAT      O85681   9.048   6.629   5.484
28480WAT     H185682   9.063   6.590   5.575
28480WAT     H285683   8.980   6.573   5.436
28481WAT      O85684   8.282   4.265   5.208
28481WAT     H185685   8.262   4.245   5.304
28481WAT     H285686   8.376   4.240   5.187
28482WAT      O85687   5.963   2.546   7.716
28482WAT     H185688   5.969   2.636   7.761
28482WAT     H285689   5.881   2.542   7.660
28483WAT      O85690   9.360   1.061   8.057
28483WAT     H185691   9.298   1.074   8.134
28483WAT     H285692   9.392   0.966   8.056
28484WAT      O85693   7.525   4.514   1.083
28484WAT     H185694   7.549   4.455   1.160
28484WAT     H285695   7.487   4.459   1.008
28485WAT      O85696   5.385   0.483   1.139
28485WAT     H185697   5.462   0.545   1.123
28485WAT     H285698   5.336   0.512   1.222
28486WAT      O85699   9.241   2.941   7.925
28486WAT     H185700   9.192   2.911   8.007
28486WAT     H285701   9.312   2.874   7.903
28487WAT      O85702   4.699   1.644   2.127
28487WAT     H185703   4.644   1.582   2.071
28487WAT     H285704   4.752   1.591   2.193
28488WAT      O85705   9.424   7.510   5.824
28488WAT     H185706   9.403   7.601   5.861
28488WAT     H285707   9.523   7.498   5.819
28489WAT      O85708   0.760   5.863   8.965
28489WAT     H185709   0.733   5.780   8.917
28489WAT     H285710   0.833   5.842   9.030
28490WAT      O85711   2.606   1.042   2.701
28490WAT     H185712   2.589   1.054   2.799
28490WAT     H285713   2.669   1.112   2.669
28491WAT      O85714   4.538   0.090   1.646
28491WAT     H185715   4.553   0.015   1.582
28491WAT     H285716   4.483   0.057   1.723
28492WAT      O85717   7.217   5.353   2.032
28492WAT     H185718   7.218   5.451   2.052
28492WAT     H285719   7.290   5.333   1.966
28493WAT      O85720   3.993   6.481   4.414
28493WAT     H185721   3.973   6.419   4.489
28493WAT     H285722   3.975   6.435   4.327
28494WAT      O85723   8.427   6.553   3.420
28494WAT     H185724   8.521   6.523   3.402
28494WAT     H285725   8.410   6.638   3.369
28495WAT      O85726   8.165   8.365   9.065
28495WAT     H185727   8.130   8.281   9.025
28495WAT     H285728   8.088   8.421   9.097
28496WAT      O85729   8.518   6.210   3.596
28496WAT     H185730   8.474   6.168   3.675
28496WAT     H285731   8.608   6.169   3.583
28497WAT      O85732   5.437   4.877   1.754
28497WAT     H185733   5.365   4.908   1.815
28497WAT     H285734   5.514   4.843   1.808
28498WAT      O85735   7.564   8.402   0.141
28498WAT     H185736   7.659   8.416   0.113
28498WAT     H285737   7.521   8.335   0.082
28499WAT      O85738   6.614   4.467   3.894
28499WAT     H185739   6.641   4.531   3.966
28499WAT     H285740   6.515   4.475   3.879
28500WAT      O85741   9.377   1.036   1.898
28500WAT     H185742   9.387   1.123   1.849
28500WAT     H285743   9.294   0.990   1.867
28501WAT      O85744   9.526   3.967   3.569
28501WAT     H185745   9.615   3.986   3.529
28501WAT     H285746   9.529   3.881   3.620
28502WAT      O85747   3.041   8.183   5.278
28502WAT     H185748   3.030   8.279   5.303
28502WAT     H285749   3.137   8.156   5.292
28503WAT      O85750   5.029   0.076   8.675
28503WAT     H185751   5.056   0.067   8.771
28503WAT     H285752   4.929   0.084   8.669
28504WAT      O85753   9.514   2.747   0.419
28504WAT     H185754   9.588   2.712   0.476
28504WAT     H285755   9.426   2.731   0.464
28505WAT      O85756   4.125   0.334   5.593
28505WAT     H185757   4.084   0.374   5.511
28505WAT     H285758   4.198   0.271   5.566
28506WAT      O85759   6.037   3.144   0.080
28506WAT     H185760   6.016   3.138   0.178
28506WAT     H285761   5.958   3.112   0.027
28507WAT      O85762   9.350   2.172   7.383
28507WAT     H185763   9.445   2.205   7.385
28507WAT     H285764   9.336   2.107   7.458
28508WAT      O85765   9.431   6.267   8.603
28508WAT     H185766   9.531   6.278   8.601
28508WAT     H285767   9.393   6.327   8.673
28509WAT      O85768   2.724   2.432   1.657
28509WAT     H185769   2.711   2.501   1.585
28509WAT     H285770   2.640   2.378   1.667
28510WAT      O85771   0.306   5.979   1.093
28510WAT     H185772   0.327   5.890   1.135
28510WAT     H285773   0.336   6.052   1.154
28511WAT      O85774   7.733   0.754   8.839
28511WAT     H185775   7.743   0.813   8.759
28511WAT     H285776   7.823   0.736   8.878
28512WAT      O85777   2.784   6.907   7.744
28512WAT     H185778   2.741   6.880   7.830
28512WAT     H285779   2.862   6.967   7.764
28513WAT      O85780   5.543   4.930   5.911
28513WAT     H185781   5.507   5.014   5.870
28513WAT     H285782   5.559   4.944   6.009
28514WAT      O85783   5.522   9.090   4.227
28514WAT     H185784   5.582   9.025   4.274
28514WAT     H285785   5.439   9.104   4.281
28515WAT      O85786   1.089   3.555   7.673
28515WAT     H185787   0.990   3.551   7.659
28515WAT     H285788   1.120   3.650   7.670
28516WAT      O85789   5.144   4.686   3.655
28516WAT     H185790   5.141   4.783   3.682
28516WAT     H285791   5.126   4.678   3.557
28517WAT      O85792   4.651   6.529   8.773
28517WAT     H185793   4.725   6.515   8.707
28517WAT     H285794   4.671   6.479   8.857
28518WAT      O85795   2.495   1.705   9.795
28518WAT     H185796   2.566   1.678   9.730
28518WAT     H285797   2.450   1.788   9.762
28519WAT      O85798   4.196   7.265   2.677
28519WAT     H185799   4.278   7.218   2.645
28519WAT     H285800   4.222   7.332   2.747
28520WAT      O85801   4.676   3.897   8.005
28520WAT     H185802   4.706   3.802   8.002
28520WAT     H285803   4.651   3.922   8.099
28521WAT      O85804   8.293   9.114   8.960
28521WAT     H185805   8.216   9.108   8.896
28521WAT     H285806   8.372   9.067   8.921
28522WAT      O85807   8.097   7.356   1.730
28522WAT     H185808   8.048   7.271   1.743
28522WAT     H285809   8.179   7.357   1.788
28523WAT      O85810   8.672   1.261   1.289
28523WAT     H185811   8.640   1.264   1.384
28523WAT     H285812   8.648   1.346   1.242
28524WAT      O85813   0.449   8.218   2.767
28524WAT     H185814   0.440   8.311   2.732
28524WAT     H285815   0.541   8.183   2.747
28525WAT      O85816   2.400   6.400   9.845
28525WAT     H185817   2.374   6.309   9.876
28525WAT     H285818   2.452   6.393   9.760
28526WAT      O85819   0.939   1.885   8.286
28526WAT     H185820   0.934   1.837   8.199
28526WAT     H285821   1.011   1.844   8.342
28527WAT      O85822   6.128   5.603   6.941
28527WAT     H185823   6.073   5.686   6.952
28527WAT     H285824   6.071   5.523   6.959
28528WAT      O85825   4.261   5.061   9.570
28528WAT     H185826   4.178   5.037   9.520
28528WAT     H285827   4.341   5.021   9.524
28529WAT      O85828   0.419   2.803   3.386
28529WAT     H185829   0.327   2.777   3.416
28529WAT     H285830   0.447   2.886   3.434
28530WAT      O85831   8.321   5.472   6.488
28530WAT     H185832   8.239   5.523   6.462
28530WAT     H285833   8.310   5.376   6.463
28531WAT      O85834   8.689   2.504   5.093
28531WAT     H185835   8.667   2.533   5.186
28531WAT     H285836   8.753   2.427   5.096
28532WAT      O85837   4.349   8.916   7.909
28532WAT     H185838   4.299   8.843   7.956
28532WAT     H285839   4.313   9.005   7.940
28533WAT      O85840   7.763   5.927   1.051
28533WAT     H185841   7.729   5.938   0.958
28533WAT     H285842   7.772   5.829   1.071
28534WAT      O85843   8.192   7.822   1.011
28534WAT     H185844   8.218   7.884   1.085
28534WAT     H285845   8.273   7.773   0.979
28535WAT      O85846   6.650   8.661   2.944
28535WAT     H185847   6.639   8.581   2.884
28535WAT     H285848   6.687   8.737   2.891
28536WAT      O85849   9.446   0.446   3.065
28536WAT     H185850   9.469   0.541   3.090
28536WAT     H285851   9.459   0.387   3.145
28537WAT      O85852   2.843   7.880   1.647
28537WAT     H185853   2.791   7.957   1.611
28537WAT     H285854   2.783   7.821   1.700
28538WAT      O85855   9.433   0.625   5.905
28538WAT     H185856   9.468   0.541   5.864
28538WAT     H285857   9.347   0.650   5.861
28539WAT      O85858   7.675   9.160   3.459
28539WAT     H185859   7.652   9.197   3.550
28539WAT     H285860   7.715   9.233   3.403
28540WAT      O85861   5.277   9.141   5.960
28540WAT     H185862   5.209   9.188   5.903
28540WAT     H285863   5.287   9.190   6.047
28541WAT      O85864   2.269   2.308   0.207
28541WAT     H185865   2.274   2.384   0.272
28541WAT     H285866   2.349   2.249   0.218
28542WAT      O85867   6.366   0.400   9.580
28542WAT     H185868   6.453   0.382   9.628
28542WAT     H285869   6.375   0.483   9.526
28543WAT      O85870   3.600   0.869   6.553
28543WAT     H185871   3.609   0.772   6.530
28543WAT     H285872   3.676   0.897   6.611
28544WAT      O85873   4.963   3.210   3.089
28544WAT     H185874   4.904   3.148   3.140
28544WAT     H285875   4.925   3.303   3.092
28545WAT      O85876   8.625   9.499   7.508
28545WAT     H185877   8.552   9.432   7.501
28545WAT     H285878   8.587   9.587   7.538
28546WAT      O85879   7.867   0.262   5.947
28546WAT     H185880   7.783   0.312   5.924
28546WAT     H285881   7.856   0.218   6.036
28547WAT      O85882   0.119   4.668   8.295
28547WAT     H185883   0.046   4.727   8.329
28547WAT     H285884   0.126   4.677   8.196
28548WAT      O85885   5.399   8.394   1.315
28548WAT     H185886   5.474   8.447   1.275
28548WAT     H285887   5.395   8.411   1.414
28549WAT      O85888   3.440   8.857   8.452
28549WAT     H185889   3.369   8.870   8.382
28549WAT     H285890   3.525   8.898   8.420
28550WAT      O85891   0.657   4.898   0.844
28550WAT     H185892   0.712   4.916   0.763
28550WAT     H285893   0.574   4.955   0.841
28551WAT      O85894   6.340   1.079   9.467
28551WAT     H185895   6.310   1.143   9.538
28551WAT     H285896   6.327   0.986   9.499
28552WAT      O85897   0.089   4.555   8.608
28552WAT     H185898   0.046   4.634   8.652
28552WAT     H285899   0.017   4.493   8.575
28553WAT      O85900   3.165   4.252   7.349
28553WAT     H185901   3.133   4.319   7.416
28553WAT     H285902   3.138   4.160   7.377
28554WAT      O85903   3.458   8.841   1.039
28554WAT     H185904   3.397   8.918   1.026
28554WAT     H285905   3.409   8.756   1.019
28555WAT      O85906   3.879   4.446   7.138
28555WAT     H185907   3.958   4.507   7.139
28555WAT     H285908   3.795   4.500   7.135
28556WAT      O85909   3.802   0.058   0.995
28556WAT     H185910   3.788   0.013   0.907
28556WAT     H285911   3.865   0.004   1.050
28557WAT      O85912   1.776   4.124   7.049
28557WAT     H185913   1.785   4.034   7.091
28557WAT     H285914   1.764   4.113   6.950
28558WAT      O85915   0.509   8.581   0.790
28558WAT     H185916   0.424   8.582   0.842
28558WAT     H285917   0.500   8.518   0.712
28559WAT      O85918   8.681   9.732   9.094
28559WAT     H185919   8.693   9.634   9.109
28559WAT     H285920   8.650   9.775   9.179
28560WAT      O85921   2.848   1.414   8.527
28560WAT     H185922   2.791   1.483   8.482
28560WAT     H285923   2.893   1.455   8.607
28561WAT      O85924   1.848   1.398   3.535
28561WAT     H185925   1.895   1.315   3.504
28561WAT     H285926   1.807   1.382   3.624
28562WAT      O85927   4.440   4.679   8.784
28562WAT     H185928   4.358   4.679   8.727
28562WAT     H285929   4.422   4.732   8.867
28563WAT      O85930   0.368   7.630   5.605
28563WAT     H185931   0.426   7.552   5.628
28563WAT     H285932   0.365   7.693   5.682
28564WAT      O85933   3.760   1.252   8.926
28564WAT     H185934   3.711   1.225   9.009
28564WAT     H285935   3.695   1.279   8.856
28565WAT      O85936   6.197   8.193   4.232
28565WAT     H185937   6.105   8.210   4.267
28565WAT     H285938   6.220   8.263   4.164
28566WAT      O85939   8.291   8.846   2.945
28566WAT     H185940   8.345   8.781   2.891
28566WAT     H285941   8.199   8.851   2.908
28567WAT      O85942   2.827   2.822   7.289
28567WAT     H185943   2.902   2.763   7.320
28567WAT     H285944   2.776   2.777   7.216
28568WAT      O85945   0.277   5.171   8.491
28568WAT     H185946   0.328   5.123   8.563
28568WAT     H285947   0.190   5.204   8.528
28569WAT      O85948   4.016   7.094   5.160
28569WAT     H185949   3.975   7.110   5.251
28569WAT     H285950   4.114   7.078   5.170
28570WAT      O85951   2.894   3.578   9.108
28570WAT     H185952   2.878   3.544   9.016
28570WAT     H285953   2.837   3.527   9.173
28571WAT      O85954   9.889   7.489   3.796
28571WAT     H185955   9.822   7.418   3.819
28571WAT     H285956   9.853   7.579   3.821
28572WAT      O85957   7.925   2.397   7.030
28572WAT     H185958   7.843   2.392   7.088
28572WAT     H285959   7.981   2.475   7.058
28573WAT      O85960   6.702   1.271   5.879
28573WAT     H185961   6.731   1.324   5.959
28573WAT     H285962   6.735   1.177   5.887
28574WAT      O85963   2.309   0.614   2.277
28574WAT     H185964   2.268   0.630   2.188
28574WAT     H285965   2.318   0.700   2.327
28575WAT      O85966   7.922   8.152   8.168
28575WAT     H185967   7.963   8.107   8.089
28575WAT     H285968   7.865   8.228   8.138
28576WAT      O85969   1.424   5.519   8.613
28576WAT     H185970   1.427   5.618   8.626
28576WAT     H285971   1.505   5.477   8.653
28577WAT      O85972   2.233   8.920   4.692
28577WAT     H185973   2.275   9.008   4.715
28577WAT     H285974   2.275   8.885   4.608
28578WAT      O85975   4.427   0.921   5.297
28578WAT     H185976   4.429   0.898   5.395
28578WAT     H285977   4.518   0.908   5.258
28579WAT      O85978   9.693   5.768   0.799
28579WAT     H185979   9.672   5.865   0.808
28579WAT     H285980   9.680   5.723   0.887
28580WAT      O85981   8.438   1.541   3.428
28580WAT     H185982   8.362   1.606   3.425
28580WAT     H285983   8.413   1.459   3.377
28581WAT      O85984   2.466   7.044   7.057
28581WAT     H185985   2.550   7.036   7.004
28581WAT     H285986   2.452   6.960   7.110
28582WAT      O85987   8.998   3.806   4.458
28582WAT     H185988   8.979   3.837   4.365
28582WAT     H285989   9.028   3.885   4.513
28583WAT      O85990   2.869   4.426   0.542
28583WAT     H185991   2.835   4.516   0.570
28583WAT     H285992   2.952   4.404   0.593
28584WAT      O85993   5.820   2.198   0.736
28584WAT     H185994   5.897   2.262   0.743
28584WAT     H285995   5.766   2.219   0.654
28585WAT      O85996   6.069   5.319   7.846
28585WAT     H185997   6.078   5.369   7.760
28585WAT     H285998   6.021   5.233   7.829
28586WAT      O85999   0.223   8.787   9.083
28586WAT     H186000   0.269   8.812   9.169
28586WAT     H286001   0.149   8.723   9.102
28587WAT      O86002   7.476   9.621   4.345
28587WAT     H186003   7.397   9.642   4.289
28587WAT     H286004   7.448   9.567   4.425
28588WAT      O86005   6.109   4.482   1.517
28588WAT     H186006   6.026   4.478   1.574
28588WAT     H286007   6.190   4.481   1.576
28589WAT      O86008   7.617   7.414   9.038
28589WAT     H186009   7.636   7.316   9.040
28589WAT     H286010   7.529   7.432   9.081
28590WAT      O86011   2.715   8.833   9.003
28590WAT     H186012   2.648   8.802   9.069
28590WAT     H286013   2.785   8.888   9.049
28591WAT      O86014   1.961   6.073   2.980
28591WAT     H186015   1.923   6.166   2.973
28591WAT     H286016   1.891   6.007   2.954
28592WAT      O86017   3.868   3.250   8.704
28592WAT     H186018   3.819   3.209   8.627
28592WAT     H286019   3.895   3.179   8.768
28593WAT      O86020   9.614   8.721   2.541
28593WAT     H186021   9.711   8.742   2.526
28593WAT     H286022   9.590   8.637   2.493
28594WAT      O86023   1.413   4.168   9.659
28594WAT     H186024   1.378   4.239   9.720
28594WAT     H286025   1.504   4.193   9.626
28595WAT      O86026   1.167   0.086   0.705
28595WAT     H186027   1.201  -0.000   0.668
28595WAT     H286028   1.205   0.101   0.796
28596WAT      O86029   5.047   8.144   7.661
28596WAT     H186030   4.985   8.195   7.719
28596WAT     H286031   5.108   8.207   7.613
28597WAT      O86032   9.256   8.329   6.062
28597WAT     H186033   9.257   8.373   5.973
28597WAT     H286034   9.162   8.304   6.086
28598WAT      O86035   7.018   2.668   7.789
28598WAT     H186036   7.080   2.725   7.737
28598WAT     H286037   7.070   2.604   7.845
28599WAT      O86038   3.207   6.725   2.763
28599WAT     H186039   3.227   6.689   2.672
28599WAT     H286040   3.135   6.670   2.806
28600WAT      O86041   7.054   3.491   6.273
28600WAT     H186042   7.049   3.449   6.182
28600WAT     H286043   7.084   3.586   6.265
28601WAT      O86044   0.816   8.519   9.022
28601WAT     H186045   0.880   8.458   9.070
28601WAT     H286046   0.754   8.561   9.089
28602WAT      O86047   0.987   9.433   2.756
28602WAT     H186048   1.074   9.422   2.804
28602WAT     H286049   0.942   9.344   2.748
28603WAT      O86050   3.652   7.076   9.498
28603WAT     H186051   3.746   7.047   9.479
28603WAT     H286052   3.655   7.165   9.545
28604WAT      O86053   3.875   5.592   5.663
28604WAT     H186054   3.820   5.586   5.579
28604WAT     H286055   3.911   5.685   5.672
28605WAT      O86056   5.902   7.360   3.214
28605WAT     H186057   5.878   7.294   3.285
28605WAT     H286058   5.988   7.332   3.171
28606WAT      O86059   8.483   3.137   7.728
28606WAT     H186060   8.402   3.115   7.674
28606WAT     H286061   8.494   3.071   7.801
28607WAT      O86062   7.074   8.358   6.309
28607WAT     H186063   7.055   8.268   6.349
28607WAT     H286064   7.090   8.349   6.211
28608WAT      O86065   0.430   8.629   1.921
28608WAT     H186066   0.513   8.662   1.966
28608WAT     H286067   0.415   8.681   1.837
28609WAT      O86068   0.689   6.922   8.783
28609WAT     H186069   0.781   6.888   8.765
28609WAT     H286070   0.659   6.889   8.873
28610WAT      O86071   5.396   7.947   7.485
28610WAT     H186072   5.490   7.914   7.500
28610WAT     H286073   5.370   7.932   7.390
28611WAT      O86074   4.843   6.904   6.087
28611WAT     H186075   4.811   6.993   6.053
28611WAT     H286076   4.830   6.835   6.015
28612WAT      O86077   7.925   1.437   1.026
28612WAT     H186078   7.861   1.427   0.950
28612WAT     H286079   7.978   1.353   1.037
28613WAT      O86080   3.660   8.199   0.640
28613WAT     H186081   3.634   8.161   0.552
28613WAT     H286082   3.683   8.126   0.703
28614WAT      O86083   1.927   2.153   1.932
28614WAT     H186084   1.888   2.235   1.888
28614WAT     H286085   1.889   2.144   2.024
28615WAT      O86086   7.691   2.572   6.785
28615WAT     H186087   7.779   2.565   6.736
28615WAT     H286088   7.706   2.615   6.874
28616WAT      O86089   5.653   6.122   0.732
28616WAT     H186090   5.717   6.184   0.777
28616WAT     H286091   5.655   6.137   0.633
28617WAT      O86092   8.852   5.247   9.018
28617WAT     H186093   8.791   5.317   8.982
28617WAT     H286094   8.919   5.222   8.948
28618WAT      O86095   6.723   4.454   2.174
28618WAT     H186096   6.681   4.373   2.214
28618WAT     H286097   6.755   4.432   2.082
28619WAT      O86098   1.484   0.533   5.805
28619WAT     H186099   1.437   0.595   5.869
28619WAT     H286100   1.426   0.454   5.787
28620WAT      O86101   0.817   3.910   2.010
28620WAT     H186102   0.791   3.985   2.072
28620WAT     H286103   0.848   3.948   1.923
28621WAT      O86104   7.097   0.163   9.321
28621WAT     H186105   7.130   0.224   9.249
28621WAT     H286106   7.162   0.162   9.396
28622WAT      O86107   1.998   7.641   5.361
28622WAT     H186108   2.070   7.578   5.333
28622WAT     H286109   1.931   7.650   5.287
28623WAT      O86110   8.496   4.745   1.449
28623WAT     H186111   8.538   4.665   1.491
28623WAT     H286112   8.399   4.750   1.475
28624WAT      O86113   8.650   8.938   4.320
28624WAT     H186114   8.634   8.976   4.411
28624WAT     H286115   8.724   8.988   4.276
28625WAT      O86116   6.848   1.491   1.360
28625WAT     H186117   6.758   1.504   1.318
28625WAT     H286118   6.907   1.569   1.339
28626WAT      O86119   7.205   2.817   9.494
28626WAT     H186120   7.213   2.734   9.439
28626WAT     H286121   7.196   2.792   9.591
28627WAT      O86122   4.364   0.215   5.483
28627WAT     H186123   4.453   0.253   5.459
28627WAT     H286124   4.375   0.127   5.528
28628WAT      O86125   3.520   6.328   1.697
28628WAT     H186126   3.530   6.316   1.796
28628WAT     H286127   3.609   6.315   1.653
28629WAT      O86128   8.826   4.727   7.860
28629WAT     H186129   8.919   4.692   7.855
28629WAT     H286130   8.781   4.715   7.772
28630WAT      O86131   4.937   6.386   0.420
28630WAT     H186132   4.882   6.376   0.503
28630WAT     H286133   4.880   6.368   0.340
28631WAT      O86134   8.468   7.746   8.138
28631WAT     H186135   8.484   7.837   8.176
28631WAT     H286136   8.370   7.734   8.120
28632WAT      O86137   6.855   3.940   9.771
28632WAT     H186138   6.797   3.932   9.690
28632WAT     H286139   6.908   4.024   9.766
28633WAT      O86140   3.480   7.606   8.046
28633WAT     H186141   3.415   7.621   7.970
28633WAT     H286142   3.515   7.695   8.076
28634WAT      O86143   4.973   1.769   2.291
28634WAT     H186144   5.059   1.725   2.320
28634WAT     H286145   4.994   1.848   2.234
28635WAT      O86146   7.400   4.948   3.321
28635WAT     H186147   7.347   4.936   3.405
28635WAT     H286148   7.490   4.985   3.343
28636WAT      O86149   7.378   4.403   2.442
28636WAT     H186150   7.421   4.471   2.501
28636WAT     H286151   7.313   4.349   2.496
28637WAT      O86152   8.134   8.858   7.281
28637WAT     H186153   8.132   8.948   7.237
28637WAT     H286154   8.186   8.794   7.225
28638WAT      O86155   9.066   5.716   9.395
28638WAT     H186156   8.974   5.705   9.432
28638WAT     H286157   9.112   5.627   9.394
28639WAT      O86158   6.433   0.360   1.808
28639WAT     H186159   6.434   0.435   1.742
28639WAT     H286160   6.366   0.291   1.779
28640WAT      O86161   0.516   1.861   6.544
28640WAT     H186162   0.507   1.945   6.596
28640WAT     H286163   0.607   1.857   6.503
28641WAT      O86164   3.533   8.592   5.121
28641WAT     H186165   3.484   8.671   5.158
28641WAT     H286166   3.630   8.615   5.113
28642WAT      O86167   3.727   7.623   7.374
28642WAT     H186168   3.710   7.680   7.295
28642WAT     H286169   3.672   7.540   7.368
28643WAT      O86170   8.744   7.077   3.693
28643WAT     H186171   8.735   7.132   3.610
28643WAT     H286172   8.840   7.077   3.722
28644WAT      O86173   4.993   8.148   5.544
28644WAT     H186174   4.974   8.231   5.597
28644WAT     H286175   4.942   8.071   5.582
28645WAT      O86176   6.122   5.287   5.088
28645WAT     H186177   6.203   5.271   5.031
28645WAT     H286178   6.129   5.231   5.171
28646WAT      O86179   1.546   2.828   7.023
28646WAT     H186180   1.619   2.896   7.032
28646WAT     H286181   1.485   2.835   7.103
28647WAT      O86182   5.158   8.295   1.353
28647WAT     H186183   5.078   8.347   1.322
28647WAT     H286184   5.241   8.338   1.319
28648WAT      O86185   1.911   6.311   0.578
28648WAT     H186186   1.835   6.331   0.640
28648WAT     H286187   1.903   6.369   0.497
28649WAT      O86188   6.699   3.651   0.796
28649WAT     H186189   6.705   3.716   0.720
28649WAT     H286190   6.699   3.558   0.760
28650WAT      O86191   4.497   9.640   4.327
28650WAT     H186192   4.593   9.631   4.354
28650WAT     H286193   4.442   9.660   4.408
28651WAT      O86194   3.058   9.115   3.750
28651WAT     H186195   3.065   9.211   3.774
28651WAT     H286196   2.990   9.103   3.677
28652WAT      O86197   2.745   7.907   6.680
28652WAT     H186198   2.660   7.890   6.730
28652WAT     H286199   2.822   7.908   6.744
28653WAT      O86200   4.798   0.733   2.659
28653WAT     H186201   4.726   0.723   2.728
28653WAT     H286202   4.786   0.662   2.589
28654WAT      O86203   8.347   2.560   9.037
28654WAT     H186204   8.356   2.652   8.998
28654WAT     H286205   8.410   2.549   9.114
28655WAT      O86206   4.678   3.579   4.681
28655WAT     H186207   4.617   3.625   4.745
28655WAT     H286208   4.658   3.481   4.679
28656WAT      O86209   6.497   5.073   0.413
28656WAT     H186210   6.480   5.170   0.398
28656WAT     H286211   6.475   5.022   0.330
28657WAT      O86212   4.689   4.419   3.685
28657WAT     H186213   4.742   4.497   3.717
28657WAT     H286214   4.725   4.335   3.726
28658WAT      O86215   2.125   4.147   2.102
28658WAT     H186216   2.189   4.166   2.028
28658WAT     H286217   2.036   4.187   2.081
28659WAT      O86218   2.744   5.668   0.517
28659WAT     H186219   2.671   5.615   0.559
28659WAT     H286220   2.707   5.755   0.484
28660WAT      O86221   8.340   3.050   4.978
28660WAT     H186222   8.373   2.992   5.052
28660WAT     H286223   8.417   3.096   4.935
28661WAT      O86224   9.648   7.799   2.591
28661WAT     H186225   9.743   7.816   2.616
28661WAT     H286226   9.621   7.863   2.519
28662WAT      O86227   5.100   2.367   5.128
28662WAT     H186228   5.007   2.400   5.145
28662WAT     H286229   5.096   2.278   5.081
28663WAT      O86230   2.549   8.260   2.645
28663WAT     H186231   2.563   8.318   2.565
28663WAT     H286232   2.485   8.305   2.708
28664WAT      O86233   4.302   6.055   5.489
28664WAT     H186234   4.367   6.123   5.456
28664WAT     H286235   4.348   5.993   5.553
28665WAT      O86236   0.861   0.309   3.986
28665WAT     H186237   0.896   0.392   4.030
28665WAT     H286238   0.865   0.233   4.051
28666WAT      O86239   9.649   4.118   3.075
28666WAT     H186240   9.586   4.178   3.125
28666WAT     H286241   9.604   4.083   2.993
28667WAT      O86242   0.318   0.021   3.314
28667WAT     H186243   0.317  -0.078   3.304
28667WAT     H286244   0.273   0.063   3.235
28668WAT      O86245   2.686   8.937   3.730
28668WAT     H186246   2.757   8.995   3.688
28668WAT     H286247   2.730   8.866   3.785
28669WAT      O86248   8.066   4.691   2.164
28669WAT     H186249   8.077   4.622   2.236
28669WAT     H286250   8.043   4.779   2.206
28670WAT      O86251   5.016   4.631   1.609
28670WAT     H186252   5.076   4.615   1.688
28670WAT     H286253   4.940   4.690   1.637
28671WAT      O86254   8.537   1.324   7.019
28671WAT     H186255   8.502   1.406   6.974
28671WAT     H286256   8.503   1.321   7.113
28672WAT      O86257   1.555   1.003   3.299
28672WAT     H186258   1.594   1.093   3.279
28672WAT     H286259   1.519   0.964   3.214
28673WAT      O86260   1.462   5.714   5.966
28673WAT     H186261   1.390   5.760   6.017
28673WAT     H286262   1.536   5.689   6.028
28674WAT      O86263   1.136   3.183   4.143
28674WAT     H186264   1.055   3.190   4.086
28674WAT     H286265   1.194   3.108   4.112
28675WAT      O86266   9.278   3.961   5.851
28675WAT     H186267   9.180   3.944   5.864
28675WAT     H286268   9.304   4.046   5.898
28676WAT      O86269   3.851   2.465   3.790
28676WAT     H186270   3.885   2.532   3.724
28676WAT     H286271   3.779   2.506   3.845
28677WAT      O86272   0.277   4.527   2.761
28677WAT     H186273   0.337   4.448   2.754
28677WAT     H286274   0.227   4.539   2.675
28678WAT      O86275   0.080   8.805   3.579
28678WAT     H186276   0.002   8.857   3.613
28678WAT     H286277   0.059   8.767   3.490
28679WAT      O86278   3.705   2.592   4.247
28679WAT     H186279   3.612   2.595   4.282
28679WAT     H286280   3.760   2.663   4.290
28680WAT      O86281   1.430   3.250   5.298
28680WAT     H186282   1.389   3.206   5.378
28680WAT     H286283   1.375   3.229   5.217
28681WAT      O86284   8.228   7.886   3.273
28681WAT     H186285   8.177   7.868   3.188
28681WAT     H286286   8.325   7.872   3.257
28682WAT      O86287   1.561   0.058   1.071
28682WAT     H186288   1.620   0.138   1.063
28682WAT     H286289   1.475   0.075   1.023
28683WAT      O86290   2.844   0.377   5.824
28683WAT     H186291   2.923   0.319   5.846
28683WAT     H286292   2.804   0.411   5.909
28684WAT      O86293   8.536   1.408   5.559
28684WAT     H186294   8.589   1.418   5.474
28684WAT     H286295   8.583   1.344   5.620
28685WAT      O86296   2.248   2.009   3.622
28685WAT     H186297   2.262   1.985   3.718
28685WAT     H286298   2.158   2.051   3.611
28686WAT      O86299   0.376   3.437   9.299
28686WAT     H186300   0.407   3.487   9.380
28686WAT     H286301   0.361   3.501   9.224
28687WAT      O86302   1.963   2.001   4.659
28687WAT     H186303   2.055   1.972   4.632
28687WAT     H286304   1.898   1.976   4.587
28688WAT      O86305   8.545   8.601   4.552
28688WAT     H186306   8.480   8.658   4.502
28688WAT     H286307   8.499   8.519   4.585
28689WAT      O86308   7.914   0.313   9.166
28689WAT     H186309   7.901   0.337   9.070
28689WAT     H286310   7.976   0.235   9.173
28690WAT      O86311   5.444   0.225   4.760
28690WAT     H186312   5.421   0.311   4.715
28690WAT     H286313   5.422   0.232   4.858
28691WAT      O86314   7.415   3.946   1.557
28691WAT     H186315   7.365   4.007   1.495
28691WAT     H286316   7.350   3.897   1.615
28692WAT      O86317   0.516   7.858   4.299
28692WAT     H186318   0.544   7.882   4.392
28692WAT     H286319   0.459   7.776   4.302
28693WAT      O86320   2.489   2.252   5.388
28693WAT     H186321   2.520   2.305   5.310
28693WAT     H286322   2.507   2.304   5.472
28694WAT      O86323   2.694   1.608   9.632
28694WAT     H186324   2.766   1.677   9.644
28694WAT     H286325   2.678   1.593   9.534
28695WAT      O86326   7.568   4.597   5.122
28695WAT     H186327   7.625   4.592   5.040
28695WAT     H286328   7.477   4.630   5.097
28696WAT      O86329   8.184   0.341   5.609
28696WAT     H186330   8.222   0.327   5.517
28696WAT     H286331   8.149   0.434   5.616
28697WAT      O86332   8.209   3.638   3.633
28697WAT     H186333   8.161   3.570   3.689
28697WAT     H286334   8.156   3.723   3.630
28698WAT      O86335   0.374   9.610   5.136
28698WAT     H186336   0.275   9.603   5.131
28698WAT     H286337   0.408   9.560   5.216
28699WAT      O86338   2.811   7.666   4.398
28699WAT     H186339   2.906   7.687   4.376
28699WAT     H286340   2.765   7.628   4.317
28700WAT      O86341   9.805   7.303   6.286
28700WAT     H186342   9.895   7.301   6.330
28700WAT     H286343   9.733   7.298   6.355
28701WAT      O86344   2.456   8.727   2.646
28701WAT     H186345   2.363   8.742   2.679
28701WAT     H286346   2.477   8.795   2.574
28702WAT      O86347   6.314   6.702   7.863
28702WAT     H186348   6.408   6.674   7.880
28702WAT     H286349   6.312   6.795   7.826
28703WAT      O86350   8.440   2.911   1.065
28703WAT     H186351   8.414   2.826   1.019
28703WAT     H286352   8.539   2.924   1.058
28704WAT      O86353   2.293   8.189   3.348
28704WAT     H186354   2.345   8.129   3.286
28704WAT     H286355   2.356   8.228   3.416
28705WAT      O86356   6.913   5.787   0.731
28705WAT     H186357   6.992   5.845   0.750
28705WAT     H286358   6.848   5.837   0.673
28706WAT      O86359   5.051   0.617   6.967
28706WAT     H186360   5.078   0.710   6.990
28706WAT     H286361   5.132   0.559   6.961
28707WAT      O86362   9.537   0.027   0.465
28707WAT     H186363   9.630   0.060   0.453
28707WAT     H286364   9.521  -0.051   0.404
28708WAT      O86365   7.285   3.641   2.812
28708WAT     H186366   7.364   3.656   2.871
28708WAT     H286367   7.310   3.654   2.717
28709WAT      O86368   3.368   5.941   7.963
28709WAT     H186369   3.373   6.022   7.904
28709WAT     H286370   3.328   5.966   8.051
28710WAT      O86371   4.792   3.435   3.163
28710WAT     H186372   4.793   3.467   3.257
28710WAT     H286373   4.698   3.433   3.129
28711WAT      O86374   1.627   3.670   3.770
28711WAT     H186375   1.717   3.710   3.788
28711WAT     H286376   1.628   3.626   3.680
28712WAT      O86377   4.599   2.703   7.325
28712WAT     H186378   4.501   2.703   7.341
28712WAT     H286379   4.643   2.633   7.381
28713WAT      O86380   8.829   5.119   3.317
28713WAT     H186381   8.806   5.100   3.222
28713WAT     H286382   8.900   5.056   3.348
28714WAT      O86383   6.773   4.093   3.855
28714WAT     H186384   6.839   4.077   3.928
28714WAT     H286385   6.799   4.175   3.803
28715WAT      O86386   7.774   4.750   6.712
28715WAT     H186387   7.806   4.678   6.650
28715WAT     H286388   7.744   4.709   6.798
28716WAT      O86389   8.750   0.427   0.130
28716WAT     H186390   8.786   0.336   0.112
28716WAT     H286391   8.818   0.495   0.103
28717WAT      O86392   3.826   6.079   0.318
28717WAT     H186393   3.883   6.004   0.351
28717WAT     H286394   3.840   6.159   0.376
28718WAT      O86395   6.198   4.386   9.878
28718WAT     H186396   6.232   4.402   9.971
28718WAT     H286397   6.103   4.358   9.882
28719WAT      O86398   2.102   8.673   8.945
28719WAT     H186399   2.087   8.584   8.902
28719WAT     H286400   2.035   8.739   8.910
28720WAT      O86401   3.202   4.034   6.666
28720WAT     H186402   3.189   4.133   6.658
28720WAT     H286403   3.240   4.012   6.755
28721WAT      O86404   6.966   8.374   2.310
28721WAT     H186405   7.020   8.331   2.238
28721WAT     H286406   6.895   8.310   2.341
28722WAT      O86407   8.708   6.967   9.818
28722WAT     H186408   8.620   6.974   9.772
28722WAT     H286409   8.781   7.001   9.757
28723WAT      O86410   7.163   3.799   7.008
28723WAT     H186411   7.186   3.702   7.017
28723WAT     H286412   7.119   3.815   6.919
28724WAT      O86413   9.113   2.627   3.176
28724WAT     H186414   9.108   2.531   3.150
28724WAT     H286415   9.025   2.655   3.215
28725WAT      O86416   9.891   7.945   4.290
28725WAT     H186417   9.957   7.936   4.216
28725WAT     H286418   9.800   7.919   4.257
28726WAT      O86419   6.023   8.329   1.713
28726WAT     H186420   6.118   8.357   1.720
28726WAT     H286421   5.976   8.348   1.800
28727WAT      O86422   4.711   3.663   5.722
28727WAT     H186423   4.667   3.739   5.770
28727WAT     H286424   4.647   3.587   5.712
28728WAT      O86425   6.170   5.710   2.099
28728WAT     H186426   6.239   5.762   2.150
28728WAT     H286427   6.082   5.717   2.146
28729WAT      O86428   2.957   7.486   9.358
28729WAT     H186429   2.975   7.549   9.434
28729WAT     H286430   2.998   7.522   9.274
28730WAT      O86431   7.731   8.883   2.284
28730WAT     H186432   7.756   8.831   2.365
28730WAT     H286433   7.646   8.934   2.302
28731WAT      O86434   7.073   6.292   8.445
28731WAT     H186435   7.044   6.209   8.493
28731WAT     H286436   7.088   6.365   8.512
28732WAT      O86437   3.901   9.593   3.775
28732WAT     H186438   3.817   9.569   3.725
28732WAT     H286439   3.931   9.515   3.829
28733WAT      O86440   6.565   8.667   3.394
28733WAT     H186441   6.580   8.568   3.389
28733WAT     H286442   6.521   8.699   3.310
28734WAT      O86443   7.811   7.620   8.285
28734WAT     H186444   7.879   7.603   8.355
28734WAT     H286445   7.723   7.643   8.328
28735WAT      O86446   4.745   1.311   3.883
28735WAT     H186447   4.729   1.390   3.823
28735WAT     H286448   4.712   1.228   3.838
28736WAT      O86449   4.805   9.378   9.449
28736WAT     H186450   4.720   9.354   9.401
28736WAT     H286451   4.797   9.351   9.545
28737WAT      O86452   1.459   8.507   1.892
28737WAT     H186453   1.448   8.540   1.986
28737WAT     H286454   1.441   8.581   1.828
28738WAT      O86455   2.138   4.420   7.474
28738WAT     H186456   2.047   4.443   7.507
28738WAT     H286457   2.202   4.494   7.498
28739WAT      O86458   9.206   7.469   2.084
28739WAT     H186459   9.152   7.505   2.160
28739WAT     H286460   9.193   7.526   2.003
28740WAT      O86461   3.104   4.822   1.097
28740WAT     H186462   3.191   4.817   1.047
28740WAT     H286463   3.109   4.764   1.178
28741WAT      O86464   1.971   5.371   6.326
28741WAT     H186465   2.005   5.466   6.328
28741WAT     H286466   1.946   5.347   6.233
28742WAT      O86467   7.751   4.171   0.541
28742WAT     H186468   7.680   4.166   0.471
28742WAT     H286469   7.712   4.210   0.625
28743WAT      O86470   7.082   1.492   4.557
28743WAT     H186471   7.065   1.398   4.584
28743WAT     H286472   7.017   1.552   4.602
28744WAT      O86473   9.624   1.601   5.330
28744WAT     H186474   9.592   1.592   5.235
28744WAT     H286475   9.691   1.675   5.335
28745WAT      O86476   0.842   6.465   9.409
28745WAT     H186477   0.867   6.417   9.493
28745WAT     H286478   0.851   6.402   9.331
28746WAT      O86479   4.411   8.257   0.115
28746WAT     H186480   4.495   8.310   0.111
28746WAT     H286481   4.433   8.159   0.112
28747WAT      O86482   5.054   6.800   8.183
28747WAT     H186483   5.133   6.786   8.123
28747WAT     H286484   5.049   6.896   8.210
28748WAT      O86485   8.534   7.751   8.760
28748WAT     H186486   8.519   7.664   8.808
28748WAT     H286487   8.627   7.783   8.778
28749WAT      O86488   4.422   2.607   7.895
28749WAT     H186489   4.376   2.573   7.813
28749WAT     H286490   4.412   2.539   7.969
28750WAT      O86491   6.589   4.632   0.513
28750WAT     H186492   6.591   4.590   0.422
28750WAT     H286493   6.675   4.616   0.560
28751WAT      O86494   0.968   8.103   6.870
28751WAT     H186495   0.878   8.113   6.913
28751WAT     H286496   0.963   8.035   6.797
28752WAT      O86497   3.096   4.743   5.797
28752WAT     H186498   3.037   4.670   5.832
28752WAT     H286499   3.042   4.825   5.779
28753WAT      O86500   4.944   2.581   9.389
28753WAT     H186501   4.866   2.640   9.372
28753WAT     H286502   4.924   2.521   9.467
28754WAT      O86503   6.101   3.766   7.939
28754WAT     H186504   6.039   3.700   7.897
28754WAT     H286505   6.073   3.859   7.913
28755WAT      O86506   3.611   6.189   6.098
28755WAT     H186507   3.575   6.171   6.006
28755WAT     H286508   3.637   6.285   6.105
28756WAT      O86509   7.500   8.589   5.114
28756WAT     H186510   7.559   8.515   5.081
28756WAT     H286511   7.486   8.655   5.040
28757WAT      O86512   4.628   8.461   3.887
28757WAT     H186513   4.619   8.446   3.789
28757WAT     H286514   4.716   8.426   3.918
28758WAT      O86515   0.038   3.103   6.967
28758WAT     H186516   0.110   3.043   6.936
28758WAT     H286517   0.022   3.175   6.900
28759WAT      O86518   3.572   1.588   0.287
28759WAT     H186519   3.509   1.665   0.300
28759WAT     H286520   3.558   1.549   0.196
28760WAT      O86521   0.386   0.025   5.695
28760WAT     H186522   0.451   0.075   5.752
28760WAT     H286523   0.357   0.084   5.619
28761WAT      O86524   8.080   5.787   5.886
28761WAT     H186525   8.080   5.720   5.812
28761WAT     H286526   7.986   5.799   5.920
28762WAT      O86527   3.801   7.893   3.284
28762WAT     H186528   3.815   7.885   3.185
28762WAT     H286529   3.860   7.828   3.331
28763WAT      O86530   7.007   1.401   2.589
28763WAT     H186531   7.087   1.341   2.581
28763WAT     H286532   6.939   1.376   2.521
28764WAT      O86533   5.482   3.241   1.577
28764WAT     H186534   5.395   3.197   1.598
28764WAT     H286535   5.524   3.195   1.499
28765WAT      O86536   1.409   8.680   2.406
28765WAT     H186537   1.340   8.698   2.336
28765WAT     H286538   1.368   8.691   2.497
28766WAT      O86539   3.720   6.061   9.571
28766WAT     H186540   3.753   6.053   9.477
28766WAT     H286541   3.777   6.125   9.622
28767WAT      O86542   9.121   9.145   3.505
28767WAT     H186543   9.138   9.049   3.529
28767WAT     H286544   9.177   9.205   3.563
28768WAT      O86545   5.301   3.137   1.242
28768WAT     H186546   5.340   3.219   1.283
28768WAT     H286547   5.285   3.152   1.144
28769WAT      O86548   1.649   0.070   4.208
28769WAT     H186549   1.707   0.019   4.272
28769WAT     H286550   1.689   0.068   4.117
28770WAT      O86551   7.344   3.002   5.490
28770WAT     H186552   7.336   2.914   5.443
28770WAT     H286553   7.333   2.988   5.588
28771WAT      O86554   5.555   6.365   9.166
28771WAT     H186555   5.509   6.416   9.239
28771WAT     H286556   5.651   6.393   9.161
28772WAT      O86557   8.445   8.493   5.007
28772WAT     H186558   8.403   8.530   4.924
28772WAT     H286559   8.414   8.399   5.022
28773WAT      O86560   9.769   6.030   2.304
28773WAT     H186561   9.824   6.079   2.236
28773WAT     H286562   9.816   5.946   2.331
28774WAT      O86563   2.127   3.201   9.179
28774WAT     H186564   2.159   3.246   9.263
28774WAT     H286565   2.028   3.192   9.181
28775WAT      O86566   8.696   8.574   6.752
28775WAT     H186567   8.719   8.541   6.660
28775WAT     H286568   8.767   8.547   6.816
28776WAT      O86569   0.698   2.884   1.210
28776WAT     H186570   0.653   2.968   1.177
28776WAT     H286571   0.665   2.864   1.302
28777WAT      O86572   1.374   9.737   6.084
28777WAT     H186573   1.401   9.802   6.013
28777WAT     H286574   1.433   9.749   6.164
28778WAT      O86575   6.688   0.099   8.929
28778WAT     H186576   6.638   0.146   9.001
28778WAT     H286577   6.737   0.021   8.968
28779WAT      O86578   0.806   5.756   3.628
28779WAT     H186579   0.830   5.735   3.723
28779WAT     H286580   0.708   5.741   3.614
28780WAT      O86581   8.103   2.144   8.878
28780WAT     H186582   8.137   2.129   8.971
28780WAT     H286583   8.172   2.116   8.812
28781WAT      O86584   1.349   5.194   7.025
28781WAT     H186585   1.364   5.289   7.055
28781WAT     H286586   1.438   5.149   7.012
28782WAT      O86587   8.116   5.259   0.424
28782WAT     H186588   8.207   5.264   0.466
28782WAT     H286589   8.062   5.338   0.453
28783WAT      O86590   0.848   0.212   2.029
28783WAT     H186591   0.847   0.263   2.115
28783WAT     H286592   0.898   0.126   2.042
28784WAT      O86593   6.133   2.702   1.378
28784WAT     H186594   6.040   2.709   1.414
28784WAT     H286595   6.178   2.623   1.420
28785WAT      O86596   3.833   2.333   8.361
28785WAT     H186597   3.769   2.390   8.310
28785WAT     H286598   3.844   2.368   8.453
28786WAT      O86599   3.485   2.601   1.305
28786WAT     H186600   3.482   2.559   1.396
28786WAT     H286601   3.551   2.676   1.305
28787WAT      O86602   6.404   5.441   1.230
28787WAT     H186603   6.480   5.406   1.286
28787WAT     H286604   6.414   5.409   1.136
28788WAT      O86605   7.331   8.508   5.756
28788WAT     H186606   7.362   8.568   5.683
28788WAT     H286607   7.379   8.532   5.841
28789WAT      O86608   2.482   0.402   5.996
28789WAT     H186609   2.457   0.362   6.084
28789WAT     H286610   2.414   0.471   5.970
28790WAT      O86611   2.734   3.770   2.402
28790WAT     H186612   2.674   3.694   2.428
28790WAT     H286613   2.785   3.745   2.320
28791WAT      O86614   3.567   8.628   1.286
28791WAT     H186615   3.600   8.722   1.280
28791WAT     H286616   3.480   8.626   1.336
28792WAT      O86617   0.074   6.833   1.412
28792WAT     H186618   0.095   6.908   1.475
28792WAT     H286619  -0.008   6.786   1.444
28793WAT      O86620   8.802   4.558   9.044
28793WAT     H186621   8.748   4.637   9.014
28793WAT     H286622   8.837   4.575   9.136
28794WAT      O86623   4.737   6.160   8.039
28794WAT     H186624   4.800   6.086   8.062
28794WAT     H286625   4.769   6.246   8.081
28795WAT      O86626   7.946   7.545   6.536
28795WAT     H186627   8.012   7.557   6.610
28795WAT     H286628   7.992   7.557   6.448
28796WAT      O86629   9.331   1.430   3.861
28796WAT     H186630   9.389   1.349   3.855
28796WAT     H286631   9.242   1.404   3.897
28797WAT      O86632   4.296   3.699   0.785
28797WAT     H186633   4.217   3.655   0.828
28797WAT     H286634   4.272   3.729   0.693
28798WAT      O86635   8.909   1.716   7.436
28798WAT     H186636   8.881   1.715   7.532
28798WAT     H286637   8.861   1.643   7.387
28799WAT      O86638   5.803   4.122   9.564
28799WAT     H186639   5.856   4.086   9.641
28799WAT     H286640   5.816   4.062   9.485
28800WAT      O86641   0.818   9.132   9.112
28800WAT     H186642   0.771   9.046   9.091
28800WAT     H286643   0.824   9.143   9.211
28801WAT      O86644   8.510   6.573   1.643
28801WAT     H186645   8.537   6.508   1.572
28801WAT     H286646   8.547   6.544   1.731
28802WAT      O86647   5.316   1.941   2.255
28802WAT     H186648   5.378   1.944   2.176
28802WAT     H286649   5.332   1.856   2.306
28803WAT      O86650   5.534   3.262   7.070
28803WAT     H186651   5.545   3.355   7.106
28803WAT     H286652   5.449   3.256   7.019
28804WAT      O86653   5.335   4.576   2.755
28804WAT     H186654   5.431   4.571   2.782
28804WAT     H286655   5.312   4.670   2.731
28805WAT      O86656   0.668   8.412   0.937
28805WAT     H186657   0.656   8.446   1.030
28805WAT     H286658   0.609   8.464   0.875
28806WAT      O86659   4.672   7.678   0.672
28806WAT     H186660   4.606   7.620   0.626
28806WAT     H286661   4.736   7.716   0.605
28807WAT      O86662   7.606   1.630   7.309
28807WAT     H186663   7.660   1.642   7.392
28807WAT     H286664   7.545   1.709   7.297
28808WAT      O86665   0.994   0.204   7.395
28808WAT     H186666   0.938   0.149   7.456
28808WAT     H286667   1.060   0.145   7.348
28809WAT      O86668   5.150   8.583   5.915
28809WAT     H186669   5.095   8.617   5.839
28809WAT     H286670   5.093   8.574   5.997
28810WAT      O86671   8.999   4.983   1.384
28810WAT     H186672   9.001   5.075   1.343
28810WAT     H286673   9.063   4.980   1.461
28811WAT      O86674   3.288   9.601   0.159
28811WAT     H186675   3.321   9.690   0.190
28811WAT     H286676   3.315   9.531   0.225
28812WAT      O86677   8.713   6.112   4.942
28812WAT     H186678   8.686   6.206   4.921
28812WAT     H286679   8.790   6.113   5.006
28813WAT      O86680   5.324   7.136   4.834
28813WAT     H186681   5.339   7.162   4.929
28813WAT     H286682   5.248   7.189   4.796
28814WAT      O86683   4.188   8.856   3.441
28814WAT     H186684   4.135   8.800   3.504
28814WAT     H286685   4.212   8.802   3.361
28815WAT      O86686   7.994   2.490   2.852
28815WAT     H186687   8.017   2.448   2.764
28815WAT     H286688   7.995   2.421   2.924
28816WAT      O86689   9.366   8.314   1.048
28816WAT     H186690   9.443   8.323   1.111
28816WAT     H286691   9.398   8.276   0.961
28817WAT      O86692   0.218   4.184   3.299
28817WAT     H186693   0.199   4.181   3.397
28817WAT     H286694   0.132   4.176   3.248
28818WAT      O86695   9.018   6.450   6.698
28818WAT     H186696   8.964   6.416   6.622
28818WAT     H286697   8.998   6.398   6.781
28819WAT      O86698   6.786   0.755   1.362
28819WAT     H186699   6.742   0.698   1.293
28819WAT     H286700   6.829   0.698   1.431
28820WAT      O86701   6.607   4.311   8.583
28820WAT     H186702   6.550   4.231   8.568
28820WAT     H286703   6.567   4.369   8.654
28821WAT      O86704   7.904   1.098   8.069
28821WAT     H186705   7.886   1.001   8.081
28821WAT     H286706   7.931   1.138   8.157
28822WAT      O86707   7.911   4.263   0.155
28822WAT     H186708   7.904   4.333   0.227
28822WAT     H286709   8.000   4.218   0.162
28823WAT      O86710   0.253   0.191   8.697
28823WAT     H186711   0.237   0.273   8.641
28823WAT     H286712   0.342   0.153   8.675
28824WAT      O86713   5.704   2.714   3.521
28824WAT     H186714   5.731   2.618   3.512
28824WAT     H286715   5.727   2.764   3.437
28825WAT      O86716   8.630   3.206   7.381
28825WAT     H186717   8.729   3.194   7.366
28825WAT     H286718   8.599   3.142   7.451
28826WAT      O86719   1.105   0.344   2.912
28826WAT     H186720   1.123   0.273   2.845
28826WAT     H286721   1.015   0.329   2.954
28827WAT      O86722   5.756   9.623   3.937
28827WAT     H186723   5.744   9.625   3.837
28827WAT     H286724   5.834   9.565   3.959
28828WAT      O86725   5.293   7.811   8.381
28828WAT     H186726   5.325   7.746   8.312
28828WAT     H286727   5.357   7.813   8.458
28829WAT      O86728   0.978   2.624   6.078
28829WAT     H186729   0.944   2.685   6.150
28829WAT     H286730   1.067   2.588   6.105
28830WAT      O86731   5.690   7.363   2.034
28830WAT     H186732   5.717   7.453   1.999
28830WAT     H286733   5.750   7.293   1.995
28831WAT      O86734   8.168   1.392   0.197
28831WAT     H186735   8.097   1.345   0.250
28831WAT     H286736   8.244   1.415   0.258
28832WAT      O86737   9.337   1.252   3.513
28832WAT     H186738   9.413   1.188   3.518
28832WAT     H286739   9.355   1.320   3.442
28833WAT      O86740   1.128   7.984   3.914
28833WAT     H186741   1.090   7.995   3.823
28833WAT     H286742   1.150   7.888   3.930
28834WAT      O86743   7.553   4.514   4.054
28834WAT     H186744   7.643   4.549   4.028
28834WAT     H286745   7.483   4.553   3.993
28835WAT      O86746   8.178   8.690   1.154
28835WAT     H186747   8.149   8.653   1.243
28835WAT     H286748   8.162   8.621   1.083
28836WAT      O86749   6.060   1.327   1.276
28836WAT     H186750   5.969   1.318   1.236
28836WAT     H286751   6.104   1.409   1.240
28837WAT      O86752   3.762   9.619   1.345
28837WAT     H186753   3.836   9.610   1.412
28837WAT     H286754   3.688   9.673   1.384
28838WAT      O86755   1.810   9.496   7.704
28838WAT     H186756   1.752   9.501   7.623
28838WAT     H286757   1.754   9.504   7.786
28839WAT      O86758   1.542   9.240   3.502
28839WAT     H186759   1.597   9.168   3.545
28839WAT     H286760   1.453   9.245   3.546
28840WAT      O86761   2.522   4.635   1.027
28840WAT     H186762   2.619   4.659   1.037
28840WAT     H286763   2.506   4.545   1.069
28841WAT      O86764   3.645   5.478   1.297
28841WAT     H186765   3.633   5.489   1.396
28841WAT     H286766   3.733   5.518   1.270
28842WAT      O86767   7.699   4.798   6.012
28842WAT     H186768   7.684   4.708   6.054
28842WAT     H286769   7.756   4.788   5.930
28843WAT      O86770   4.040   4.910   8.236
28843WAT     H186771   4.119   4.849   8.235
28843WAT     H286772   4.053   4.982   8.167
28844WAT      O86773   1.601   6.978   7.347
28844WAT     H186774   1.614   7.077   7.356
28844WAT     H286775   1.536   6.947   7.416
28845WAT      O86776   7.918   4.309   9.745
28845WAT     H186777   7.851   4.380   9.724
28845WAT     H286778   7.931   4.303   9.844
28846WAT      O86779   4.894   8.824   7.616
28846WAT     H186780   4.862   8.872   7.535
28846WAT     H286781   4.817   8.805   7.677
28847WAT      O86782   1.906   6.303   5.180
28847WAT     H186783   1.874   6.209   5.177
28847WAT     H286784   1.828   6.364   5.195
28848WAT      O86785   1.614   6.371   8.607
28848WAT     H186786   1.621   6.276   8.576
28848WAT     H286787   1.519   6.401   8.602
28849WAT      O86788   1.417   1.306   3.746
28849WAT     H186789   1.356   1.357   3.807
28849WAT     H286790   1.512   1.318   3.775
28850WAT      O86791   9.498   1.564   1.904
28850WAT     H186792   9.418   1.527   1.952
28850WAT     H286793   9.474   1.651   1.862
28851WAT      O86794   9.796   6.811   6.510
28851WAT     H186795   9.816   6.811   6.412
28851WAT     H286796   9.806   6.719   6.547
28852WAT      O86797   6.338   0.601   2.553
28852WAT     H186798   6.325   0.588   2.651
28852WAT     H286799   6.251   0.629   2.512
28853WAT      O86800   4.287   0.440   7.444
28853WAT     H186801   4.210   0.421   7.382
28853WAT     H286802   4.295   0.366   7.511
28854WAT      O86803   5.534   8.510   6.142
28854WAT     H186804   5.438   8.487   6.155
28854WAT     H286805   5.591   8.438   6.183
28855WAT      O86806   7.089   9.739   8.950
28855WAT     H186807   7.053   9.660   8.901
28855WAT     H286808   7.136   9.709   9.033
28856WAT      O86809   2.613   5.473   2.962
28856WAT     H186810   2.544   5.415   3.005
28856WAT     H286811   2.574   5.563   2.944
28857WAT      O86812   5.174   4.022   6.073
28857WAT     H186813   5.129   4.098   6.025
28857WAT     H286814   5.251   4.058   6.126
28858WAT      O86815   2.619   8.239   1.812
28858WAT     H186816   2.614   8.226   1.911
28858WAT     H286817   2.583   8.329   1.789
28859WAT      O86818   1.359   2.326   6.147
28859WAT     H186819   1.385   2.267   6.224
28859WAT     H286820   1.441   2.366   6.106
28860WAT      O86821   7.175   2.217   0.058
28860WAT     H186822   7.210   2.298   0.104
28860WAT     H286823   7.092   2.240   0.007
28861WAT      O86824   3.322   1.137   2.345
28861WAT     H186825   3.337   1.236   2.354
28861WAT     H286826   3.262   1.106   2.418
28862WAT      O86827   8.704   3.097   3.011
28862WAT     H186828   8.792   3.087   2.964
28862WAT     H286829   8.649   3.166   2.964
28863WAT      O86830   2.071   1.530   7.362
28863WAT     H186831   2.137   1.603   7.343
28863WAT     H286832   1.978   1.565   7.355
28864WAT      O86833   5.960   9.677   7.828
28864WAT     H186834   5.892   9.690   7.757
28864WAT     H286835   5.916   9.676   7.918
28865WAT      O86836   2.323   8.526   4.888
28865WAT     H186837   2.298   8.623   4.886
28865WAT     H286838   2.420   8.517   4.867
28866WAT      O86839   8.896   9.708   9.725
28866WAT     H186840   8.909   9.807   9.715
28866WAT     H286841   8.800   9.686   9.706
28867WAT      O86842   7.499   4.849   2.347
28867WAT     H186843   7.522   4.857   2.444
28867WAT     H286844   7.514   4.755   2.316
28868WAT      O86845   5.414   2.700   9.634
28868WAT     H186846   5.365   2.709   9.547
28868WAT     H286847   5.510   2.725   9.621
28869WAT      O86848   4.107   5.368   5.581
28869WAT     H186849   4.092   5.467   5.583
28869WAT     H286850   4.020   5.321   5.571
28870WAT      O86851   0.179   0.891   6.321
28870WAT     H186852   0.142   0.936   6.240
28870WAT     H286853   0.213   0.800   6.297
28871WAT      O86854   0.184   1.574   1.825
28871WAT     H186855   0.192   1.526   1.912
28871WAT     H286856   0.274   1.578   1.781
28872WAT      O86857   7.315   2.285   5.037
28872WAT     H186858   7.371   2.333   4.969
28872WAT     H286859   7.243   2.346   5.069
28873WAT      O86860   8.512   8.330   7.576
28873WAT     H186861   8.588   8.281   7.620
28873WAT     H286862   8.510   8.307   7.479
28874WAT      O86863   0.796   1.472   2.759
28874WAT     H186864   0.701   1.489   2.786
28874WAT     H286865   0.807   1.488   2.661
28875WAT      O86866   5.400   1.530   9.121
28875WAT     H186867   5.365   1.618   9.153
28875WAT     H286868   5.428   1.538   9.025
28876WAT      O86869   1.153   1.643   2.562
28876WAT     H186870   1.229   1.703   2.537
28876WAT     H286871   1.068   1.682   2.528
28877WAT      O86872   1.357   4.493   9.065
28877WAT     H186873   1.306   4.522   8.984
28877WAT     H286874   1.433   4.555   9.081
28878WAT      O86875   9.798   2.854   4.260
28878WAT     H186876   9.875   2.794   4.280
28878WAT     H286877   9.722   2.833   4.322
28879WAT      O86878   4.585   1.842   9.158
28879WAT     H186879   4.639   1.804   9.083
28879WAT     H286880   4.611   1.796   9.244
28880WAT      O86881   1.333   7.165   9.027
28880WAT     H186882   1.271   7.127   9.095
28880WAT     H286883   1.371   7.251   9.059
28881WAT      O86884   3.390   9.413   6.867
28881WAT     H186885   3.463   9.367   6.816
28881WAT     H286886   3.301   9.385   6.830
28882WAT      O86887   6.794   5.950   8.336
28882WAT     H186888   6.768   5.906   8.251
28882WAT     H286889   6.880   6.000   8.323
28883WAT      O86890   4.158   5.401   9.734
28883WAT     H186891   4.076   5.352   9.763
28883WAT     H286892   4.237   5.340   9.739
28884WAT      O86893   4.083   5.206   4.581
28884WAT     H186894   4.054   5.291   4.535
28884WAT     H286895   4.019   5.185   4.655
28885WAT      O86896   3.390   7.250   8.293
28885WAT     H186897   3.292   7.266   8.297
28885WAT     H286898   3.439   7.337   8.287
28886WAT      O86899   9.187   3.670   3.120
28886WAT     H186900   9.233   3.726   3.051
28886WAT     H286901   9.127   3.727   3.175
28887WAT      O86902   6.329   6.616   6.686
28887WAT     H186903   6.325   6.652   6.779
28887WAT     H286904   6.398   6.668   6.634
28888WAT      O86905   9.684   3.635   3.406
28888WAT     H186906   9.776   3.659   3.437
28888WAT     H286907   9.619   3.650   3.481
28889WAT      O86908   5.050   0.792   7.776
28889WAT     H186909   5.044   0.719   7.844
28889WAT     H286910   5.012   0.876   7.814
28890WAT      O86911   3.878   6.281   0.505
28890WAT     H186912   3.871   6.372   0.545
28890WAT     H286913   3.974   6.262   0.482
28891WAT      O86914   6.804   2.694   6.692
28891WAT     H186915   6.879   2.655   6.745
28891WAT     H286916   6.838   2.768   6.635
28892WAT      O86917   7.611   2.532   2.634
28892WAT     H186918   7.669   2.499   2.559
28892WAT     H286919   7.534   2.469   2.646
28893WAT      O86920   4.101   2.395   2.630
28893WAT     H186921   4.069   2.441   2.547
28893WAT     H286922   4.197   2.370   2.619
28894WAT      O86923   8.902   5.599   6.013
28894WAT     H186924   8.912   5.517   5.957
28894WAT     H286925   8.915   5.680   5.957
28895WAT      O86926   4.053   8.846   1.457
28895WAT     H186927   4.005   8.823   1.372
28895WAT     H286928   4.124   8.778   1.475
28896WAT      O86929   4.023   7.968   7.696
28896WAT     H186930   3.989   7.875   7.679
28896WAT     H286931   4.032   8.017   7.609
28897WAT      O86932   6.390   5.831   2.206
28897WAT     H186933   6.324   5.903   2.181
28897WAT     H286934   6.405   5.832   2.304
28898WAT      O86935   5.819   7.188   1.467
28898WAT     H186936   5.877   7.107   1.461
28898WAT     H286937   5.794   7.218   1.375
28899WAT      O86938   1.652   8.877   4.963
28899WAT     H186939   1.611   8.816   4.895
28899WAT     H286940   1.741   8.909   4.930
28900WAT      O86941   4.930   2.774   6.395
28900WAT     H186942   5.008   2.725   6.432
28900WAT     H286943   4.944   2.789   6.297
28901WAT      O86944   4.723   1.218   2.039
28901WAT     H186945   4.800   1.283   2.033
28901WAT     H286946   4.748   1.143   2.099
28902WAT      O86947   4.294   7.669   4.943
28902WAT     H186948   4.317   7.585   4.894
28902WAT     H286949   4.197   7.667   4.968
28903WAT      O86950   3.506   3.485   6.723
28903WAT     H186951   3.542   3.575   6.700
28903WAT     H286952   3.572   3.415   6.694
28904WAT      O86953   2.389   8.313   0.542
28904WAT     H186954   2.438   8.400   0.552
28904WAT     H286955   2.290   8.330   0.549
28905WAT      O86956   0.538   5.106   7.739
28905WAT     H186957   0.592   5.022   7.749
28905WAT     H286958   0.502   5.111   7.645
28906WAT      O86959   2.360   6.750   4.552
28906WAT     H186960   2.374   6.848   4.538
28906WAT     H286961   2.275   6.721   4.506
28907WAT      O86962   5.175   6.738   1.590
28907WAT     H186963   5.159   6.709   1.495
28907WAT     H286964   5.274   6.738   1.608
28908WAT      O86965   6.128   6.706   7.374
28908WAT     H186966   6.173   6.784   7.332
28908WAT     H286967   6.029   6.721   7.376
28909WAT      O86968   5.600   4.267   5.739
28909WAT     H186969   5.571   4.279   5.644
28909WAT     H286970   5.670   4.334   5.762
28910WAT      O86971   5.994   7.557   4.304
28910WAT     H186972   6.061   7.503   4.354
28910WAT     H286973   5.915   7.575   4.362
28911WAT      O86974   5.235   8.267   8.736
28911WAT     H186975   5.199   8.196   8.797
28911WAT     H286976   5.179   8.271   8.653
28912WAT      O86977   1.005   8.672   6.830
28912WAT     H186978   1.048   8.620   6.903
28912WAT     H286979   1.052   8.654   6.744
28913WAT      O86980   2.616   7.258   7.918
28913WAT     H186981   2.606   7.358   7.912
28913WAT     H286982   2.699   7.230   7.869
28914WAT      O86983   9.581   5.208   6.580
28914WAT     H186984   9.640   5.169   6.651
28914WAT     H286985   9.517   5.273   6.622
28915WAT      O86986   4.522   0.388   7.038
28915WAT     H186987   4.475   0.301   7.019
28915WAT     H286988   4.605   0.394   6.983
28916WAT      O86989   5.656   6.095   5.902
28916WAT     H186990   5.612   6.021   5.851
28916WAT     H286991   5.588   6.144   5.956
28917WAT      O86992   6.702   9.416   5.121
28917WAT     H186993   6.710   9.482   5.195
28917WAT     H286994   6.623   9.357   5.138
28918WAT      O86995   0.742   8.403   4.932
28918WAT     H186996   0.731   8.488   4.879
28918WAT     H286997   0.767   8.329   4.870
28919WAT      O86998   3.033   7.630   1.008
28919WAT     H186999   3.117   7.674   1.040
28919WAT     H287000   3.049   7.591   0.917
28920WAT      O87001   7.760   3.066   5.651
28920WAT     H187002   7.701   3.054   5.731
28920WAT     H287003   7.856   3.066   5.680
28921WAT      O87004   6.188   5.339   3.584
28921WAT     H187005   6.090   5.325   3.595
28921WAT     H287006   6.217   5.306   3.494
28922WAT      O87007   9.345   3.727   2.892
28922WAT     H187008   9.262   3.713   2.838
28922WAT     H287009   9.383   3.639   2.919
28923WAT      O87010   5.725   2.061   7.323
28923WAT     H187011   5.818   2.059   7.286
28923WAT     H287012   5.659   2.061   7.247
28924WAT      O87013   6.306   2.158   8.932
28924WAT     H187014   6.369   2.087   8.964
28924WAT     H287015   6.214   2.138   8.964
28925WAT      O87016   0.168   7.028   0.699
28925WAT     H187017   0.167   7.126   0.678
28925WAT     H287018   0.219   6.979   0.628
28926WAT      O87019   4.118   5.393   4.834
28926WAT     H187020   4.061   5.448   4.772
28926WAT     H287021   4.193   5.351   4.783
28927WAT      O87022   8.040   1.050   9.604
28927WAT     H187023   7.990   1.136   9.614
28927WAT     H287024   8.112   1.062   9.535
28928WAT      O87025   3.723   6.142   8.636
28928WAT     H187026   3.674   6.116   8.553
28928WAT     H287027   3.749   6.238   8.632
28929WAT      O87028   0.166   1.220   9.018
28929WAT     H187029   0.127   1.255   8.932
28929WAT     H287030   0.187   1.297   9.079
28930WAT      O87031   9.114   4.895   2.654
28930WAT     H187032   9.024   4.895   2.696
28930WAT     H287033   9.127   4.978   2.600
28931WAT      O87034   3.309   0.683   2.146
28931WAT     H187035   3.273   0.689   2.053
28931WAT     H287036   3.362   0.765   2.167
28932WAT      O87037   2.537   1.861   9.080
28932WAT     H187038   2.448   1.871   9.124
28932WAT     H287039   2.604   1.831   9.148
28933WAT      O87040   2.512   7.288   6.525
28933WAT     H187041   2.593   7.255   6.573
28933WAT     H287042   2.440   7.307   6.591
28934WAT      O87043   9.720   2.492   6.026
28934WAT     H187044   9.730   2.543   6.112
28934WAT     H287045   9.628   2.504   5.990
28935WAT      O87046   6.650   2.221   2.419
28935WAT     H187047   6.730   2.230   2.360
28935WAT     H287048   6.571   2.194   2.364
28936WAT      O87049   7.956   7.723   5.404
28936WAT     H187050   8.039   7.677   5.436
28936WAT     H287051   7.881   7.707   5.468
28937WAT      O87052   5.252   0.198   6.131
28937WAT     H187053   5.153   0.200   6.140
28937WAT     H287054   5.282   0.264   6.063
28938WAT      O87055   9.479   0.665   6.466
28938WAT     H187056   9.480   0.718   6.382
28938WAT     H287057   9.389   0.624   6.479
28939WAT      O87058   3.082   7.851   2.501
28939WAT     H187059   3.022   7.792   2.447
28939WAT     H287060   3.034   7.937   2.520
28940WAT      O87061   5.272   2.541   5.020
28940WAT     H187062   5.205   2.596   4.970
28940WAT     H287063   5.224   2.472   5.075
28941WAT      O87064   7.566   2.617   9.049
28941WAT     H187065   7.602   2.658   9.133
28941WAT     H287066   7.632   2.549   9.015
28942WAT      O87067   0.999   3.571   5.127
28942WAT     H187068   1.053   3.546   5.207
28942WAT     H287069   0.956   3.489   5.088
28943WAT      O87070   7.351   3.307   1.147
28943WAT     H187071   7.447   3.315   1.171
28943WAT     H287072   7.295   3.317   1.229
28944WAT      O87073   3.252   8.053   8.219
28944WAT     H187074   3.261   7.978   8.284
28944WAT     H287075   3.191   8.026   8.144
28945WAT      O87076   3.510   6.460   3.075
28945WAT     H187077   3.432   6.409   3.112
28945WAT     H287078   3.477   6.546   3.035
28946WAT      O87079   5.581   4.180   6.797
28946WAT     H187080   5.676   4.151   6.785
28946WAT     H287081   5.571   4.224   6.887
28947WAT      O87082   3.568   8.052   9.276
28947WAT     H187083   3.637   8.020   9.211
28947WAT     H287084   3.610   8.115   9.340
28948WAT      O87085   4.374   6.530   6.219
28948WAT     H187086   4.312   6.597   6.180
28948WAT     H287087   4.361   6.442   6.174
28949WAT      O87088   4.319   8.961   0.366
28949WAT     H187089   4.323   8.979   0.268
28949WAT     H287090   4.402   8.913   0.395
28950WAT      O87091   3.913   7.534   9.253
28950WAT     H187092   3.824   7.537   9.208
28950WAT     H287093   3.915   7.601   9.328
28951WAT      O87094   7.551   8.350   2.919
28951WAT     H187095   7.628   8.323   2.976
28951WAT     H287096   7.548   8.294   2.836
28952WAT      O87097   7.568   7.839   2.126
28952WAT     H187098   7.642   7.906   2.127
28952WAT     H287099   7.537   7.823   2.220
28953WAT      O87100   0.802   0.359   7.234
28953WAT     H187101   0.855   0.335   7.152
28953WAT     H287102   0.833   0.304   7.311
28954WAT      O87103   0.835   3.509   4.851
28954WAT     H187104   0.832   3.609   4.846
28954WAT     H287105   0.768   3.471   4.787
28955WAT      O87106   0.226   8.760   1.361
28955WAT     H187107   0.188   8.846   1.394
28955WAT     H287108   0.268   8.775   1.271
28956WAT      O87109   1.969   4.944   2.102
28956WAT     H187110   1.974   4.970   2.198
28956WAT     H287111   2.061   4.922   2.068
28957WAT      O87112   3.432   3.494   2.867
28957WAT     H187113   3.476   3.430   2.929
28957WAT     H287114   3.343   3.521   2.904
28958WAT      O87115   5.726   6.002   8.387
28958WAT     H187116   5.772   5.992   8.476
28958WAT     H287117   5.783   5.961   8.316
28959WAT      O87118   2.871   5.724   7.898
28959WAT     H187119   2.833   5.711   7.806
28959WAT     H287120   2.801   5.705   7.966
28960WAT      O87121   2.768   7.533   4.128
28960WAT     H187122   2.693   7.565   4.070
28960WAT     H287123   2.851   7.526   4.074
28961WAT      O87124   0.080   1.717   0.152
28961WAT     H187125   0.039   1.661   0.080
28961WAT     H287126   0.042   1.809   0.149
28962WAT      O87127   1.751   5.076   9.540
28962WAT     H187128   1.818   5.002   9.531
28962WAT     H287129   1.711   5.096   9.451
28963WAT      O87130   5.779   4.348   9.238
28963WAT     H187131   5.702   4.283   9.244
28963WAT     H287132   5.755   4.422   9.175
28964WAT      O87133   6.576   2.102   9.814
28964WAT     H187134   6.512   2.178   9.807
28964WAT     H287135   6.641   2.105   9.738
28965WAT      O87136   0.504   7.656   8.447
28965WAT     H187137   0.529   7.594   8.373
28965WAT     H287138   0.415   7.630   8.484
28966WAT      O87139   6.381   4.758   5.340
28966WAT     H187140   6.283   4.758   5.321
28966WAT     H287141   6.432   4.768   5.254
28967WAT      O87142   4.799   3.771   1.855
28967WAT     H187143   4.861   3.738   1.926
28967WAT     H287144   4.805   3.711   1.775
28968WAT      O87145   5.681   3.310   4.040
28968WAT     H187146   5.709   3.391   3.989
28968WAT     H287147   5.762   3.266   4.079
28969WAT      O87148   4.237   7.388   5.253
28969WAT     H187149   4.182   7.445   5.192
28969WAT     H287150   4.213   7.292   5.240
28970WAT      O87151   4.070   8.658   7.439
28970WAT     H187152   4.078   8.744   7.489
28970WAT     H287153   4.047   8.678   7.344
28971WAT      O87154   2.975   6.681   5.956
28971WAT     H187155   3.045   6.622   5.916
28971WAT     H287156   2.897   6.625   5.986
28972WAT      O87157   1.177   1.105   2.194
28972WAT     H187158   1.094   1.103   2.249
28972WAT     H287159   1.208   1.011   2.176
28973WAT      O87160   2.237   2.358   2.657
28973WAT     H187161   2.201   2.409   2.736
28973WAT     H287162   2.171   2.287   2.631
28974WAT      O87163   2.810   8.768   9.575
28974WAT     H187164   2.831   8.805   9.665
28974WAT     H287165   2.894   8.733   9.533
28975WAT      O87166   7.001   0.487   9.659
28975WAT     H187167   6.973   0.411   9.601
28975WAT     H287168   6.924   0.550   9.671
28976WAT      O87169   7.539   2.172   6.214
28976WAT     H187170   7.609   2.207   6.276
28976WAT     H287171   7.469   2.242   6.201
28977WAT      O87172   9.337   9.116   9.688
28977WAT     H187173   9.377   9.208   9.693
28977WAT     H287174   9.259   9.110   9.750
28978WAT      O87175   4.646   5.329   5.486
28978WAT     H187176   4.682   5.259   5.424
28978WAT     H287177   4.723   5.373   5.533
28979WAT      O87178   5.974   5.886   6.099
28979WAT     H187179   5.931   5.974   6.080
28979WAT     H287180   5.911   5.828   6.151
28980WAT      O87181   9.003   5.370   8.591
28980WAT     H187182   8.949   5.452   8.570
28980WAT     H287183   9.004   5.310   8.511
28981WAT      O87184   7.452   3.082   8.192
28981WAT     H187185   7.538   3.079   8.242
28981WAT     H287186   7.392   3.008   8.223
28982WAT      O87187   7.594   8.523   2.660
28982WAT     H187188   7.579   8.461   2.737
28982WAT     H287189   7.617   8.471   2.578
28983WAT      O87190   0.233   2.931   6.850
28983WAT     H187191   0.216   2.905   6.755
28983WAT     H287192   0.239   2.849   6.907
28984WAT      O87193   8.722   3.832   5.643
28984WAT     H187194   8.765   3.742   5.658
28984WAT     H287195   8.792   3.903   5.647
28985WAT      O87196   4.158   0.345   4.860
28985WAT     H187197   4.188   0.440   4.862
28985WAT     H287198   4.140   0.314   4.954
28986WAT      O87199   5.031   5.968   1.326
28986WAT     H187200   5.080   6.040   1.375
28986WAT     H287201   5.092   5.923   1.262
28987WAT      O87202   3.035   3.640   6.931
28987WAT     H187203   3.007   3.736   6.920
28987WAT     H287204   3.029   3.594   6.842
28988WAT      O87205   0.056   3.342   6.475
28988WAT     H187206   0.132   3.405   6.459
28988WAT     H287207  -0.031   3.387   6.454
28989WAT      O87208   9.268   2.835   1.793
28989WAT     H187209   9.327   2.763   1.758
28989WAT     H287210   9.216   2.875   1.717
28990WAT      O87211   3.029   4.565   3.318
28990WAT     H187212   2.934   4.542   3.300
28990WAT     H287213   3.034   4.655   3.361
28991WAT      O87214   6.540   6.667   5.389
28991WAT     H187215   6.584   6.685   5.478
28991WAT     H287216   6.524   6.569   5.379
28992WAT      O87217   7.514   0.634   2.437
28992WAT     H187218   7.574   0.561   2.470
28992WAT     H287219   7.419   0.605   2.446
28993WAT      O87220   8.972   9.190   0.794
28993WAT     H187221   8.999   9.285   0.774
28993WAT     H287222   8.879   9.189   0.830
28994WAT      O87223   0.257   8.501   3.488
28994WAT     H187224   0.308   8.532   3.408
28994WAT     H287225   0.315   8.508   3.569
28995WAT      O87226   0.278   3.044   1.977
28995WAT     H187227   0.200   3.072   2.033
28995WAT     H287228   0.325   2.967   2.019
28996WAT      O87229   9.411   2.797   4.465
28996WAT     H187230   9.377   2.774   4.373
28996WAT     H287231   9.374   2.732   4.531
28997WAT      O87232   6.402   5.233   2.829
28997WAT     H187233   6.339   5.308   2.850
28997WAT     H287234   6.356   5.146   2.844
28998WAT      O87235   4.546   4.768   4.479
28998WAT     H187236   4.616   4.781   4.408
28998WAT     H287237   4.472   4.712   4.442
28999WAT      O87238   1.920   6.302   5.613
28999WAT     H187239   1.926   6.213   5.659
28999WAT     H287240   1.986   6.306   5.539
29000WAT      O87241   8.610   9.708   6.197
29000WAT     H187242   8.572   9.672   6.111
29000WAT     H287243   8.706   9.682   6.205
29001WAT      O87244   4.068   0.859   2.026
29001WAT     H187245   3.977   0.829   1.998
29001WAT     H287246   4.114   0.905   1.950
29002WAT      O87247   6.659   3.759   7.743
29002WAT     H187248   6.586   3.691   7.743
29002WAT     H287249   6.672   3.793   7.837
29003WAT      O87250   5.216   6.535   9.113
29003WAT     H187251   5.226   6.627   9.152
29003WAT     H287252   5.220   6.468   9.187
29004WAT      O87253   4.969   2.956   4.614
29004WAT     H187254   4.902   2.902   4.563
29004WAT     H287255   5.060   2.916   4.602
29005WAT      O87256   5.484   0.302   9.623
29005WAT     H187257   5.534   0.377   9.665
29005WAT     H287258   5.491   0.221   9.681
29006WAT      O87259   8.294   8.461   8.199
29006WAT     H187260   8.257   8.485   8.109
29006WAT     H287261   8.221   8.466   8.267
29007WAT      O87262   5.214   3.722   7.871
29007WAT     H187263   5.159   3.658   7.925
29007WAT     H287264   5.242   3.799   7.929
29008WAT      O87265   0.563   1.134   5.698
29008WAT     H187266   0.654   1.160   5.666
29008WAT     H287267   0.567   1.042   5.737
29009WAT      O87268   5.969   2.048   5.276
29009WAT     H187269   5.951   2.136   5.231
29009WAT     H287270   6.033   1.995   5.220
29010WAT      O87271   7.320   0.124   9.477
29010WAT     H187272   7.376   0.204   9.455
29010WAT     H287273   7.376   0.042   9.469
29011WAT      O87274   3.574   6.174   2.335
29011WAT     H187275   3.561   6.206   2.241
29011WAT     H287276   3.563   6.075   2.339
29012WAT      O87277   4.210   8.456   9.023
29012WAT     H187278   4.123   8.503   9.041
29012WAT     H287279   4.249   8.425   9.109
29013WAT      O87280   0.408   1.715   6.078
29013WAT     H187281   0.377   1.755   6.164
29013WAT     H287282   0.507   1.706   6.080
29014WAT      O87283   0.126   2.210   5.542
29014WAT     H187284   0.075   2.188   5.626
29014WAT     H287285   0.099   2.148   5.469
29015WAT      O87286   7.247   3.077   0.482
29015WAT     H187287   7.343   3.058   0.458
29015WAT     H287288   7.211   3.147   0.420
29016WAT      O87289   8.317   1.766   9.637
29016WAT     H187290   8.410   1.731   9.650
29016WAT     H287291   8.311   1.858   9.675
29017WAT      O87292   4.015   6.393   1.749
29017WAT     H187293   3.956   6.356   1.821
29017WAT     H287294   4.108   6.359   1.762
29018WAT      O87295   5.137   8.586   9.193
29018WAT     H187296   5.165   8.492   9.172
29018WAT     H287297   5.064   8.584   9.260
29019WAT      O87298   0.695   8.615   6.033
29019WAT     H187299   0.787   8.654   6.039
29019WAT     H287300   0.650   8.623   6.122
29020WAT      O87301   3.037   0.609   5.345
29020WAT     H187302   2.971   0.539   5.372
29020WAT     H287303   2.991   0.697   5.337
29021WAT      O87304   4.427   4.987   1.809
29021WAT     H187305   4.485   4.991   1.728
29021WAT     H287306   4.401   4.892   1.827
29022WAT      O87307   2.376   3.232   9.858
29022WAT     H187308   2.353   3.266   9.949
29022WAT     H287309   2.475   3.220   9.851
29023WAT      O87310   6.234   3.195   2.703
29023WAT     H187311   6.170   3.147   2.644
29023WAT     H287312   6.191   3.278   2.739
29024WAT      O87313   0.751   9.323   2.090
29024WAT     H187314   0.811   9.299   2.166
29024WAT     H287315   0.656   9.308   2.117
29025WAT      O87316   4.043   5.264   6.532
29025WAT     H187317   4.032   5.168   6.558
29025WAT     H287318   3.981   5.285   6.456
29026WAT      O87319   8.048   4.515   1.096
29026WAT     H187320   7.970   4.500   1.035
29026WAT     H287321   8.120   4.562   1.047
29027WAT      O87322   6.309   6.978   7.832
29027WAT     H187323   6.334   6.950   7.924
29027WAT     H287324   6.392   6.988   7.777
29028WAT      O87325   7.786   0.618   6.728
29028WAT     H187326   7.687   0.629   6.716
29028WAT     H287327   7.818   0.544   6.668
29029WAT      O87328   6.612   7.629   3.894
29029WAT     H187329   6.598   7.728   3.899
29029WAT     H287330   6.703   7.606   3.928
29030WAT      O87331   8.431   3.561   5.267
29030WAT     H187332   8.465   3.649   5.237
29030WAT     H287333   8.345   3.573   5.317
29031WAT      O87334   4.663   9.606   4.582
29031WAT     H187335   4.709   9.654   4.507
29031WAT     H287336   4.725   9.601   4.660
29032WAT      O87337   4.422   0.736   3.466
29032WAT     H187338   4.445   0.672   3.392
29032WAT     H287339   4.438   0.830   3.434
29033WAT      O87340   5.845   1.039   0.826
29033WAT     H187341   5.820   1.123   0.779
29033WAT     H287342   5.814   0.960   0.773
29034WAT      O87343   8.360   3.416   2.390
29034WAT     H187344   8.434   3.356   2.419
29034WAT     H287345   8.284   3.410   2.455
29035WAT      O87346   1.768   5.510   3.701
29035WAT     H187347   1.774   5.528   3.799
29035WAT     H287348   1.713   5.581   3.658
29036WAT      O87349   4.741   7.437   9.887
29036WAT     H187350   4.787   7.499   9.823
29036WAT     H287351   4.698   7.490   9.960
29037WAT      O87352   7.494   1.178   4.707
29037WAT     H187353   7.476   1.167   4.804
29037WAT     H287354   7.554   1.257   4.693
29038WAT      O87355   1.267   5.380   9.754
29038WAT     H187356   1.316   5.356   9.670
29038WAT     H287357   1.256   5.479   9.758
29039WAT      O87358   9.327   0.201   0.291
29039WAT     H187359   9.322   0.116   0.344
29039WAT     H287360   9.392   0.264   0.333
29040WAT      O87361   0.288   6.646   1.324
29040WAT     H187362   0.363   6.702   1.290
29040WAT     H287363   0.214   6.705   1.358
29041WAT      O87364   9.080   8.730   4.092
29041WAT     H187365   9.096   8.665   4.166
29041WAT     H287366   9.167   8.751   4.047
29042WAT      O87367   5.028   6.194   6.913
29042WAT     H187368   5.093   6.234   6.978
29042WAT     H287369   4.938   6.189   6.956
29043WAT      O87370   2.960   3.125   7.027
29043WAT     H187371   2.903   3.190   6.977
29043WAT     H287372   2.980   3.046   6.969
29044WAT      O87373   4.063   2.467   4.476
29044WAT     H187374   3.993   2.460   4.546
29044WAT     H287375   4.077   2.564   4.453
29045WAT      O87376   8.054   4.030   0.109
29045WAT     H187377   8.095   4.063   0.023
29045WAT     H287378   8.116   4.048   0.185
29046WAT      O87379   6.447   6.803   6.102
29046WAT     H187380   6.461   6.749   6.018
29046WAT     H287381   6.504   6.885   6.098
29047WAT      O87382   3.390   0.491   4.221
29047WAT     H187383   3.309   0.538   4.254
29047WAT     H287384   3.471   0.549   4.236
29048WAT      O87385   5.507   3.714   1.481
29048WAT     H187386   5.410   3.693   1.485
29048WAT     H287387   5.560   3.633   1.506
29049WAT      O87388   9.362   6.206   9.104
29049WAT     H187389   9.354   6.138   9.176
29049WAT     H287390   9.408   6.166   9.025
29050WAT      O87391   8.236   0.597   6.531
29050WAT     H187392   8.261   0.524   6.594
29050WAT     H287393   8.156   0.646   6.566
29051WAT      O87394   3.900   5.319   6.295
29051WAT     H187395   3.836   5.242   6.294
29051WAT     H287396   3.869   5.390   6.232
29052WAT      O87397   3.317   5.332   6.004
29052WAT     H187398   3.274   5.246   6.032
29052WAT     H287399   3.255   5.381   5.943
29053WAT      O87400   2.668   1.118   6.985
29053WAT     H187401   2.606   1.077   6.917
29053WAT     H287402   2.653   1.217   6.987
29054WAT      O87403   3.219   5.248   0.583
29054WAT     H187404   3.280   5.305   0.639
29054WAT     H287405   3.194   5.166   0.634
29055WAT      O87406   0.872   4.095   4.855
29055WAT     H187407   0.791   4.154   4.862
29055WAT     H287408   0.867   4.041   4.771
29056WAT      O87409   9.577   9.453   5.464
29056WAT     H187410   9.498   9.506   5.495
29056WAT     H287411   9.632   9.427   5.543
29057WAT      O87412   7.256   2.903   5.058
29057WAT     H187413   7.247   2.860   5.148
29057WAT     H287414   7.323   2.977   5.064
29058WAT      O87415   1.597   2.106   2.542
29058WAT     H187416   1.634   2.199   2.541
29058WAT     H287417   1.665   2.042   2.506
29059WAT      O87418   2.395   7.937   2.539
29059WAT     H187419   2.436   7.949   2.629
29059WAT     H287420   2.362   7.842   2.529
29060WAT      O87421   8.949   0.708   2.884
29060WAT     H187422   8.992   0.618   2.886
29060WAT     H287423   8.887   0.715   2.806
29061WAT      O87424   0.851   9.424   4.952
29061WAT     H187425   0.794   9.427   4.871
29061WAT     H287426   0.796   9.393   5.030
29062WAT      O87427   1.709   4.374   7.989
29062WAT     H187428   1.760   4.436   7.930
29062WAT     H287429   1.762   4.355   8.072
29063WAT      O87430   3.753   6.819   6.083
29063WAT     H187431   3.825   6.752   6.102
29063WAT     H287432   3.729   6.867   6.168
29064WAT      O87433   8.954   6.705   0.427
29064WAT     H187434   8.923   6.794   0.461
29064WAT     H287435   8.991   6.651   0.503
29065WAT      O87436   1.443   0.562   4.008
29065WAT     H187437   1.474   0.520   3.923
29065WAT     H287438   1.350   0.531   4.028
29066WAT      O87439   3.147   6.314   1.733
29066WAT     H187440   3.135   6.405   1.693
29066WAT     H287441   3.235   6.276   1.704
29067WAT      O87442   3.737   1.235   5.054
29067WAT     H187443   3.676   1.156   5.051
29067WAT     H287444   3.832   1.204   5.050
29068WAT      O87445   6.080   2.887   2.760
29068WAT     H187446   6.064   2.931   2.672
29068WAT     H287447   6.178   2.886   2.779
29069WAT      O87448   8.098   5.637   2.582
29069WAT     H187449   8.182   5.682   2.614
29069WAT     H287450   8.022   5.665   2.640
29070WAT      O87451   6.240   9.063   5.810
29070WAT     H187452   6.156   9.116   5.814
29070WAT     H287453   6.282   9.061   5.901
29071WAT      O87454   3.589   2.757   6.454
29071WAT     H187455   3.597   2.667   6.413
29071WAT     H287456   3.621   2.826   6.389
29072WAT      O87457   4.896   3.317   0.444
29072WAT     H187458   4.845   3.394   0.406
29072WAT     H287459   4.915   3.335   0.541
29073WAT      O87460   6.929   4.336   9.307
29073WAT     H187461   6.944   4.250   9.356
29073WAT     H287462   6.834   4.340   9.275
29074WAT      O87463   5.429   0.517   0.490
29074WAT     H187464   5.390   0.473   0.410
29074WAT     H287465   5.478   0.449   0.545
29075WAT      O87466   0.415   1.787   7.880
29075WAT     H187467   0.381   1.706   7.927
29075WAT     H287468   0.515   1.788   7.883
29076WAT      O87469   8.482   2.017   2.149
29076WAT     H187470   8.392   2.055   2.171
29076WAT     H287471   8.523   1.977   2.231
29077WAT      O87472   0.681   4.275   4.806
29077WAT     H187473   0.646   4.332   4.880
29077WAT     H287474   0.607   4.251   4.744
29078WAT      O87475   1.295   2.800   1.495
29078WAT     H187476   1.376   2.757   1.534
29078WAT     H287477   1.227   2.814   1.567
29079WAT      O87478   3.460   3.085   3.308
29079WAT     H187479   3.512   3.084   3.222
29079WAT     H287480   3.379   3.028   3.298
29080WAT      O87481   0.469   6.683   5.896
29080WAT     H187482   0.562   6.648   5.882
29080WAT     H287483   0.408   6.607   5.918
29081WAT      O87484   2.936   8.386   5.051
29081WAT     H187485   2.971   8.297   5.023
29081WAT     H287486   2.951   8.399   5.149
29082WAT      O87487   6.833   7.483   5.333
29082WAT     H187488   6.881   7.550   5.277
29082WAT     H287489   6.831   7.514   5.428
29083WAT      O87490   9.880   1.859   3.534
29083WAT     H187491   9.875   1.941   3.591
29083WAT     H287492   9.787   1.833   3.505
29084WAT      O87493   5.089   3.290   9.881
29084WAT     H187494   5.030   3.366   9.855
29084WAT     H287495   5.112   3.236   9.800
29085WAT      O87496   9.393   0.581   0.808
29085WAT     H187497   9.308   0.528   0.816
29085WAT     H287498   9.464   0.539   0.863
29086WAT      O87499   1.683   3.367   9.594
29086WAT     H187500   1.775   3.333   9.576
29086WAT     H287501   1.678   3.465   9.571
29087WAT      O87502   5.677   6.355   3.537
29087WAT     H187503   5.611   6.372   3.611
29087WAT     H287504   5.759   6.313   3.575
29088WAT      O87505   8.454   5.124   8.993
29088WAT     H187506   8.470   5.219   9.021
29088WAT     H287507   8.532   5.093   8.939
29089WAT      O87508   7.311   4.316   1.223
29089WAT     H187509   7.392   4.299   1.167
29089WAT     H287510   7.316   4.409   1.261
29090WAT      O87511   3.742   5.366   6.778
29090WAT     H187512   3.810   5.439   6.769
29090WAT     H287513   3.693   5.355   6.692
29091WAT      O87514   9.537   6.500   4.358
29091WAT     H187515   9.443   6.470   4.376
29091WAT     H287516   9.542   6.600   4.365
29092WAT      O87517   7.708   8.137   8.569
29092WAT     H187518   7.727   8.222   8.519
29092WAT     H287519   7.743   8.059   8.516
29093WAT      O87520   0.878   6.409   4.819
29093WAT     H187521   0.890   6.508   4.812
29093WAT     H287522   0.963   6.362   4.796
29094WAT      O87523   7.006   6.508   7.657
29094WAT     H187524   7.085   6.453   7.629
29094WAT     H287525   6.949   6.527   7.577
29095WAT      O87526   6.134   9.678   7.379
29095WAT     H187527   6.161   9.638   7.466
29095WAT     H287528   6.181   9.631   7.304
29096WAT      O87529   1.076   4.755   8.073
29096WAT     H187530   1.103   4.844   8.109
29096WAT     H287531   1.139   4.728   8.000
29097WAT      O87532   5.327   9.442   5.545
29097WAT     H187533   5.255   9.414   5.481
29097WAT     H287534   5.344   9.540   5.536
29098WAT      O87535   7.538   4.393   4.793
29098WAT     H187536   7.515   4.312   4.848
29098WAT     H287537   7.593   4.456   4.848
29099WAT      O87538   0.678   3.950   8.452
29099WAT     H187539   0.770   3.960   8.489
29099WAT     H287540   0.677   3.980   8.356
29100WAT      O87541   6.919   9.760   3.378
29100WAT     H187542   6.924   9.830   3.307
29100WAT     H287543   6.829   9.763   3.421
29101WAT      O87544   0.300   1.794   5.443
29101WAT     H187545   0.265   1.786   5.537
29101WAT     H287546   0.400   1.795   5.444
29102WAT      O87547   0.151   8.988   9.454
29102WAT     H187548   0.088   9.027   9.387
29102WAT     H287549   0.107   8.987   9.544
29103WAT      O87550   5.035   7.167   9.791
29103WAT     H187551   5.069   7.150   9.883
29103WAT     H287552   5.098   7.127   9.724
29104WAT      O87553   1.344   1.975   8.191
29104WAT     H187554   1.439   1.978   8.223
29104WAT     H287555   1.336   2.026   8.105
29105WAT      O87556   2.753   4.060   2.741
29105WAT     H187557   2.691   4.010   2.802
29105WAT     H287558   2.844   4.062   2.780
29106WAT      O87559   8.445   8.840   2.174
29106WAT     H187560   8.455   8.751   2.130
29106WAT     H287561   8.350   8.871   2.167
29107WAT      O87562   4.667   8.975   7.463
29107WAT     H187563   4.602   8.918   7.413
29107WAT     H287564   4.726   9.022   7.398
29108WAT      O87565   2.912   2.740   6.223
29108WAT     H187566   2.827   2.789   6.243
29108WAT     H287567   2.977   2.802   6.180
29109WAT      O87568   2.546   2.435   9.220
29109WAT     H187569   2.584   2.364   9.160
29109WAT     H287570   2.449   2.417   9.236
29110WAT      O87571   9.453   7.606   3.101
29110WAT     H187572   9.501   7.518   3.107
29110WAT     H287573   9.517   7.677   3.073
29111WAT      O87574   9.005   4.122   7.752
29111WAT     H187575   8.938   4.180   7.706
29111WAT     H287576   9.059   4.072   7.684
29112WAT      O87577   7.203   2.150   2.026
29112WAT     H187578   7.204   2.226   2.091
29112WAT     H287579   7.263   2.077   2.060
29113WAT      O87580   1.736   2.912   1.099
29113WAT     H187581   1.656   2.940   1.046
29113WAT     H287582   1.817   2.916   1.041
29114WAT      O87583   0.532   6.875   1.613
29114WAT     H187584   0.516   6.939   1.688
29114WAT     H287585   0.553   6.926   1.530
29115WAT      O87586   0.987   8.896   4.738
29115WAT     H187587   1.024   8.985   4.711
29115WAT     H287588   0.966   8.896   4.835
29116WAT      O87589   0.662   4.068   4.498
29116WAT     H187590   0.625   4.111   4.416
29116WAT     H287591   0.602   4.086   4.576
29117WAT      O87592   6.474   8.112   2.632
29117WAT     H187593   6.467   8.104   2.533
29117WAT     H287594   6.549   8.054   2.665
29118WAT      O87595   3.392   5.050   3.044
29118WAT     H187596   3.432   5.103   3.119
29118WAT     H287597   3.307   5.006   3.077
29119WAT      O87598   0.967   1.374   6.309
29119WAT     H187599   1.066   1.383   6.311
29119WAT     H287600   0.942   1.277   6.313
29120WAT      O87601   7.110   0.344   4.327
29120WAT     H187602   7.101   0.298   4.239
29120WAT     H287603   7.199   0.320   4.368
29121WAT      O87604   2.057   0.676   1.287
29121WAT     H187605   1.989   0.746   1.308
29121WAT     H287606   2.142   0.696   1.337
29122WAT      O87607   0.270   6.717   4.261
29122WAT     H187608   0.247   6.629   4.302
29122WAT     H287609   0.247   6.791   4.325
29123WAT      O87610   3.113   4.153   0.613
29123WAT     H187611   3.126   4.245   0.651
29123WAT     H287612   3.161   4.087   0.671
29124WAT      O87613   2.427   3.290   5.593
29124WAT     H187614   2.359   3.247   5.653
29124WAT     H287615   2.514   3.298   5.641
29125WAT      O87616   4.354   2.618   4.876
29125WAT     H187617   4.298   2.547   4.918
29125WAT     H287618   4.384   2.682   4.946
29126WAT      O87619   2.009   5.617   7.978
29126WAT     H187620   1.954   5.557   7.920
29126WAT     H287621   1.948   5.664   8.043
29127WAT      O87622   7.348   2.628   5.421
29127WAT     H187623   7.298   2.629   5.334
29127WAT     H287624   7.292   2.583   5.491
29128WAT      O87625   1.853   0.395   7.528
29128WAT     H187626   1.881   0.460   7.457
29128WAT     H287627   1.822   0.311   7.485
29129WAT      O87628   3.473   7.675   1.415
29129WAT     H187629   3.375   7.691   1.404
29129WAT     H287630   3.500   7.700   1.509
29130WAT      O87631   1.991   4.334   6.271
29130WAT     H187632   1.964   4.411   6.328
29130WAT     H287633   2.049   4.272   6.324
29131WAT      O87634   6.183   6.423   1.972
29131WAT     H187635   6.214   6.350   2.034
29131WAT     H287636   6.099   6.394   1.926
29132WAT      O87637   6.747   4.897   3.904
29132WAT     H187638   6.838   4.935   3.887
29132WAT     H287639   6.691   4.964   3.952
29133WAT      O87640   4.516   7.692   5.087
29133WAT     H187641   4.425   7.693   5.045
29133WAT     H287642   4.507   7.691   5.186
29134WAT      O87643   4.344   4.316   8.074
29134WAT     H187644   4.250   4.287   8.095
29134WAT     H287645   4.398   4.236   8.049
29135WAT      O87646   6.135   2.346   2.780
29135WAT     H187647   6.214   2.284   2.775
29135WAT     H287648   6.129   2.384   2.872
29136WAT      O87649   4.369   5.552   8.048
29136WAT     H187650   4.395   5.630   7.991
29136WAT     H287651   4.391   5.572   8.144
29137WAT      O87652   2.093   4.913   2.347
29137WAT     H187653   2.184   4.953   2.342
29137WAT     H287654   2.100   4.818   2.378
29138WAT      O87655   4.286   8.081   4.085
29138WAT     H187656   4.240   8.033   4.010
29138WAT     H287657   4.218   8.109   4.153
29139WAT      O87658   4.114   7.215   2.409
29139WAT     H187659   4.138   7.231   2.505
29139WAT     H287660   4.191   7.173   2.362
29140WAT      O87661   3.844   6.817   4.510
29140WAT     H187662   3.893   6.768   4.583
29140WAT     H287663   3.773   6.757   4.472
29141WAT      O87664   2.069   1.021   3.764
29141WAT     H187665   2.008   0.986   3.836
29141WAT     H287666   2.154   0.969   3.764
29142WAT      O87667   9.442   0.106   4.056
29142WAT     H187668   9.468   0.066   3.968
29142WAT     H287669   9.446   0.037   4.127
29143WAT      O87670   7.199   5.913   6.247
29143WAT     H187671   7.278   5.874   6.200
29143WAT     H287672   7.116   5.867   6.215
29144WAT      O87673   8.440   0.050   2.458
29144WAT     H187674   8.427  -0.027   2.521
29144WAT     H287675   8.493   0.019   2.378
29145WAT      O87676   3.191   4.750   7.854
29145WAT     H187677   3.147   4.825   7.805
29145WAT     H287678   3.274   4.783   7.899
29146WAT      O87679   2.801   1.754   7.307
29146WAT     H187680   2.894   1.783   7.285
29146WAT     H287681   2.798   1.715   7.399
29147WAT      O87682   7.611   0.536   8.529
29147WAT     H187683   7.628   0.454   8.474
29147WAT     H287684   7.648   0.523   8.621
29148WAT      O87685   0.133   3.773   7.347
29148WAT     H187686   0.150   3.695   7.288
29148WAT     H287687   0.220   3.809   7.382
29149WAT      O87688   8.630   3.666   8.204
29149WAT     H187689   8.692   3.733   8.162
29149WAT     H287690   8.550   3.654   8.144
29150WAT      O87691   0.560   5.007   4.588
29150WAT     H187692   0.507   4.990   4.671
29150WAT     H287693   0.504   4.984   4.508
29151WAT      O87694   3.233   3.521   1.931
29151WAT     H187695   3.143   3.478   1.923
29151WAT     H287696   3.240   3.594   1.863
29152WAT      O87697   4.054   0.018   4.467
29152WAT     H187698   4.077   0.073   4.547
29152WAT     H287699   4.112  -0.064   4.465
29153WAT      O87700   7.860   6.227   8.916
29153WAT     H187701   7.866   6.128   8.933
29153WAT     H287702   7.783   6.246   8.856
29154WAT      O87703   1.254   5.582   3.928
29154WAT     H187704   1.261   5.515   3.855
29154WAT     H287705   1.213   5.539   4.009
29155WAT      O87706   5.274   4.179   5.412
29155WAT     H187707   5.228   4.140   5.491
29155WAT     H287708   5.240   4.272   5.395
29156WAT      O87709   5.334   7.306   3.262
29156WAT     H187710   5.405   7.269   3.203
29156WAT     H287711   5.259   7.240   3.270
29157WAT      O87712   3.742   1.238   0.837
29157WAT     H187713   3.839   1.212   0.846
29157WAT     H287714   3.685   1.170   0.883
29158WAT      O87715   9.452   1.669   6.910
29158WAT     H187716   9.536   1.690   6.861
29158WAT     H287717   9.469   1.595   6.975
29159WAT      O87718   6.808   1.530   9.496
29159WAT     H187719   6.903   1.562   9.495
29159WAT     H287720   6.751   1.596   9.545
29160WAT      O87721   9.800   6.895   8.240
29160WAT     H187722   9.891   6.931   8.221
29160WAT     H287723   9.735   6.971   8.245
29161WAT      O87724   7.373   1.797   3.923
29161WAT     H187725   7.314   1.855   3.980
29161WAT     H287726   7.437   1.748   3.982
29162WAT      O87727   8.661   5.689   2.502
29162WAT     H187728   8.736   5.660   2.443
29162WAT     H287729   8.602   5.752   2.453
29163WAT      O87730   7.762   4.338   3.344
29163WAT     H187731   7.769   4.248   3.387
29163WAT     H287732   7.795   4.408   3.407
29164WAT      O87733   1.081   2.401   4.926
29164WAT     H187734   1.032   2.399   4.839
29164WAT     H287735   1.121   2.310   4.943
29165WAT      O87736   4.383   5.165   1.371
29165WAT     H187737   4.372   5.230   1.296
29165WAT     H287738   4.470   5.181   1.417
29166WAT      O87739   4.739   7.972   9.688
29166WAT     H187740   4.792   7.969   9.603
29166WAT     H287741   4.711   8.066   9.706
29167WAT      O87742   3.769   5.988   5.657
29167WAT     H187743   3.731   6.024   5.572
29167WAT     H287744   3.804   6.063   5.713
29168WAT      O87745   0.619   4.380   2.356
29168WAT     H187746   0.583   4.287   2.362
29168WAT     H287747   0.616   4.423   2.446
29169WAT      O87748   6.034   1.073   4.829
29169WAT     H187749   5.993   1.072   4.920
29169WAT     H287750   6.102   1.147   4.824
29170WAT      O87751   7.448   8.365   7.072
29170WAT     H187752   7.417   8.281   7.116
29170WAT     H287753   7.369   8.419   7.042
29171WAT      O87754   1.195   8.891   1.975
29171WAT     H187755   1.244   8.967   2.017
29171WAT     H287756   1.176   8.822   2.044
29172WAT      O87757   3.739   7.001   3.450
29172WAT     H187758   3.642   7.011   3.471
29172WAT     H287759   3.792   7.068   3.503
29173WAT      O87760   0.220   6.783   0.439
29173WAT     H187761   0.130   6.762   0.402
29173WAT     H287762   0.254   6.704   0.490
29174WAT      O87763   4.475   5.427   9.628
29174WAT     H187764   4.529   5.375   9.562
29174WAT     H287765   4.435   5.364   9.695
29175WAT      O87766   5.439   1.706   6.635
29175WAT     H187767   5.538   1.710   6.623
29175WAT     H287768   5.394   1.712   6.546
29176WAT      O87769   4.944   9.110   9.786
29176WAT     H187770   4.878   9.160   9.730
29176WAT     H287771   4.990   9.041   9.731
29177WAT      O87772   2.747   7.989   7.492
29177WAT     H187773   2.749   8.083   7.527
29177WAT     H287774   2.693   7.987   7.408
29178WAT      O87775   3.867   2.463   0.622
29178WAT     H187776   3.916   2.546   0.594
29178WAT     H287777   3.929   2.402   0.671
29179WAT      O87778   7.276   7.013   8.404
29179WAT     H187779   7.248   6.965   8.321
29179WAT     H287780   7.286   6.946   8.478
29180WAT      O87781   1.990   9.189   7.515
29180WAT     H187782   2.050   9.269   7.523
29180WAT     H287783   1.928   9.202   7.438
29181WAT      O87784   6.161   7.372   1.891
29181WAT     H187785   6.134   7.463   1.859
29181WAT     H287786   6.243   7.343   1.842
29182WAT      O87787   4.878   5.169   2.857
29182WAT     H187788   4.930   5.250   2.881
29182WAT     H287789   4.892   5.098   2.926
29183WAT      O87790   8.815   6.909   2.188
29183WAT     H187791   8.844   6.986   2.130
29183WAT     H287792   8.895   6.872   2.236
29184WAT      O87793   8.198   6.325   1.635
29184WAT     H187794   8.217   6.315   1.537
29184WAT     H287795   8.107   6.364   1.647
29185WAT      O87796   9.557   2.365   0.281
29185WAT     H187797   9.539   2.276   0.324
29185WAT     H287798   9.485   2.429   0.308
29186WAT      O87799   5.058   2.972   0.492
29186WAT     H187800   5.140   2.939   0.446
29186WAT     H287801   4.993   3.008   0.425
29187WAT      O87802   1.951   9.384   1.611
29187WAT     H187803   2.029   9.375   1.673
29187WAT     H287804   1.866   9.379   1.664
29188WAT      O87805   3.846   5.997   4.929
29188WAT     H187806   3.774   5.934   4.900
29188WAT     H287807   3.930   5.979   4.878
29189WAT      O87808   9.581   4.456   2.218
29189WAT     H187809   9.569   4.367   2.174
29189WAT     H287810   9.495   4.507   2.215
29190WAT      O87811   5.735   2.061   9.724
29190WAT     H187812   5.761   1.993   9.793
29190WAT     H287813   5.737   2.152   9.765
29191WAT      O87814   7.164   7.338   7.729
29191WAT     H187815   7.264   7.334   7.735
29191WAT     H287816   7.137   7.337   7.633
29192WAT      O87817   2.716   7.374   6.296
29192WAT     H187818   2.782   7.448   6.293
29192WAT     H287819   2.761   7.290   6.327
29193WAT      O87820   5.255   2.655   9.032
29193WAT     H187821   5.156   2.670   9.023
29193WAT     H287822   5.272   2.583   9.098
29194WAT      O87823   8.471   8.959   3.794
29194WAT     H187824   8.473   8.917   3.885
29194WAT     H287825   8.378   8.959   3.760
29195WAT      O87826   9.209   3.239   7.247
29195WAT     H187827   9.130   3.287   7.284
29195WAT     H287828   9.273   3.305   7.208
29196WAT      O87829   7.292   4.445   6.085
29196WAT     H187830   7.312   4.354   6.120
29196WAT     H287831   7.244   4.499   6.154
29197WAT      O87832   6.115   1.497   6.326
29197WAT     H187833   6.029   1.522   6.281
29197WAT     H287834   6.129   1.398   6.318
29198WAT      O87835   0.807   4.105   7.808
29198WAT     H187836   0.888   4.133   7.756
29198WAT     H287837   0.755   4.186   7.835
29199WAT      O87838   8.952   5.258   0.150
29199WAT     H187839   8.940   5.170   0.103
29199WAT     H287840   8.967   5.241   0.248
29200WAT      O87841   8.761   5.763   7.840
29200WAT     H187842   8.748   5.788   7.936
29200WAT     H287843   8.782   5.665   7.834
29201WAT      O87844   6.775   8.322   9.120
29201WAT     H187845   6.769   8.372   9.207
29201WAT     H287846   6.866   8.335   9.081
29202WAT      O87847   0.399   1.935   4.774
29202WAT     H187848   0.435   1.858   4.721
29202WAT     H287849   0.440   1.935   4.866
29203WAT      O87850   8.286   1.669   8.485
29203WAT     H187851   8.293   1.680   8.584
29203WAT     H287852   8.323   1.581   8.458
29204WAT      O87853   5.779   1.340   4.398
29204WAT     H187854   5.681   1.323   4.403
29204WAT     H287855   5.821   1.275   4.335
29205WAT      O87856   5.834   7.306   0.329
29205WAT     H187857   5.739   7.339   0.325
29205WAT     H287858   5.862   7.275   0.239
29206WAT      O87859   6.409   5.440   6.018
29206WAT     H187860   6.373   5.511   5.959
29206WAT     H287861   6.376   5.351   5.988
29207WAT      O87862   2.838   1.469   6.014
29207WAT     H187863   2.882   1.421   6.090
29207WAT     H287864   2.767   1.530   6.049
29208WAT      O87865   2.723   3.395   1.514
29208WAT     H187866   2.632   3.403   1.556
29208WAT     H287867   2.718   3.423   1.419
29209WAT      O87868   7.272   3.392   2.048
29209WAT     H187869   7.318   3.479   2.065
29209WAT     H287870   7.175   3.408   2.032
29210WAT      O87871   6.097   0.186   4.683
29210WAT     H187872   6.141   0.276   4.678
29210WAT     H287873   5.998   0.196   4.674
29211WAT      O87874   0.849   2.670   0.410
29211WAT     H187875   0.852   2.593   0.346
29211WAT     H287876   0.885   2.641   0.499
29212WAT      O87877   3.659   3.055   6.570
29212WAT     H187878   3.726   2.983   6.551
29212WAT     H287879   3.585   3.050   6.502
29213WAT      O87880   8.625   0.613   9.265
29213WAT     H187881   8.723   0.596   9.257
29213WAT     H287882   8.606   0.711   9.252
29214WAT      O87883   5.755   0.949   9.604
29214WAT     H187884   5.690   1.017   9.639
29214WAT     H287885   5.808   0.989   9.529
29215WAT      O87886   6.176   3.039   7.687
29215WAT     H187887   6.158   3.110   7.754
29215WAT     H287888   6.274   3.016   7.688
29216WAT      O87889   2.230   3.381   5.436
29216WAT     H187890   2.313   3.353   5.485
29216WAT     H287891   2.240   3.475   5.404
29217WAT      O87892   6.822   4.660   6.992
29217WAT     H187893   6.743   4.717   6.972
29217WAT     H287894   6.902   4.718   7.006
29218WAT      O87895   9.005   5.818   1.591
29218WAT     H187896   9.030   5.743   1.530
29218WAT     H287897   9.087   5.872   1.612
29219WAT      O87898   1.677   1.898   2.158
29219WAT     H187899   1.644   1.830   2.093
29219WAT     H287900   1.639   1.879   2.249
29220WAT      O87901   7.947   0.989   4.239
29220WAT     H187902   8.016   0.965   4.170
29220WAT     H287903   7.926   1.086   4.232
29221WAT      O87904   7.785   8.749   4.375
29221WAT     H187905   7.777   8.673   4.440
29221WAT     H287906   7.737   8.726   4.290
29222WAT      O87907   6.946   5.354   6.692
29222WAT     H187908   6.913   5.271   6.647
29222WAT     H287909   6.935   5.432   6.630
29223WAT      O87910   3.054   2.682   0.378
29223WAT     H187911   3.028   2.610   0.313
29223WAT     H287912   3.149   2.708   0.361
29224WAT      O87913   4.812   0.812   4.401
29224WAT     H187914   4.854   0.771   4.320
29224WAT     H287915   4.861   0.781   4.482
29225WAT      O87916   7.826   1.928   5.884
29225WAT     H187917   7.805   1.872   5.803
29225WAT     H287918   7.743   1.944   5.936
29226WAT      O87919   5.584   1.707   4.179
29226WAT     H187920   5.486   1.699   4.196
29226WAT     H287921   5.600   1.725   4.082
29227WAT      O87922   7.046   3.751   3.084
29227WAT     H187923   7.069   3.846   3.063
29227WAT     H287924   7.011   3.706   3.002
29228WAT      O87925   3.960   1.021   4.749
29228WAT     H187926   3.934   1.034   4.653
29228WAT     H287927   4.056   1.049   4.761
29229WAT      O87928   6.481   7.947   3.232
29229WAT     H187929   6.405   7.944   3.297
29229WAT     H287930   6.554   8.003   3.269
29230WAT      O87931   7.341   6.898   0.836
29230WAT     H187932   7.418   6.843   0.804
29230WAT     H287933   7.268   6.839   0.870
29231WAT      O87934   5.665   0.005   5.510
29231WAT     H187935   5.598   0.005   5.584
29231WAT     H287936   5.715   0.092   5.510
29232WAT      O87937   9.691   0.750   8.881
29232WAT     H187938   9.783   0.790   8.885
29232WAT     H287939   9.627   0.817   8.846
29233WAT      O87940   8.962   5.956   6.066
29233WAT     H187941   9.029   5.889   6.099
29233WAT     H287942   8.905   5.914   5.996
29234WAT      O87943   6.673   0.255   3.260
29234WAT     H187944   6.616   0.174   3.253
29234WAT     H287945   6.687   0.277   3.357
29235WAT      O87946   5.490   6.287   5.014
29235WAT     H187947   5.565   6.309   4.951
29235WAT     H287948   5.526   6.283   5.108
29236WAT      O87949   4.867   1.119   3.167
29236WAT     H187950   4.791   1.068   3.208
29236WAT     H287951   4.954   1.082   3.199
29237WAT      O87952   7.690   2.958   2.502
29237WAT     H187953   7.644   2.985   2.587
29237WAT     H287954   7.690   3.036   2.439
29238WAT      O87955   3.505   5.082   4.633
29238WAT     H187956   3.420   5.108   4.679
29238WAT     H287957   3.577   5.147   4.658
29239WAT      O87958   4.440   8.854   1.303
29239WAT     H187959   4.493   8.780   1.261
29239WAT     H287960   4.494   8.938   1.303
29240WAT      O87961   5.350   5.368   0.359
29240WAT     H187962   5.363   5.442   0.425
29240WAT     H287963   5.415   5.379   0.283
29241WAT      O87964   5.436   9.825   4.605
29241WAT     H187965   5.535   9.819   4.592
29241WAT     H287966   5.412   9.919   4.629
29242WAT      O87967   8.157   7.899   2.664
29242WAT     H187968   8.248   7.877   2.631
29242WAT     H287969   8.162   7.932   2.758
29243WAT      O87970   0.721   1.076   6.879
29243WAT     H187971   0.727   1.075   6.979
29243WAT     H287972   0.797   1.129   6.841
29244WAT      O87973   8.894   2.781   9.763
29244WAT     H187974   8.815   2.727   9.733
29244WAT     H287975   8.902   2.862   9.706
29245WAT      O87976   9.002   2.565   8.975
29245WAT     H187977   8.912   2.607   8.988
29245WAT     H287978   8.994   2.489   8.910
29246WAT      O87979   2.235   9.096   0.204
29246WAT     H187980   2.179   9.038   0.146
29246WAT     H287981   2.286   9.161   0.148
29247WAT      O87982   4.696   3.266   6.256
29247WAT     H187983   4.774   3.206   6.271
29247WAT     H287984   4.619   3.212   6.222
29248WAT      O87985   6.997   2.280   0.416
29248WAT     H187986   6.965   2.257   0.508
29248WAT     H287987   6.980   2.202   0.355
29249WAT      O87988   4.273   4.162   6.405
29249WAT     H187989   4.336   4.097   6.448
29249WAT     H287990   4.238   4.124   6.320
29250WAT      O87991   7.152   8.973   2.457
29250WAT     H187992   7.189   8.955   2.548
29250WAT     H287993   7.198   8.915   2.390
29251WAT      O87994   0.054   0.328   1.184
29251WAT     H187995   0.019   0.236   1.167
29251WAT     H287996   0.121   0.352   1.114
29252WAT      O87997   8.046   4.658   4.588
29252WAT     H187998   8.022   4.729   4.522
29252WAT     H287999   7.967   4.598   4.602
29253WAT      O88000   6.800   9.476   3.884
29253WAT     H188001   6.819   9.419   3.964
29253WAT     H288002   6.839   9.566   3.897
29254WAT      O88003   2.391   9.547   9.830
29254WAT     H188004   2.481   9.546   9.786
29254WAT     H288005   2.351   9.638   9.821
29255WAT      O88006   4.441   2.719   8.734
29255WAT     H188007   4.369   2.676   8.679
29255WAT     H288008   4.498   2.775   8.675
29256WAT      O88009   5.524   2.686   8.607
29256WAT     H188010   5.432   2.724   8.603
29256WAT     H288011   5.531   2.622   8.683
29257WAT      O88012   3.044   5.923   0.798
29257WAT     H188013   2.968   5.880   0.846
29257WAT     H288014   3.082   5.996   0.855
29258WAT      O88015   5.862   1.920   0.658
29258WAT     H188016   5.835   1.874   0.574
29258WAT     H288017   5.820   2.011   0.661
29259WAT      O88018   9.653   5.675   1.080
29259WAT     H188019   9.592   5.746   1.115
29259WAT     H288020   9.747   5.695   1.108
29260WAT      O88021   7.721   2.088   0.637
29260WAT     H188022   7.809   2.063   0.677
29260WAT     H288023   7.731   2.175   0.588
29261WAT      O88024   0.017   8.119   8.986
29261WAT     H188025   0.011   8.067   8.901
29261WAT     H288026   0.112   8.124   9.016
29262WAT      O88027   9.362   7.976   1.642
29262WAT     H188028   9.380   7.878   1.650
29262WAT     H288029   9.431   8.027   1.694
29263WAT      O88030   2.679   4.743   6.125
29263WAT     H188031   2.708   4.802   6.201
29263WAT     H288032   2.650   4.654   6.162
29264WAT      O88033   4.512   7.394   5.319
29264WAT     H188034   4.414   7.376   5.334
29264WAT     H288035   4.539   7.358   5.230
29265WAT      O88036   8.788   3.955   0.132
29265WAT     H188037   8.779   3.916   0.041
29265WAT     H288038   8.702   3.947   0.182
29266WAT      O88039   9.014   4.531   1.477
29266WAT     H188040   9.061   4.562   1.394
29266WAT     H288041   8.984   4.436   1.465
29267WAT      O88042   7.873   3.545   1.065
29267WAT     H188043   7.948   3.596   1.107
29267WAT     H288044   7.789   3.560   1.116
29268WAT      O88045   0.035   5.979   4.805
29268WAT     H188046  -0.054   5.995   4.847
29268WAT     H288047   0.097   5.939   4.873
29269WAT      O88048   0.013   3.499   3.761
29269WAT     H188049   0.093   3.547   3.797
29269WAT     H288050   0.018   3.494   3.661
29270WAT      O88051   1.057   3.979   0.298
29270WAT     H188052   1.024   3.905   0.356
29270WAT     H288053   1.152   4.000   0.321
29271WAT      O88054   9.493   1.656   5.547
29271WAT     H188055   9.538   1.619   5.466
29271WAT     H288056   9.549   1.730   5.585
29272WAT      O88057   5.922   5.288   3.382
29272WAT     H188058   5.917   5.191   3.358
29272WAT     H288059   5.934   5.298   3.481
29273WAT      O88060   5.749   7.244   0.027
29273WAT     H188061   5.837   7.291   0.030
29273WAT     H288062   5.725   7.222  -0.067
29274WAT      O88063   2.230   9.325   3.336
29274WAT     H188064   2.273   9.411   3.363
29274WAT     H288065   2.181   9.286   3.414
29275WAT      O88066   8.634   0.642   2.266
29275WAT     H188067   8.547   0.607   2.301
29275WAT     H288068   8.619   0.732   2.224
29276WAT      O88069   5.320   0.411   0.249
29276WAT     H188070   5.328   0.509   0.233
29276WAT     H288071   5.282   0.367   0.167
29277WAT      O88072   2.264   3.482   5.852
29277WAT     H188073   2.288   3.478   5.949
29277WAT     H288074   2.199   3.556   5.837
29278WAT      O88075   4.690   4.688   6.194
29278WAT     H188076   4.612   4.682   6.256
29278WAT     H288077   4.774   4.697   6.247
29279WAT      O88078   9.137   2.715   6.989
29279WAT     H188079   9.147   2.780   6.914
29279WAT     H288080   9.056   2.740   7.043
29280WAT      O88081   6.813   9.400   9.872
29280WAT     H188082   6.811   9.432   9.967
29280WAT     H288083   6.809   9.300   9.871
29281WAT      O88084   4.240   2.769   3.112
29281WAT     H188085   4.234   2.693   3.048
29281WAT     H288086   4.307   2.836   3.080
29282WAT      O88087   7.803   4.985   3.943
29282WAT     H188088   7.875   4.941   3.997
29282WAT     H288089   7.719   4.989   3.997
29283WAT      O88090   5.068   4.167   7.064
29283WAT     H188091   4.981   4.214   7.076
29283WAT     H288092   5.143   4.227   7.091
29284WAT      O88093   3.226   4.543   2.948
29284WAT     H188094   3.235   4.508   3.041
29284WAT     H288095   3.172   4.627   2.949
29285WAT      O88096   8.048   0.398   0.217
29285WAT     H188097   7.983   0.430   0.285
29285WAT     H288098   8.025   0.437   0.128
29286WAT      O88099   4.141   1.426   0.185
29286WAT     H188100   4.200   1.370   0.243
29286WAT     H288101   4.064   1.371   0.153
29287WAT      O88102   4.616   9.052   7.924
29287WAT     H188103   4.634   9.061   7.826
29287WAT     H288104   4.542   8.986   7.938
29288WAT      O88105   5.711   1.778   5.940
29288WAT     H188106   5.723   1.824   6.028
29288WAT     H288107   5.761   1.828   5.869
29289WAT      O88108   1.835   4.308   2.384
29289WAT     H188109   1.798   4.400   2.372
29289WAT     H288110   1.934   4.310   2.377
29290WAT      O88111   2.692   6.308   7.623
29290WAT     H188112   2.741   6.237   7.673
29290WAT     H288113   2.678   6.279   7.528
29291WAT      O88114   5.971   1.451   9.267
29291WAT     H188115   6.060   1.422   9.230
29291WAT     H288116   5.900   1.436   9.198
29292WAT      O88117   3.952   9.090   7.746
29292WAT     H188118   3.879   9.023   7.748
29292WAT     H288119   3.991   9.094   7.654
29293WAT      O88120   5.363   2.303   2.254
29293WAT     H188121   5.317   2.233   2.308
29293WAT     H288122   5.457   2.273   2.233
29294WAT      O88123   9.460   3.031   8.288
29294WAT     H188124   9.452   2.995   8.381
29294WAT     H288125   9.470   2.956   8.223
29295WAT      O88126   3.128   5.493   1.994
29295WAT     H188127   3.119   5.532   1.903
29295WAT     H288128   3.134   5.393   1.987
29296WAT      O88129   0.620   8.057   6.008
29296WAT     H188130   0.619   7.973   5.955
29296WAT     H288131   0.530   8.100   6.005
29297WAT      O88132   0.735   5.261   4.201
29297WAT     H188133   0.736   5.255   4.300
29297WAT     H288134   0.648   5.224   4.166
29298WAT      O88135   8.271   9.052   2.450
29298WAT     H188136   8.362   9.081   2.481
29298WAT     H288137   8.241   9.111   2.375
29299WAT      O88138   1.676   1.451   3.314
29299WAT     H188139   1.706   1.544   3.291
29299WAT     H288140   1.729   1.417   3.391
29300WAT      O88141   5.019   3.016   2.922
29300WAT     H188142   4.936   2.979   2.879
29300WAT     H288143   4.993   3.093   2.980
29301WAT      O88144   3.280   1.397   1.660
29301WAT     H188145   3.351   1.356   1.604
29301WAT     H288146   3.191   1.364   1.631
29302WAT      O88147   1.320   4.327   8.716
29302WAT     H188148   1.310   4.304   8.813
29302WAT     H288149   1.325   4.243   8.662
29303WAT      O88150   9.521   4.381   5.898
29303WAT     H188151   9.488   4.438   5.823
29303WAT     H288152   9.443   4.339   5.945
29304WAT      O88153   9.291   8.842   7.810
29304WAT     H188154   9.318   8.897   7.889
29304WAT     H288155   9.276   8.902   7.732
29305WAT      O88156   7.015   6.367   3.462
29305WAT     H188157   6.946   6.398   3.397
29305WAT     H288158   7.028   6.437   3.532
29306WAT      O88159   7.927   8.948   8.276
29306WAT     H188160   8.023   8.918   8.277
29306WAT     H288161   7.872   8.883   8.224
29307WAT      O88162   5.936   9.293   3.743
29307WAT     H188163   5.855   9.295   3.802
29307WAT     H288164   5.912   9.325   3.651
29308WAT      O88165   6.291   8.080   9.325
29308WAT     H188166   6.344   8.008   9.281
29308WAT     H288167   6.209   8.099   9.271
29309WAT      O88168   0.221   0.420   8.558
29309WAT     H188169   0.193   0.447   8.651
29309WAT     H288170   0.143   0.427   8.497
29310WAT      O88171   7.651   4.144   6.352
29310WAT     H188172   7.576   4.126   6.289
29310WAT     H288173   7.680   4.057   6.393
29311WAT      O88174   8.085   5.981   9.164
29311WAT     H188175   8.100   5.980   9.263
29311WAT     H288176   8.057   6.072   9.135
29312WAT      O88177   6.402   4.572   1.882
29312WAT     H188178   6.432   4.632   1.956
29312WAT     H288179   6.318   4.525   1.909
29313WAT      O88180   2.237   2.659   4.217
29313WAT     H188181   2.173   2.671   4.141
29313WAT     H288182   2.327   2.635   4.182
29314WAT      O88183   9.851   1.883   0.368
29314WAT     H188184   9.766   1.855   0.322
29314WAT     H288185   9.859   1.835   0.455
29315WAT      O88186   5.654   1.013   8.769
29315WAT     H188187   5.658   1.013   8.669
29315WAT     H288188   5.562   1.040   8.799
29316WAT      O88189   8.747   9.455   0.295
29316WAT     H188190   8.689   9.501   0.228
29316WAT     H288191   8.795   9.523   0.350
29317WAT      O88192   0.571   4.199   4.245
29317WAT     H188193   0.492   4.185   4.305
29317WAT     H288194   0.545   4.184   4.150
29318WAT      O88195   2.609   0.413   9.494
29318WAT     H188196   2.610   0.511   9.474
29318WAT     H288197   2.530   0.391   9.551
29319WAT      O88198   5.414   4.406   9.295
29319WAT     H188199   5.446   4.315   9.270
29319WAT     H288200   5.457   4.434   9.381
29320WAT      O88201   1.697   3.181   0.097
29320WAT     H188202   1.786   3.214   0.068
29320WAT     H288203   1.701   3.154   0.193
29321WAT      O88204   0.987   8.841   6.526
29321WAT     H188205   0.895   8.805   6.510
29321WAT     H288206   0.983   8.940   6.534
29322WAT      O88207   2.738   3.926   6.322
29322WAT     H188208   2.747   3.839   6.370
29322WAT     H288209   2.731   4.001   6.389
29323WAT      O88210   9.497   4.900   8.830
29323WAT     H188211   9.483   4.815   8.880
29323WAT     H288212   9.411   4.950   8.825
29324WAT      O88213   7.050   6.862   1.059
29324WAT     H188214   7.096   6.950   1.073
29324WAT     H288215   7.114   6.799   1.015
29325WAT      O88216   4.923   2.016   7.110
29325WAT     H188217   4.972   2.060   7.035
29325WAT     H288218   4.939   1.917   7.106
29326WAT      O88219   1.856   6.592   0.862
29326WAT     H188220   1.764   6.553   0.872
29326WAT     H288221   1.923   6.518   0.854
29327WAT      O88222   3.004   2.369   2.023
29327WAT     H188223   2.907   2.390   2.020
29327WAT     H288224   3.018   2.285   2.076
29328WAT      O88225   0.029   4.504   9.012
29328WAT     H188226   0.051   4.510   9.110
29328WAT     H288227   0.069   4.421   8.974
29329WAT      O88228   7.767   6.203   2.565
29329WAT     H188229   7.759   6.217   2.664
29329WAT     H288230   7.754   6.106   2.543
29330WAT      O88231   9.877   1.422   0.154
29330WAT     H188232   9.799   1.407   0.216
29330WAT     H288233   9.846   1.470   0.072
29331WAT      O88234   4.743   0.376   5.843
29331WAT     H188235   4.720   0.306   5.775
29331WAT     H288236   4.791   0.333   5.919
29332WAT      O88237   5.905   6.370   2.585
29332WAT     H188238   5.912   6.398   2.681
29332WAT     H288239   5.996   6.367   2.543
29333WAT      O88240   1.157   7.325   6.015
29333WAT     H188241   1.131   7.240   5.969
29333WAT     H288242   1.132   7.319   6.112
29334WAT      O88243   7.705   8.487   8.231
29334WAT     H188244   7.677   8.417   8.165
29334WAT     H288245   7.769   8.550   8.187
29335WAT      O88246   3.092   7.365   0.285
29335WAT     H188247   3.010   7.418   0.262
29335WAT     H288248   3.170   7.426   0.296
29336WAT      O88249   3.356   9.361   3.985
29336WAT     H188250   3.388   9.453   4.007
29336WAT     H288251   3.282   9.335   4.047
29337WAT      O88252   8.896   0.624   4.754
29337WAT     H188253   8.857   0.691   4.817
29337WAT     H288254   8.995   0.639   4.747
29338WAT      O88255   4.726   3.810   2.212
29338WAT     H188256   4.653   3.821   2.145
29338WAT     H288257   4.685   3.794   2.302
29339WAT      O88258   0.019   1.544   1.429
29339WAT     H188259   0.018   1.641   1.454
29339WAT     H288260   0.114   1.511   1.427
29340WAT      O88261   5.534   6.595   7.589
29340WAT     H188262   5.589   6.655   7.647
29340WAT     H288263   5.585   6.572   7.506
29341WAT      O88264   8.850   3.478   7.867
29341WAT     H188265   8.765   3.428   7.852
29341WAT     H288266   8.847   3.564   7.815
29342WAT      O88267   5.546   7.799   3.408
29342WAT     H188268   5.514   7.856   3.332
29342WAT     H288269   5.549   7.703   3.378
29343WAT      O88270   3.906   7.967   8.144
29343WAT     H188271   3.995   7.960   8.188
29343WAT     H288272   3.852   8.040   8.187
29344WAT      O88273   9.455   6.925   2.747
29344WAT     H188274   9.522   6.899   2.678
29344WAT     H288275   9.363   6.912   2.710
29345WAT      O88276   5.130   5.975   4.012
29345WAT     H188277   5.190   5.897   4.034
29345WAT     H288278   5.056   5.944   3.953
29346WAT      O88279   2.372   1.022   9.609
29346WAT     H188280   2.426   1.105   9.617
29346WAT     H288281   2.409   0.952   9.670
29347WAT      O88282   5.806   0.165   9.660
29347WAT     H188283   5.749   0.175   9.742
29347WAT     H288284   5.901   0.148   9.687
29348WAT      O88285   9.764   8.568   4.591
29348WAT     H188286   9.836   8.498   4.593
29348WAT     H288287   9.798   8.649   4.542
29349WAT      O88288   0.046   7.867   4.027
29349WAT     H188289   0.103   7.821   4.095
29349WAT     H288290   0.002   7.799   3.969
29350WAT      O88291   1.417   4.835   8.506
29350WAT     H188292   1.470   4.919   8.494
29350WAT     H288293   1.347   4.830   8.435
29351WAT      O88294   2.700   9.328   0.889
29351WAT     H188295   2.661   9.359   0.803
29351WAT     H288296   2.787   9.375   0.905
29352WAT      O88297   9.893   0.467   9.875
29352WAT     H188298   9.807   0.416   9.873
29352WAT     H288299   9.875   0.564   9.861
29353WAT      O88300   8.538   1.553   8.656
29353WAT     H188301   8.510   1.516   8.745
29353WAT     H288302   8.505   1.493   8.583
29354WAT      O88303   2.881   0.238   2.833
29354WAT     H188304   2.823   0.278   2.904
29354WAT     H288305   2.973   0.222   2.869
29355WAT      O88306   6.670   0.601   5.831
29355WAT     H188307   6.586   0.555   5.800
29355WAT     H288308   6.652   0.648   5.917
29356WAT      O88309   2.657   2.204   1.413
29356WAT     H188310   2.581   2.240   1.359
29356WAT     H288311   2.645   2.230   1.509
29357WAT      O88312   8.924   9.548   5.619
29357WAT     H188313   8.938   9.465   5.673
29357WAT     H288314   8.864   9.528   5.542
29358WAT      O88315   1.329   6.304   0.819
29358WAT     H188316   1.242   6.347   0.844
29358WAT     H288317   1.394   6.374   0.790
29359WAT      O88318   8.191   6.522   4.649
29359WAT     H188319   8.273   6.471   4.623
29359WAT     H288320   8.133   6.464   4.707
29360WAT      O88321   4.652   7.535   5.654
29360WAT     H188322   4.669   7.619   5.705
29360WAT     H288323   4.730   7.474   5.663
29361WAT      O88324   7.262   4.984   8.946
29361WAT     H188325   7.217   4.989   9.035
29361WAT     H288326   7.193   4.974   8.874
29362WAT      O88327   1.734   6.950   0.294
29362WAT     H188328   1.727   7.025   0.228
29362WAT     H288329   1.644   6.929   0.331
29363WAT      O88330   4.953   5.995   3.145
29363WAT     H188331   4.988   6.069   3.201
29363WAT     H288332   4.853   5.996   3.148
29364WAT      O88333   9.796   5.562   3.913
29364WAT     H188334   9.811   5.633   3.843
29364WAT     H288335   9.805   5.472   3.871
29365WAT      O88336   0.968   8.814   4.988
29365WAT     H188337   0.877   8.817   5.030
29365WAT     H288338   0.993   8.719   4.971
29366WAT      O88339   7.558   7.764   7.311
29366WAT     H188340   7.544   7.688   7.248
29366WAT     H288341   7.470   7.806   7.334
29367WAT      O88342   3.058   9.040   4.252
29367WAT     H188343   3.056   9.069   4.156
29367WAT     H288344   3.059   9.121   4.311
29368WAT      O88345   1.717   7.564   0.537
29368WAT     H188346   1.723   7.464   0.530
29368WAT     H288347   1.627   7.589   0.571
29369WAT      O88348   1.542   4.288   0.675
29369WAT     H188349   1.531   4.266   0.578
29369WAT     H288350   1.556   4.203   0.727
29370WAT      O88351   8.656   6.597   6.866
29370WAT     H188352   8.696   6.520   6.915
29370WAT     H288353   8.699   6.605   6.776
29371WAT      O88354   9.155   3.361   5.217
29371WAT     H188355   9.254   3.370   5.225
29371WAT     H288356   9.110   3.422   5.283
29372WAT      O88357   6.705   1.861   7.983
29372WAT     H188358   6.653   1.786   8.023
29372WAT     H288359   6.725   1.841   7.887
29373WAT      O88360   8.133   5.051   4.410
29373WAT     H188361   8.059   4.984   4.405
29373WAT     H288362   8.153   5.071   4.505
29374WAT      O88363   9.255   1.457   4.307
29374WAT     H188364   9.184   1.410   4.360
29374WAT     H288365   9.328   1.486   4.368
29375WAT      O88366   5.788   3.390   0.385
29375WAT     H188367   5.751   3.412   0.475
29375WAT     H288368   5.844   3.466   0.352
29376WAT      O88369   2.116   6.191   9.638
29376WAT     H188370   2.185   6.186   9.710
29376WAT     H288371   2.025   6.180   9.678
29377WAT      O88372   7.320   8.384   1.563
29377WAT     H188373   7.285   8.290   1.566
29377WAT     H288374   7.420   8.381   1.563
29378WAT      O88375   4.529   0.174   1.294
29378WAT     H188376   4.556   0.083   1.264
29378WAT     H288377   4.524   0.177   1.394
29379WAT      O88378   4.780   6.310   6.568
29379WAT     H188379   4.700   6.324   6.627
29379WAT     H288380   4.766   6.229   6.512
29380WAT      O88381   1.081   0.144   8.725
29380WAT     H188382   1.165   0.172   8.771
29380WAT     H288383   1.006   0.139   8.792
29381WAT      O88384   8.872   5.461   2.096
29381WAT     H188385   8.886   5.362   2.100
29381WAT     H288386   8.934   5.501   2.028
29382WAT      O88387   6.603   7.624   5.253
29382WAT     H188388   6.679   7.581   5.301
29382WAT     H288389   6.554   7.685   5.315
29383WAT      O88390   0.974   4.710   0.698
29383WAT     H188391   0.906   4.772   0.660
29383WAT     H288392   0.950   4.615   0.676
29384WAT      O88393   1.323   3.766   9.432
29384WAT     H188394   1.373   3.725   9.508
29384WAT     H288395   1.373   3.750   9.347
29385WAT      O88396   0.826   2.163   5.805
29385WAT     H188397   0.812   2.250   5.757
29385WAT     H288398   0.916   2.127   5.784
29386WAT      O88399   5.505   2.116   0.721
29386WAT     H188400   5.464   2.030   0.751
29386WAT     H288401   5.549   2.161   0.799
29387WAT      O88402   2.561   0.898   2.216
29387WAT     H188403   2.577   0.900   2.117
29387WAT     H288404   2.463   0.889   2.234
29388WAT      O88405   7.629   9.685   0.280
29388WAT     H188406   7.554   9.680   0.345
29388WAT     H288407   7.683   9.600   0.284
29389WAT      O88408   2.339   7.799   5.761
29389WAT     H188409   2.316   7.761   5.851
29389WAT     H288410   2.287   7.883   5.746
29390WAT      O88411   0.546   9.661   8.157
29390WAT     H188412   0.525   9.579   8.104
29390WAT     H288413   0.508   9.742   8.111
29391WAT      O88414   5.714   8.338   5.841
29391WAT     H188415   5.668   8.404   5.781
29391WAT     H288416   5.700   8.364   5.936
29392WAT      O88417   3.985   8.909   4.825
29392WAT     H188418   3.903   8.951   4.865
29392WAT     H288419   4.063   8.926   4.885
29393WAT      O88420   1.527   9.686   6.593
29393WAT     H188421   1.598   9.621   6.568
29393WAT     H288422   1.570   9.771   6.624
29394WAT      O88423   0.429   6.934   7.787
29394WAT     H188424   0.508   6.888   7.828
29394WAT     H288425   0.394   6.878   7.712
29395WAT      O88426   9.768   2.566   1.565
29395WAT     H188427   9.859   2.555   1.603
29395WAT     H288428   9.748   2.663   1.550
29396WAT      O88429   3.458   4.545   1.120
29396WAT     H188430   3.370   4.497   1.124
29396WAT     H288431   3.529   4.482   1.088
29397WAT      O88432   5.783   6.855   8.143
29397WAT     H188433   5.723   6.932   8.123
29397WAT     H288434   5.878   6.880   8.121
29398WAT      O88435   0.424   6.430   9.260
29398WAT     H188436   0.383   6.355   9.207
29398WAT     H288437   0.450   6.396   9.350
29399WAT      O88438   6.903   3.653   8.531
29399WAT     H188439   6.954   3.573   8.563
29399WAT     H288440   6.950   3.694   8.453
29400WAT      O88441   8.290   7.325   8.254
29400WAT     H188442   8.214   7.311   8.318
29400WAT     H288443   8.258   7.378   8.175
29401WAT      O88444   1.080   9.748   6.176
29401WAT     H188445   1.036   9.801   6.104
29401WAT     H288446   1.171   9.721   6.146
29402WAT      O88447   7.678   8.980   6.216
29402WAT     H188448   7.666   9.069   6.173
29402WAT     H288449   7.744   8.988   6.291
29403WAT      O88450   1.796   8.196   5.670
29403WAT     H188451   1.765   8.132   5.600
29403WAT     H288452   1.777   8.157   5.761
29404WAT      O88453   9.562   6.338   9.254
29404WAT     H188454   9.639   6.275   9.240
29404WAT     H288455   9.484   6.306   9.200
29405WAT      O88456   8.977   8.994   8.566
29405WAT     H188457   9.037   8.927   8.523
29405WAT     H288458   8.884   8.957   8.572
29406WAT      O88459   2.451   5.779   5.222
29406WAT     H188460   2.439   5.687   5.185
29406WAT     H288461   2.382   5.840   5.184
29407WAT      O88462   2.801   4.182   5.159
29407WAT     H188463   2.877   4.243   5.140
29407WAT     H288464   2.832   4.087   5.157
29408WAT      O88465   8.068   5.787   5.342
29408WAT     H188466   8.013   5.800   5.424
29408WAT     H288467   8.021   5.828   5.264
29409WAT      O88468   8.729   7.952   9.547
29409WAT     H188469   8.760   7.869   9.594
29409WAT     H288470   8.684   7.928   9.462
29410WAT      O88471   6.945   6.612   1.119
29410WAT     H188472   6.960   6.708   1.096
29410WAT     H288473   7.032   6.571   1.147
29411WAT      O88474   2.876   7.112   7.980
29411WAT     H188475   2.848   7.208   7.982
29411WAT     H288476   2.967   7.105   7.939
29412WAT      O88477   0.572   4.900   0.006
29412WAT     H188478   0.603   4.822   0.060
29412WAT     H288479   0.550   4.870  -0.087
29413WAT      O88480   2.854   5.214   1.993
29413WAT     H188481   2.805   5.301   1.983
29413WAT     H288482   2.798   5.140   1.956
29414WAT      O88483   7.883   0.083   6.171
29414WAT     H188484   7.850  -0.009   6.189
29414WAT     H288485   7.859   0.143   6.247
29415WAT      O88486   4.449   4.238   4.379
29415WAT     H188487   4.365   4.270   4.333
29415WAT     H288488   4.528   4.278   4.334
29416WAT      O88489   9.048   0.241   8.530
29416WAT     H188490   9.013   0.156   8.490
29416WAT     H288491   9.142   0.256   8.498
29417WAT      O88492   8.976   4.907   4.956
29417WAT     H188493   8.946   4.982   4.897
29417WAT     H288494   8.969   4.821   4.905
29418WAT      O88495   3.733   9.663   2.031
29418WAT     H188496   3.634   9.648   2.033
29418WAT     H288497   3.753   9.751   1.988
29419WAT      O88498   3.201   4.312   9.403
29419WAT     H188499   3.114   4.301   9.451
29419WAT     H288500   3.237   4.221   9.380
29420WAT      O88501   6.172   7.831   5.180
29420WAT     H188502   6.209   7.912   5.134
29420WAT     H288503   6.199   7.833   5.277
29421WAT      O88504   9.822   0.329   5.273
29421WAT     H188505   9.869   0.393   5.213
29421WAT     H288506   9.734   0.303   5.232
29422WAT      O88507   5.407   0.338   2.210
29422WAT     H188508   5.398   0.417   2.271
29422WAT     H288509   5.451   0.263   2.259
29423WAT      O88510   9.851   5.485   4.324
29423WAT     H188511   9.762   5.450   4.292
29423WAT     H288512   9.876   5.564   4.269
29424WAT      O88513   1.800   7.846   8.933
29424WAT     H188514   1.807   7.915   8.860
29424WAT     H288515   1.871   7.862   9.000
29425WAT      O88516   7.519   8.799   1.201
29425WAT     H188517   7.440   8.798   1.262
29425WAT     H288518   7.545   8.705   1.178
29426WAT      O88519   3.728   1.631   7.916
29426WAT     H188520   3.806   1.612   7.976
29426WAT     H288521   3.760   1.680   7.835
29427WAT      O88522   1.545   7.987   9.272
29427WAT     H188523   1.626   8.044   9.279
29427WAT     H288524   1.528   7.941   9.359
29428WAT      O88525   5.977   8.278   5.627
29428WAT     H188526   6.066   8.261   5.586
29428WAT     H288527   5.988   8.296   5.725
29429WAT      O88528   7.580   8.362   7.321
29429WAT     H188529   7.575   8.338   7.224
29429WAT     H288530   7.488   8.383   7.355
29430WAT      O88531   3.946   9.528   4.428
29430WAT     H188532   3.862   9.474   4.438
29430WAT     H288533   4.000   9.492   4.352
29431WAT      O88534   3.959   7.069   8.595
29431WAT     H188535   4.042   7.040   8.642
29431WAT     H288536   3.906   7.129   8.655
29432WAT      O88537   0.249   4.156   3.601
29432WAT     H188538   0.328   4.216   3.587
29432WAT     H288539   0.165   4.211   3.598
29433WAT      O88540   7.526   5.291   0.386
29433WAT     H188541   7.558   5.212   0.437
29433WAT     H288542   7.491   5.360   0.449
29434WAT      O88543   5.551   7.932   4.103
29434WAT     H188544   5.509   7.998   4.165
29434WAT     H288545   5.650   7.945   4.102
29435WAT      O88546   7.031   5.389   1.254
29435WAT     H188547   7.018   5.367   1.351
29435WAT     H288548   7.120   5.355   1.224
29436WAT      O88549   0.086   3.733   7.745
29436WAT     H188550   0.011   3.668   7.761
29436WAT     H288551   0.049   3.824   7.726
29437WAT      O88552   2.169   8.787   5.780
29437WAT     H188553   2.251   8.748   5.737
29437WAT     H288554   2.172   8.771   5.878
29438WAT      O88555   3.080   5.317   4.154
29438WAT     H188556   2.981   5.320   4.138
29438WAT     H288557   3.118   5.409   4.143
29439WAT      O88558   4.385   7.028   7.292
29439WAT     H188559   4.356   6.947   7.240
29439WAT     H288560   4.449   7.082   7.237
29440WAT      O88561   4.566   7.207   0.215
29440WAT     H188562   4.578   7.305   0.227
29440WAT     H288563   4.635   7.173   0.151
29441WAT      O88564   9.558   6.761   6.171
29441WAT     H188565   9.533   6.690   6.237
29441WAT     H288566   9.493   6.760   6.095
29442WAT      O88567   9.764   3.804   6.141
29442WAT     H188568   9.734   3.810   6.046
29442WAT     H288569   9.686   3.814   6.202
29443WAT      O88570   0.847   5.572   8.515
29443WAT     H188571   0.907   5.592   8.437
29443WAT     H288572   0.772   5.639   8.518
29444WAT      O88573   9.795   9.514   2.535
29444WAT     H188574   9.826   9.555   2.450
29444WAT     H288575   9.841   9.557   2.612
29445WAT      O88576   5.809   0.724   8.744
29445WAT     H188577   5.771   0.750   8.833
29445WAT     H288578   5.862   0.640   8.754
29446WAT      O88579   1.407   1.155   4.053
29446WAT     H188580   1.417   1.115   3.962
29446WAT     H288581   1.311   1.150   4.081
29447WAT      O88582   4.792   5.034   9.211
29447WAT     H188583   4.863   4.999   9.271
29447WAT     H288584   4.724   4.963   9.194
29448WAT      O88585   4.358   8.013   9.489
29448WAT     H188586   4.398   8.101   9.516
29448WAT     H288587   4.406   7.940   9.537
29449WAT      O88588   4.890   8.021   1.024
29449WAT     H188589   4.889   7.922   1.033
29449WAT     H288590   4.915   8.046   0.931
29450WAT      O88591   0.614   5.767   0.357
29450WAT     H188592   0.521   5.775   0.322
29450WAT     H288593   0.678   5.755   0.281
29451WAT      O88594   9.253   8.420   2.478
29451WAT     H188595   9.191   8.467   2.541
29451WAT     H288596   9.251   8.466   2.389
29452WAT      O88597   8.436   4.419   0.664
29452WAT     H188598   8.505   4.465   0.719
29452WAT     H288599   8.405   4.337   0.712
29453WAT      O88600   6.848   6.664   3.936
29453WAT     H188601   6.883   6.571   3.923
29453WAT     H288602   6.751   6.659   3.961
29454WAT      O88603   2.455   5.910   0.664
29454WAT     H188604   2.385   5.969   0.623
29454WAT     H288605   2.486   5.843   0.597
29455WAT      O88606   2.508   4.659   1.455
29455WAT     H188607   2.558   4.736   1.415
29455WAT     H288608   2.526   4.576   1.402
29456WAT      O88609   9.448   9.514   3.213
29456WAT     H188610   9.382   9.505   3.138
29456WAT     H288611   9.478   9.610   3.219
29457WAT      O88612   6.171   5.747   1.795
29457WAT     H188613   6.144   5.757   1.891
29457WAT     H288614   6.151   5.654   1.764
29458WAT      O88615   3.205   7.727   1.340
29458WAT     H188616   3.196   7.725   1.241
29458WAT     H288617   3.122   7.764   1.381
29459WAT      O88618   6.815   3.568   7.596
29459WAT     H188619   6.759   3.591   7.676
29459WAT     H288620   6.900   3.524   7.627
29460WAT      O88621   9.442   2.748   7.839
29460WAT     H188622   9.483   2.658   7.825
29460WAT     H288623   9.465   2.807   7.761
29461WAT      O88624   4.459   0.156   4.893
29461WAT     H188625   4.442   0.249   4.861
29461WAT     H288626   4.379   0.099   4.876
29462WAT      O88627   9.410   0.654   8.010
29462WAT     H188628   9.443   0.560   8.013
29462WAT     H288629   9.448   0.705   8.087
29463WAT      O88630   3.540   9.357   7.833
29463WAT     H188631   3.505   9.264   7.827
29463WAT     H288632   3.639   9.356   7.823
29464WAT      O88633   1.210   7.974   5.846
29464WAT     H188634   1.136   7.929   5.897
29464WAT     H288635   1.231   7.921   5.764
29465WAT      O88636   1.183   0.847   3.274
29465WAT     H188637   1.128   0.827   3.192
29465WAT     H288638   1.127   0.895   3.341
29466WAT      O88639   6.027   8.726   8.196
29466WAT     H188640   6.098   8.718   8.266
29466WAT     H288641   5.973   8.641   8.195
29467WAT      O88642   7.424   3.179   3.320
29467WAT     H188643   7.375   3.149   3.402
29467WAT     H288644   7.453   3.274   3.331
29468WAT      O88645   4.247   9.105   6.994
29468WAT     H188646   4.148   9.113   6.996
29468WAT     H288647   4.274   9.046   6.918
29469WAT      O88648   6.898   9.260   5.320
29469WAT     H188649   6.834   9.296   5.252
29469WAT     H288650   6.989   9.255   5.280
29470WAT      O88651   8.186   3.525   5.596
29470WAT     H188652   8.261   3.562   5.651
29470WAT     H288653   8.192   3.560   5.503
29471WAT      O88654   0.328   7.836   7.733
29471WAT     H188655   0.238   7.872   7.709
29471WAT     H288656   0.326   7.736   7.728
29472WAT      O88657   2.767   1.187   4.707
29472WAT     H188658   2.714   1.102   4.698
29472WAT     H288659   2.775   1.210   4.804
29473WAT      O88660   6.568   0.217   9.147
29473WAT     H188661   6.593   0.285   9.216
29473WAT     H288662   6.487   0.167   9.177
29474WAT      O88663   9.506   7.049   1.657
29474WAT     H188664   9.411   7.080   1.664
29474WAT     H288665   9.540   7.028   1.749
29475WAT      O88666   3.034   1.511   1.420
29475WAT     H188667   3.101   1.578   1.454
29475WAT     H288668   3.034   1.430   1.479
29476WAT      O88669   1.614   7.031   9.254
29476WAT     H188670   1.707   7.002   9.232
29476WAT     H288671   1.556   7.024   9.173
29477WAT      O88672   6.992   9.215   0.222
29477WAT     H188673   7.048   9.261   0.154
29477WAT     H288674   7.050   9.159   0.280
29478WAT      O88675   0.134   1.976   3.209
29478WAT     H188676   0.123   1.876   3.209
29478WAT     H288677   0.202   2.002   3.278
29479WAT      O88678   8.389   7.174   3.324
29479WAT     H188679   8.334   7.244   3.279
29479WAT     H288680   8.331   7.119   3.384
29480WAT      O88681   8.317   8.079   3.027
29480WAT     H188682   8.262   8.142   3.081
29480WAT     H288683   8.263   7.999   3.002
29481WAT      O88684   1.606   0.016   1.448
29481WAT     H188685   1.666  -0.050   1.401
29481WAT     H288686   1.539  -0.034   1.504
29482WAT      O88687   9.557   9.459   4.481
29482WAT     H188688   9.483   9.392   4.489
29482WAT     H288689   9.557   9.519   4.561
29483WAT      O88690   0.853   0.359   5.209
29483WAT     H188691   0.778   0.400   5.261
29483WAT     H288692   0.937   0.361   5.263
29484WAT      O88693   0.628   3.724   1.722
29484WAT     H188694   0.571   3.793   1.767
29484WAT     H288695   0.724   3.748   1.732
29485WAT      O88696   5.431   0.556   2.371
29485WAT     H188697   5.429   0.624   2.298
29485WAT     H288698   5.526   0.539   2.397
29486WAT      O88699   9.475   5.841   7.579
29486WAT     H188700   9.531   5.910   7.533
29486WAT     H288701   9.378   5.862   7.566
29487WAT      O88702   0.435   5.467   8.640
29487WAT     H188703   0.411   5.383   8.689
29487WAT     H288704   0.520   5.454   8.590
29488WAT      O88705   5.098   7.074   3.081
29488WAT     H188706   5.097   6.990   3.027
29488WAT     H288707   5.053   7.058   3.169
29489WAT      O88708   0.367   4.461   4.517
29489WAT     H188709   0.326   4.531   4.576
29489WAT     H288710   0.460   4.442   4.548
29490WAT      O88711   4.702   5.355   3.695
29490WAT     H188712   4.664   5.379   3.784
29490WAT     H288713   4.704   5.255   3.685
29491WAT      O88714   3.896   2.529   4.725
29491WAT     H188715   3.950   2.610   4.746
29491WAT     H288716   3.804   2.557   4.696
29492WAT      O88717   3.998   7.168   4.036
29492WAT     H188718   3.934   7.123   3.975
29492WAT     H288719   4.046   7.240   3.987
29493WAT      O88720   8.339   6.256   1.367
29493WAT     H188721   8.434   6.274   1.391
29493WAT     H288722   8.318   6.294   1.277
29494WAT      O88723   6.721   7.572   8.182
29494WAT     H188724   6.733   7.552   8.279
29494WAT     H288725   6.625   7.597   8.165
29495WAT      O88726   9.195   4.497   6.161
29495WAT     H188727   9.280   4.547   6.179
29495WAT     H288728   9.216   4.407   6.123
29496WAT      O88729   9.844   6.024   3.649
29496WAT     H188730   9.846   6.048   3.746
29496WAT     H288731   9.784   6.085   3.600
29497WAT      O88732   4.988   7.844   6.086
29497WAT     H188733   5.055   7.918   6.087
29497WAT     H288734   4.915   7.864   6.151
29498WAT      O88735   9.170   2.972   4.760
29498WAT     H188736   9.134   2.878   4.754
29498WAT     H288737   9.175   3.011   4.669
29499WAT      O88738   2.846   5.069   4.027
29499WAT     H188739   2.841   5.087   4.125
29499WAT     H288740   2.813   4.976   4.008
29500WAT      O88741   1.989   7.940   1.946
29500WAT     H188742   2.016   7.848   1.918
29500WAT     H288743   2.024   7.959   2.038
29501WAT      O88744   1.599   2.782   8.626
29501WAT     H188745   1.598   2.879   8.601
29501WAT     H288746   1.543   2.768   8.707
29502WAT      O88747   6.498   2.541   5.278
29502WAT     H188748   6.581   2.591   5.256
29502WAT     H288749   6.495   2.522   5.377
29503WAT      O88750   1.933   8.211   6.899
29503WAT     H188751   1.995   8.229   6.823
29503WAT     H288752   1.939   8.285   6.966
29504WAT      O88753   4.255   7.968   2.626
29504WAT     H188754   4.179   8.028   2.600
29504WAT     H288755   4.288   7.918   2.546
29505WAT      O88756   9.148   9.068   6.183
29505WAT     H188757   9.079   9.069   6.110
29505WAT     H288758   9.189   8.977   6.189
29506WAT      O88759   4.222   9.148   1.926
29506WAT     H188760   4.313   9.149   1.966
29506WAT     H288761   4.210   9.066   1.870
29507WAT      O88762   2.492   4.847   3.955
29507WAT     H188763   2.505   4.929   4.011
29507WAT     H288764   2.571   4.834   3.895
29508WAT      O88765   7.592   4.693   9.870
29508WAT     H188766   7.642   4.769   9.913
29508WAT     H288767   7.525   4.730   9.806
29509WAT      O88768   5.887   7.442   6.621
29509WAT     H188769   5.924   7.447   6.528
29509WAT     H288770   5.791   7.468   6.620
29510WAT      O88771   1.543   9.339   8.424
29510WAT     H188772   1.528   9.437   8.440
29510WAT     H288773   1.593   9.327   8.339
29511WAT      O88774   6.567   0.845   5.049
29511WAT     H188775   6.557   0.803   5.139
29511WAT     H288776   6.664   0.847   5.025
29512WAT      O88777   7.960   6.974   0.659
29512WAT     H188778   7.908   7.008   0.737
29512WAT     H288779   7.974   6.875   0.669
29513WAT      O88780   7.471   3.905   1.962
29513WAT     H188781   7.519   3.957   1.892
29513WAT     H288782   7.373   3.907   1.942
29514WAT      O88783   2.700   6.476   5.411
29514WAT     H188784   2.771   6.518   5.355
29514WAT     H288785   2.610   6.511   5.383
29515WAT      O88786   0.881   4.095   3.860
29515WAT     H188787   0.782   4.089   3.873
29515WAT     H288788   0.917   4.173   3.912
29516WAT      O88789   2.989   8.038   2.976
29516WAT     H188790   3.055   8.078   2.913
29516WAT     H288791   2.988   7.939   2.964
29517WAT      O88792   9.072   0.346   6.561
29517WAT     H188793   9.025   0.258   6.565
29517WAT     H288794   9.005   0.420   6.563
29518WAT      O88795   1.933   5.589   9.438
29518WAT     H188796   1.873   5.568   9.514
29518WAT     H288797   1.890   5.657   9.378
29519WAT      O88798   6.518   4.050   4.016
29519WAT     H188799   6.517   3.985   4.093
29519WAT     H288800   6.610   4.087   4.004
29520WAT      O88801   1.601   8.335   3.052
29520WAT     H188802   1.525   8.306   2.994
29520WAT     H288803   1.664   8.258   3.064
29521WAT      O88804   3.515   5.938   4.181
29521WAT     H188805   3.450   5.863   4.188
29521WAT     H288806   3.472   6.022   4.214
29522WAT      O88807   3.632   1.483   9.324
29522WAT     H188808   3.648   1.562   9.382
29522WAT     H288809   3.667   1.401   9.369
29523WAT      O88810   3.791   8.188   7.104
29523WAT     H188811   3.731   8.187   7.185
29523WAT     H288812   3.880   8.150   7.128
29524WAT      O88813   9.251   1.560   6.379
29524WAT     H188814   9.289   1.474   6.345
29524WAT     H288815   9.272   1.569   6.476
29525WAT      O88816   1.068   8.967   0.189
29525WAT     H188817   1.143   8.959   0.124
29525WAT     H288818   1.061   9.061   0.220
29526WAT      O88819   3.928   3.217   2.838
29526WAT     H188820   3.977   3.255   2.916
29526WAT     H288821   3.881   3.133   2.865
29527WAT      O88822   2.826   3.938   4.070
29527WAT     H188823   2.747   3.945   4.009
29527WAT     H288824   2.904   3.902   4.019
29528WAT      O88825   6.677   8.438   2.433
29528WAT     H188826   6.611   8.469   2.364
29528WAT     H288827   6.719   8.352   2.401
29529WAT      O88828   5.956   0.935   3.788
29529WAT     H188829   5.969   0.837   3.773
29529WAT     H288830   5.861   0.953   3.812
29530WAT      O88831   3.587   4.932   3.787
29530WAT     H188832   3.621   4.847   3.748
29530WAT     H288833   3.558   4.916   3.882
29531WAT      O88834   3.615   7.011   1.151
29531WAT     H188835   3.555   7.046   1.079
29531WAT     H288836   3.633   7.084   1.217
29532WAT      O88837   3.362   0.143   2.653
29532WAT     H188838   3.380   0.107   2.744
29532WAT     H288839   3.405   0.084   2.585
29533WAT      O88840   3.101   1.160   0.711
29533WAT     H188841   3.068   1.193   0.799
29533WAT     H288842   3.201   1.157   0.712
29534WAT      O88843   9.625   1.780   3.418
29534WAT     H188844   9.548   1.844   3.424
29534WAT     H288845   9.635   1.749   3.324
29535WAT      O88846   6.076   8.212   9.154
29535WAT     H188847   6.082   8.263   9.069
29535WAT     H288848   6.053   8.274   9.229
29536WAT      O88849   0.180   2.163   1.356
29536WAT     H188850   0.092   2.195   1.391
29536WAT     H288851   0.196   2.202   1.265
29537WAT      O88852   0.796   3.427   5.599
29537WAT     H188853   0.882   3.470   5.625
29537WAT     H288854   0.812   3.331   5.575
29538WAT      O88855   2.696   4.616   9.814
29538WAT     H188856   2.782   4.595   9.766
29538WAT     H288857   2.675   4.542   9.878
29539WAT      O88858   4.916   8.374   2.832
29539WAT     H188859   4.890   8.305   2.900
29539WAT     H288860   4.838   8.392   2.772
29540WAT      O88861   9.869   6.647   4.704
29540WAT     H188862   9.914   6.581   4.764
29540WAT     H288863   9.773   6.621   4.692
29541WAT      O88864   3.355   7.256   6.777
29541WAT     H188865   3.439   7.310   6.780
29541WAT     H288866   3.373   7.166   6.818
29542WAT      O88867   2.156   3.061   3.113
29542WAT     H188868   2.182   3.027   3.204
29542WAT     H288869   2.125   2.985   3.057
29543WAT      O88870   1.593   8.147   4.147
29543WAT     H188871   1.533   8.203   4.204
29543WAT     H288872   1.539   8.073   4.106
29544WAT      O88873   1.930   3.117   8.648
29544WAT     H188874   1.920   3.024   8.682
29544WAT     H288875   1.856   3.174   8.684
29545WAT      O88876   5.228   5.097   2.185
29545WAT     H188877   5.164   5.174   2.181
29545WAT     H288878   5.217   5.050   2.273
29546WAT      O88879   9.383   8.116   2.935
29546WAT     H188880   9.467   8.095   2.984
29546WAT     H288881   9.341   8.197   2.974
29547WAT      O88882   0.630   3.637   2.615
29547WAT     H188883   0.729   3.626   2.615
29547WAT     H288884   0.601   3.673   2.704
29548WAT      O88885   3.982   8.525   1.518
29548WAT     H188886   3.992   8.505   1.615
29548WAT     H288887   3.887   8.510   1.490
29549WAT      O88888   2.434   4.062   9.104
29549WAT     H188889   2.495   4.077   9.182
29549WAT     H288890   2.447   4.136   9.037
29550WAT      O88891   5.533   6.015   2.888
29550WAT     H188892   5.530   6.115   2.879
29550WAT     H288893   5.444   5.977   2.862
29551WAT      O88894   0.733   5.424   3.216
29551WAT     H188895   0.641   5.463   3.213
29551WAT     H288896   0.781   5.458   3.297
29552WAT      O88897   5.675   0.550   4.537
29552WAT     H188898   5.707   0.465   4.496
29552WAT     H288899   5.727   0.569   4.620
29553WAT      O88900   9.174   7.156   3.068
29553WAT     H188901   9.174   7.080   3.002
29553WAT     H288902   9.219   7.127   3.152
29554WAT      O88903   6.136   4.769   2.047
29554WAT     H188904   6.132   4.689   1.988
29554WAT     H288905   6.110   4.850   1.996
29555WAT      O88906   2.427   4.376   9.416
29555WAT     H188907   2.348   4.393   9.476
29555WAT     H288908   2.492   4.451   9.426
29556WAT      O88909   3.927   8.970   8.673
29556WAT     H188910   3.931   8.885   8.621
29556WAT     H288911   3.974   9.042   8.621
29557WAT      O88912   6.309   4.857   9.602
29557WAT     H188913   6.226   4.914   9.609
29557WAT     H288914   6.324   4.832   9.506
29558WAT      O88915   5.588   0.506   7.773
29558WAT     H188916   5.544   0.587   7.734
29558WAT     H288917   5.544   0.483   7.859
29559WAT      O88918   4.482   5.646   5.758
29559WAT     H188919   4.571   5.660   5.714
29559WAT     H288920   4.415   5.617   5.689
29560WAT      O88921   5.971   8.703   2.040
29560WAT     H188922   5.896   8.721   2.103
29560WAT     H288923   6.052   8.676   2.091
29561WAT      O88924   5.778   9.283   5.892
29561WAT     H188925   5.758   9.378   5.867
29561WAT     H288926   5.700   9.244   5.941
29562WAT      O88927   0.051   1.857   1.591
29562WAT     H188928  -0.047   1.877   1.581
29562WAT     H288929   0.098   1.937   1.627
29563WAT      O88930   1.759   5.796   6.093
29563WAT     H188931   1.832   5.848   6.138
29563WAT     H288932   1.783   5.780   5.998
29564WAT      O88933   2.090   3.826   9.260
29564WAT     H188934   2.033   3.758   9.214
29564WAT     H288935   2.094   3.806   9.358
29565WAT      O88936   4.878   1.512   7.335
29565WAT     H188937   4.850   1.604   7.309
29565WAT     H288938   4.890   1.456   7.253
29566WAT      O88939   2.205   4.847   2.043
29566WAT     H188940   2.236   4.845   2.139
29566WAT     H288941   2.256   4.778   1.991
29567WAT      O88942   0.321   7.545   1.997
29567WAT     H188943   0.307   7.638   2.032
29567WAT     H288944   0.288   7.479   2.065
29568WAT      O88945   4.166   9.264   1.174
29568WAT     H188946   4.104   9.278   1.097
29568WAT     H288947   4.113   9.248   1.257
29569WAT      O88948   9.874   4.067   3.787
29569WAT     H188949   9.835   4.054   3.696
29569WAT     H288950   9.800   4.076   3.854
29570WAT      O88951   8.404   0.421   8.287
29570WAT     H188952   8.337   0.386   8.353
29570WAT     H288953   8.421   0.518   8.306
29571WAT      O88954   0.757   0.256   1.779
29571WAT     H188955   0.846   0.264   1.733
29571WAT     H288956   0.771   0.223   1.872
29572WAT      O88957   4.926   6.176   1.850
29572WAT     H188958   4.884   6.253   1.803
29572WAT     H288959   4.888   6.090   1.814
29573WAT      O88960   1.716   3.139   4.896
29573WAT     H188961   1.780   3.216   4.896
29573WAT     H288962   1.748   3.069   4.832
29574WAT      O88963   0.406   2.477   7.474
29574WAT     H188964   0.406   2.572   7.444
29574WAT     H288965   0.421   2.473   7.573
29575WAT      O88966   1.631   1.136   0.563
29575WAT     H188967   1.667   1.050   0.526
29575WAT     H288968   1.701   1.180   0.619
29576WAT      O88969   4.136   4.062   3.087
29576WAT     H188970   4.126   4.158   3.060
29576WAT     H288971   4.051   4.013   3.067
29577WAT      O88972   0.852   6.068   7.326
29577WAT     H188973   0.778   6.001   7.338
29577WAT     H288974   0.939   6.020   7.319
29578WAT      O88975   3.689   8.497   1.975
29578WAT     H188976   3.658   8.433   1.905
29578WAT     H288977   3.619   8.566   1.990
29579WAT      O88978   7.860   2.389   3.283
29579WAT     H188979   7.846   2.468   3.343
29579WAT     H288980   7.881   2.309   3.340
29580WAT      O88981   4.824   5.106   1.526
29580WAT     H188982   4.808   5.195   1.569
29580WAT     H288983   4.782   5.106   1.435
29581WAT      O88984   7.196   2.963   0.901
29581WAT     H188985   7.155   2.916   0.823
29581WAT     H288986   7.295   2.964   0.891
29582WAT      O88987   1.968   3.763   8.727
29582WAT     H188988   2.007   3.700   8.659
29582WAT     H288989   2.041   3.817   8.769
29583WAT      O88990   3.784   4.227   8.627
29583WAT     H188991   3.826   4.304   8.579
29583WAT     H288992   3.698   4.256   8.668
29584WAT      O88993   0.398   8.991   4.606
29584WAT     H188994   0.357   9.007   4.517
29584WAT     H288995   0.392   9.075   4.661
29585WAT      O88996   1.000   6.478   6.099
29585WAT     H188997   0.942   6.461   6.178
29585WAT     H288998   0.951   6.535   6.032
29586WAT      O88999   3.196   5.804   4.605
29586WAT     H189000   3.238   5.867   4.671
29586WAT     H289001   3.268   5.765   4.547
29587WAT      O89002   0.223   6.168   4.719
29587WAT     H189003   0.152   6.099   4.731
29587WAT     H289004   0.185   6.259   4.736
29588WAT      O89005   6.478   4.724   0.734
29588WAT     H189006   6.522   4.679   0.656
29588WAT     H289007   6.441   4.812   0.704
29589WAT      O89008   4.671   1.153   4.914
29589WAT     H189009   4.761   1.197   4.927
29589WAT     H289010   4.682   1.054   4.920
29590WAT      O89011   5.639   2.436   1.912
29590WAT     H189012   5.708   2.443   1.984
29590WAT     H289013   5.550   2.464   1.948
29591WAT      O89014   1.774   7.780   9.662
29591WAT     H189015   1.824   7.867   9.666
29591WAT     H289016   1.679   7.799   9.637
29592WAT      O89017   0.075   9.543   5.617
29592WAT     H189018   0.016   9.463   5.607
29592WAT     H289019   0.112   9.547   5.709
29593WAT      O89020   3.908   9.598   6.955
29593WAT     H189021   3.862   9.611   6.866
29593WAT     H289022   4.002   9.631   6.949
29594WAT      O89023   7.238   8.268   0.644
29594WAT     H189024   7.230   8.257   0.545
29594WAT     H289025   7.333   8.254   0.671
29595WAT      O89026   5.209   2.836   4.532
29595WAT     H189027   5.249   2.748   4.505
29595WAT     H289028   5.259   2.911   4.488
29596WAT      O89029   1.943   0.960   7.763
29596WAT     H189030   2.008   0.888   7.739
29596WAT     H289031   1.906   0.942   7.854
29597WAT      O89032   7.144   6.625   6.066
29597WAT     H189033   7.124   6.705   6.011
29597WAT     H289034   7.168   6.548   6.007
29598WAT      O89035   9.201   7.552   1.443
29598WAT     H189036   9.267   7.477   1.452
29598WAT     H289037   9.115   7.526   1.487
29599WAT      O89038   1.237   7.299   7.320
29599WAT     H189039   1.320   7.353   7.338
29599WAT     H289040   1.184   7.290   7.404
29600WAT      O89041   0.629   9.759   7.853
29600WAT     H189042   0.626   9.661   7.870
29600WAT     H289043   0.539   9.799   7.873
29601WAT      O89044   4.456   1.970   6.460
29601WAT     H189045   4.376   1.912   6.475
29601WAT     H289046   4.530   1.916   6.421
29602WAT      O89047   5.620   5.401   7.358
29602WAT     H189048   5.652   5.344   7.282
29602WAT     H289049   5.635   5.497   7.336
29603WAT      O89050   4.120   3.922   2.378
29603WAT     H189051   4.089   3.877   2.462
29603WAT     H289052   4.073   3.882   2.299
29604WAT      O89053   6.851   4.011   5.420
29604WAT     H189054   6.935   4.016   5.367
29604WAT     H289055   6.775   4.045   5.365
29605WAT      O89056   3.161   2.516   1.212
29605WAT     H189057   3.120   2.451   1.148
29605WAT     H289058   3.187   2.599   1.163
29606WAT      O89059   5.819   2.580   6.833
29606WAT     H189060   5.879   2.569   6.913
29606WAT     H289061   5.817   2.495   6.781
29607WAT      O89062   9.388   3.971   6.199
29607WAT     H189063   9.362   4.039   6.130
29607WAT     H289064   9.307   3.940   6.248
29608WAT      O89065   2.976   2.631   2.219
29608WAT     H189066   3.056   2.640   2.279
29608WAT     H289067   3.004   2.645   2.124
29609WAT      O89068   2.075   0.302   3.728
29609WAT     H189069   2.000   0.255   3.774
29609WAT     H289070   2.073   0.399   3.750
29610WAT      O89071   0.056   0.111   3.566
29610WAT     H189072   0.131   0.168   3.534
29610WAT     H289073   0.012   0.155   3.644
29611WAT      O89074   0.513   4.767   0.538
29611WAT     H189075   0.481   4.730   0.451
29611WAT     H289076   0.438   4.762   0.605
29612WAT      O89077   0.145   3.519   5.243
29612WAT     H189078   0.078   3.461   5.197
29612WAT     H289079   0.157   3.603   5.190
29613WAT      O89080   6.997   7.810   8.252
29613WAT     H189081   6.944   7.883   8.206
29613WAT     H289082   6.939   7.765   8.319
29614WAT      O89083   5.086   9.732   5.745
29614WAT     H189084   5.080   9.829   5.771
29614WAT     H289085   5.111   9.678   5.825
29615WAT      O89086   4.535   5.882   1.106
29615WAT     H189087   4.437   5.869   1.093
29615WAT     H289088   4.569   5.951   1.043
29616WAT      O89089   9.463   0.420   3.755
29616WAT     H189090   9.537   0.464   3.704
29616WAT     H289091   9.487   0.324   3.771
29617WAT      O89092   5.107   5.373   7.377
29617WAT     H189093   5.074   5.464   7.355
29617WAT     H289094   5.199   5.361   7.341
29618WAT      O89095   0.162   7.177   3.739
29618WAT     H189096   0.078   7.151   3.691
29618WAT     H289097   0.170   7.125   3.823
29619WAT      O89098   1.673   7.619   7.488
29619WAT     H189099   1.668   7.599   7.390
29619WAT     H289100   1.701   7.537   7.538
29620WAT      O89101   8.663   7.318   0.475
29620WAT     H189102   8.749   7.316   0.425
29620WAT     H289103   8.614   7.403   0.453
29621WAT      O89104   7.967   2.339   5.753
29621WAT     H189105   7.995   2.243   5.754
29621WAT     H289106   7.870   2.345   5.727
29622WAT      O89107   3.681   8.499   6.879
29622WAT     H189108   3.762   8.440   6.883
29622WAT     H289109   3.612   8.455   6.822
29623WAT      O89110   2.657   3.222   5.731
29623WAT     H189111   2.690   3.141   5.684
29623WAT     H289112   2.734   3.282   5.752
29624WAT      O89113   7.427   2.676   6.193
29624WAT     H189114   7.393   2.759   6.238
29624WAT     H289115   7.524   2.685   6.174
29625WAT      O89116   9.196   5.005   0.347
29625WAT     H189117   9.199   5.070   0.422
29625WAT     H289118   9.187   4.912   0.384
29626WAT      O89119   1.024   1.834   0.874
29626WAT     H189120   0.959   1.887   0.819
29626WAT     H289121   1.099   1.894   0.903
29627WAT      O89122   6.397   1.139   4.571
29627WAT     H189123   6.313   1.119   4.521
29627WAT     H289124   6.445   1.054   4.592
29628WAT      O89125   6.698   2.736   3.590
29628WAT     H189126   6.629   2.782   3.646
29628WAT     H289127   6.790   2.758   3.624
29629WAT      O89128   5.616   6.969   3.154
29629WAT     H189129   5.555   7.042   3.182
29629WAT     H289130   5.587   6.933   3.066
29630WAT      O89131   7.380   3.516   0.983
29630WAT     H189132   7.351   3.445   1.047
29630WAT     H289133   7.306   3.537   0.920
29631WAT      O89134   0.923   8.856   2.937
29631WAT     H189135   1.017   8.870   2.968
29631WAT     H289136   0.872   8.805   3.006
29632WAT      O89137   8.098   2.415   2.133
29632WAT     H189138   8.179   2.460   2.171
29632WAT     H289139   8.111   2.316   2.133
29633WAT      O89140   4.777   6.309   0.631
29633WAT     H189141   4.684   6.329   0.661
29633WAT     H289142   4.840   6.316   0.709
29634WAT      O89143   8.427   9.490   6.974
29634WAT     H189144   8.464   9.443   7.054
29634WAT     H289145   8.495   9.554   6.939
29635WAT      O89146   1.995   3.229   2.402
29635WAT     H189147   1.919   3.169   2.377
29635WAT     H289148   2.003   3.233   2.502
29636WAT      O89149   8.272   3.084   1.600
29636WAT     H189150   8.293   3.148   1.526
29636WAT     H289151   8.324   3.109   1.682
29637WAT      O89152   8.836   4.325   1.713
29637WAT     H189153   8.860   4.419   1.739
29637WAT     H289154   8.818   4.321   1.615
29638WAT      O89155   3.980   5.862   7.956
29638WAT     H189156   4.029   5.788   7.909
29638WAT     H289157   3.940   5.828   8.041
29639WAT      O89158   9.529   8.713   7.725
29639WAT     H189159   9.438   8.720   7.767
29639WAT     H289160   9.546   8.617   7.701
29640WAT      O89161   6.257   5.038   1.442
29640WAT     H189162   6.178   4.983   1.467
29640WAT     H289163   6.260   5.050   1.343
29641WAT      O89164   6.477   5.229   6.920
29641WAT     H189165   6.517   5.217   6.830
29641WAT     H289166   6.443   5.323   6.930
29642WAT      O89167   1.667   6.104   0.458
29642WAT     H189168   1.658   6.169   0.533
29642WAT     H289169   1.688   6.153   0.373
29643WAT      O89170   7.173   6.480   2.676
29643WAT     H189171   7.188   6.430   2.591
29643WAT     H289172   7.216   6.570   2.670
29644WAT      O89173   8.753   3.364   5.497
29644WAT     H189174   8.674   3.351   5.436
29644WAT     H289175   8.740   3.310   5.580
29645WAT      O89176   5.331   9.748   2.786
29645WAT     H189177   5.250   9.799   2.813
29645WAT     H289178   5.315   9.703   2.698
29646WAT      O89179   2.056   4.487   5.661
29646WAT     H189180   2.013   4.495   5.751
29646WAT     H289181   2.090   4.394   5.649
29647WAT      O89182   7.102   4.999   9.170
29647WAT     H189183   7.118   5.074   9.235
29647WAT     H289184   7.037   4.934   9.210
29648WAT      O89185   5.254   2.990   4.110
29648WAT     H189186   5.213   3.081   4.105
29648WAT     H289187   5.187   2.925   4.147
29649WAT      O89188   4.788   9.687   2.524
29649WAT     H189189   4.691   9.695   2.499
29649WAT     H289190   4.844   9.684   2.441
29650WAT      O89191   6.634   4.163   3.543
29650WAT     H189192   6.701   4.224   3.500
29650WAT     H289193   6.584   4.213   3.614
29651WAT      O89194   4.053   8.927   5.559
29651WAT     H189195   4.042   8.828   5.562
29651WAT     H289196   4.125   8.955   5.623
29652WAT      O89197   2.592   9.833   3.798
29652WAT     H189198   2.634   9.750   3.836
29652WAT     H289199   2.528   9.807   3.726
29653WAT      O89200   9.226   0.848   0.587
29653WAT     H189201   9.220   0.850   0.487
29653WAT     H289202   9.319   0.823   0.614
29654WAT      O89203   4.222   8.688   6.570
29654WAT     H189204   4.291   8.706   6.500
29654WAT     H289205   4.214   8.768   6.631
29655WAT      O89206   2.621   3.727   4.606
29655WAT     H189207   2.536   3.735   4.554
29655WAT     H289208   2.677   3.808   4.589
29656WAT      O89209   8.206   5.952   7.784
29656WAT     H189210   8.261   5.868   7.791
29656WAT     H289211   8.128   5.945   7.845
29657WAT      O89212   5.140   1.535   6.340
29657WAT     H189213   5.041   1.545   6.347
29657WAT     H289214   5.164   1.499   6.250
29658WAT      O89215   0.135   3.560   1.437
29658WAT     H189216   0.201   3.552   1.512
29658WAT     H289217   0.099   3.470   1.415
29659WAT      O89218   8.344   4.106   6.147
29659WAT     H189219   8.269   4.048   6.176
29659WAT     H289220   8.369   4.084   6.053
29660WAT      O89221   1.157   6.481   2.093
29660WAT     H189222   1.184   6.559   2.037
29660WAT     H289223   1.210   6.401   2.067
29661WAT      O89224   7.434   9.018   1.047
29661WAT     H189225   7.454   8.970   1.133
29661WAT     H289226   7.509   9.004   0.983
29662WAT      O89227   6.255   9.445   6.920
29662WAT     H189228   6.205   9.507   6.980
29662WAT     H289229   6.233   9.350   6.945
29663WAT      O89230   7.822   8.687   6.839
29663WAT     H189231   7.850   8.664   6.746
29663WAT     H289232   7.877   8.635   6.904
29664WAT      O89233   5.808   5.609   6.915
29664WAT     H189234   5.865   5.537   6.955
29664WAT     H289235   5.718   5.607   6.958
29665WAT      O89236   3.876   8.247   0.911
29665WAT     H189237   3.943   8.248   0.985
29665WAT     H289238   3.818   8.328   0.917
29666WAT      O89239   0.769   8.242   6.593
29666WAT     H189240   0.774   8.331   6.637
29666WAT     H289241   0.767   8.254   6.493
29667WAT      O89242   4.569   7.440   4.107
29667WAT     H189243   4.605   7.394   4.026
29667WAT     H289244   4.592   7.537   4.104
29668WAT      O89245   3.029   7.380   7.007
29668WAT     H189246   3.040   7.309   6.939
29668WAT     H289247   2.961   7.352   7.075
29669WAT      O89248   2.554   6.336   0.206
29669WAT     H189249   2.509   6.423   0.186
29669WAT     H289250   2.548   6.318   0.304
29670WAT      O89251   4.344   5.867   8.984
29670WAT     H189252   4.433   5.867   9.030
29670WAT     H289253   4.318   5.774   8.961
29671WAT      O89254   7.213   2.750   5.745
29671WAT     H189255   7.135   2.780   5.690
29671WAT     H289256   7.234   2.655   5.723
29672WAT      O89257   1.948   8.004   3.555
29672WAT     H189258   1.908   7.914   3.573
29672WAT     H289259   1.951   8.056   3.640
29673WAT      O89260   2.790   8.183   2.745
29673WAT     H189261   2.775   8.102   2.801
29673WAT     H289262   2.706   8.206   2.695
29674WAT      O89263   8.633   2.766   8.715
29674WAT     H189264   8.692   2.827   8.767
29674WAT     H289265   8.596   2.696   8.775
29675WAT      O89266   1.708   3.888   4.525
29675WAT     H189267   1.646   3.930   4.459
29675WAT     H289268   1.800   3.884   4.487
29676WAT      O89269   2.776   8.112   3.877
29676WAT     H189270   2.762   8.180   3.950
29676WAT     H289271   2.873   8.093   3.868
29677WAT      O89272   8.800   0.425   5.237
29677WAT     H189273   8.854   0.509   5.241
29677WAT     H289274   8.715   0.437   5.288
29678WAT      O89275   3.904   1.083   2.315
29678WAT     H189276   3.831   1.119   2.373
29678WAT     H289277   3.990   1.128   2.338
29679WAT      O89278   0.544   2.384   1.568
29679WAT     H189279   0.511   2.476   1.589
29679WAT     H289280   0.637   2.390   1.531
29680WAT      O89281   7.169   7.028   3.164
29680WAT     H189282   7.260   7.030   3.207
29680WAT     H289283   7.158   7.110   3.109
29681WAT      O89284   0.425   4.978   1.436
29681WAT     H189285   0.335   4.952   1.472
29681WAT     H289286   0.478   4.896   1.415
29682WAT      O89287   8.266   5.244   3.265
29682WAT     H189288   8.230   5.220   3.355
29682WAT     H289289   8.234   5.177   3.197
29683WAT      O89290   5.768   7.977   4.668
29683WAT     H189291   5.821   7.980   4.752
29683WAT     H289292   5.829   7.984   4.589
29684WAT      O89293   4.076   8.303   6.548
29684WAT     H189294   3.977   8.299   6.535
29684WAT     H289295   4.097   8.334   6.641
29685WAT      O89296   5.548   6.362   4.479
29685WAT     H189297   5.639   6.339   4.514
29685WAT     H289298   5.501   6.421   4.545
29686WAT      O89299   0.100   2.623   3.054
29686WAT     H189300   0.129   2.548   3.114
29686WAT     H289301   0.179   2.657   3.002
29687WAT      O89302   7.031   2.196   7.548
29687WAT     H189303   6.981   2.280   7.528
29687WAT     H289304   6.967   2.124   7.575
29688WAT      O89305   4.134   0.197   4.645
29688WAT     H189306   4.171   0.110   4.678
29688WAT     H289307   4.150   0.269   4.713
29689WAT      O89308   6.684   8.318   6.780
29689WAT     H189309   6.594   8.358   6.761
29689WAT     H289310   6.751   8.357   6.717
29690WAT      O89311   5.267   1.781   6.846
29690WAT     H189312   5.299   1.780   6.751
29690WAT     H289313   5.288   1.870   6.887
29691WAT      O89314   0.145   5.362   2.177
29691WAT     H189315   0.240   5.341   2.201
29691WAT     H289316   0.130   5.460   2.183
29692WAT      O89317   0.014   8.550   7.801
29692WAT     H189318   0.048   8.478   7.741
29692WAT     H289319  -0.058   8.515   7.860
29693WAT      O89320   4.353   3.929   0.551
29693WAT     H189321   4.281   3.860   0.541
29693WAT     H289322   4.357   3.986   0.469
29694WAT      O89323   9.844   9.664   1.901
29694WAT     H189324   9.794   9.662   1.988
29694WAT     H289325   9.819   9.746   1.850
29695WAT      O89326   3.556   0.237   4.977
29695WAT     H189327   3.649   0.205   4.997
29695WAT     H289328   3.515   0.274   5.060
29696WAT      O89329   1.097   8.428   9.616
29696WAT     H189330   1.070   8.486   9.540
29696WAT     H289331   1.155   8.354   9.583
29697WAT      O89332   1.471   2.052   9.397
29697WAT     H189333   1.506   2.011   9.313
29697WAT     H289334   1.507   2.003   9.476
29698WAT      O89335   8.017   7.836   9.525
29698WAT     H189336   7.970   7.924   9.519
29698WAT     H289337   7.964   7.767   9.475
29699WAT      O89338   5.473   6.610   8.561
29699WAT     H189339   5.377   6.635   8.562
29699WAT     H289340   5.515   6.633   8.649
29700WAT      O89341   4.457   2.268   8.772
29700WAT     H189342   4.476   2.171   8.761
29700WAT     H289343   4.363   2.287   8.742
29701WAT      O89344   3.928   8.534   9.118
29701WAT     H189345   3.915   8.626   9.157
29701WAT     H289346   3.943   8.469   9.193
29702WAT      O89347   0.360   8.041   5.588
29702WAT     H189348   0.369   7.973   5.515
29702WAT     H289349   0.371   8.133   5.551
29703WAT      O89350   6.336   5.926   0.896
29703WAT     H189351   6.290   5.896   0.812
29703WAT     H289352   6.387   5.849   0.935
29704WAT      O89353   6.026   4.439   2.283
29704WAT     H189354   5.994   4.533   2.294
29704WAT     H289355   6.123   4.433   2.309
29705WAT      O89356   1.988   7.499   6.083
29705WAT     H189357   1.964   7.589   6.118
29705WAT     H289358   2.087   7.490   6.080
29706WAT      O89359   3.732   2.363   6.472
29706WAT     H189360   3.819   2.404   6.498
29706WAT     H289361   3.687   2.421   6.404
29707WAT      O89362   8.764   0.378   7.534
29707WAT     H189363   8.831   0.314   7.495
29707WAT     H289364   8.811   0.443   7.593
29708WAT      O89365   4.634   7.856   7.744
29708WAT     H189366   4.723   7.841   7.787
29708WAT     H289367   4.592   7.938   7.783
29709WAT      O89368   2.304   5.167   3.874
29709WAT     H189369   2.325   5.204   3.783
29709WAT     H289370   2.371   5.201   3.940
29710WAT      O89371   0.843   3.943   4.641
29710WAT     H189372   0.786   3.863   4.658
29710WAT     H289373   0.792   4.009   4.585
29711WAT      O89374   5.044   3.533   8.042
29711WAT     H189375   4.961   3.584   8.064
29711WAT     H289376   5.019   3.447   7.999
29712WAT      O89377   1.630   7.874   1.591
29712WAT     H189378   1.656   7.821   1.510
29712WAT     H289379   1.700   7.863   1.661
29713WAT      O89380   3.437   8.168   8.375
29713WAT     H189381   3.512   8.205   8.320
29713WAT     H289382   3.357   8.152   8.316
29714WAT      O89383   5.650   4.376   8.866
29714WAT     H189384   5.669   4.431   8.947
29714WAT     H289385   5.552   4.364   8.855
29715WAT      O89386   4.598   1.591   3.617
29715WAT     H189387   4.579   1.493   3.616
29715WAT     H289388   4.675   1.610   3.677
29716WAT      O89389   8.920   7.395   0.333
29716WAT     H189390   8.999   7.439   0.376
29716WAT     H289391   8.879   7.457   0.267
29717WAT      O89392   4.531   9.484   6.337
29717WAT     H189393   4.595   9.472   6.413
29717WAT     H289394   4.504   9.580   6.332
29718WAT      O89395   7.611   8.149   3.410
29718WAT     H189396   7.564   8.093   3.478
29718WAT     H289397   7.599   8.109   3.319
29719WAT      O89398   3.261   0.685   0.070
29719WAT     H189399   3.169   0.713   0.043
29719WAT     H289400   3.271   0.587   0.058
29720WAT      O89401   2.770   4.163   1.644
29720WAT     H189402   2.774   4.119   1.554
29720WAT     H289403   2.775   4.092   1.715
29721WAT      O89404   2.740   7.716   0.799
29721WAT     H189405   2.798   7.793   0.824
29721WAT     H289406   2.787   7.660   0.731
29722WAT      O89407   2.587   3.119   7.734
29722WAT     H189408   2.614   3.204   7.688
29722WAT     H289409   2.550   3.140   7.824
29723WAT      O89410   9.021   8.270   3.747
29723WAT     H189411   8.982   8.204   3.811
29723WAT     H289412   8.952   8.295   3.678
29724WAT      O89413   2.118   8.723   1.882
29724WAT     H189414   2.149   8.781   1.807
29724WAT     H289415   2.187   8.654   1.902
29725WAT      O89416   3.346   8.325   2.976
29725WAT     H189417   3.416   8.289   2.914
29725WAT     H289418   3.318   8.416   2.946
29726WAT      O89419   9.080   4.123   6.261
29726WAT     H189420   9.084   4.023   6.263
29726WAT     H289421   9.141   4.158   6.190
29727WAT      O89422   8.198   8.470   7.925
29727WAT     H189423   8.155   8.380   7.918
29727WAT     H289424   8.286   8.468   7.878
29728WAT      O89425   2.875   4.192   6.802
29728WAT     H189426   2.922   4.254   6.740
29728WAT     H289427   2.859   4.238   6.890
29729WAT      O89428   9.227   8.471   3.277
29729WAT     H189429   9.292   8.537   3.312
29729WAT     H289430   9.134   8.504   3.292
29730WAT      O89431   9.630   6.523   8.434
29730WAT     H189432   9.685   6.606   8.446
29730WAT     H289433   9.658   6.477   8.350
29731WAT      O89434   6.113   9.766   5.152
29731WAT     H189435   6.185   9.763   5.082
29731WAT     H289436   6.024   9.767   5.108
29732WAT      O89437   8.786   7.355   7.780
29732WAT     H189438   8.831   7.440   7.753
29732WAT     H289439   8.697   7.349   7.736
29733WAT      O89440   1.763   8.616   1.625
29733WAT     H189441   1.806   8.603   1.715
29733WAT     H289442   1.667   8.639   1.637
29734WAT      O89443   9.502   4.577   4.243
29734WAT     H189444   9.408   4.543   4.240
29734WAT     H289445   9.508   4.653   4.308
29735WAT      O89446   1.013   5.160   3.485
29735WAT     H189447   0.990   5.199   3.396
29735WAT     H289448   0.980   5.066   3.491
29736WAT      O89449   4.553   3.728   6.579
29736WAT     H189450   4.603   3.741   6.665
29736WAT     H289451   4.614   3.748   6.502
29737WAT      O89452   1.833   4.641   2.890
29737WAT     H189453   1.909   4.673   2.947
29737WAT     H289454   1.755   4.617   2.949
29738WAT      O89455   6.296   5.946   8.795
29738WAT     H189456   6.273   5.855   8.829
29738WAT     H289457   6.387   5.943   8.753
29739WAT      O89458   9.616   6.301   5.316
29739WAT     H189459   9.679   6.223   5.318
29739WAT     H289460   9.642   6.363   5.243
29740WAT      O89461   0.032   5.112   0.287
29740WAT     H189462   0.122   5.070   0.284
29740WAT     H289463  -0.030   5.062   0.226
29741WAT      O89464   4.846   2.682   6.800
29741WAT     H189465   4.808   2.739   6.727
29741WAT     H289466   4.942   2.707   6.815
29742WAT      O89467   1.459   7.341   0.232
29742WAT     H189468   1.492   7.419   0.178
29742WAT     H289469   1.389   7.292   0.179
29743WAT      O89470   9.803   3.129   4.248
29743WAT     H189471   9.803   3.029   4.256
29743WAT     H289472   9.828   3.155   4.155
29744WAT      O89473   0.686   5.644   8.824
29744WAT     H189474   0.640   5.650   8.735
29744WAT     H289475   0.631   5.591   8.887
29745WAT      O89476   6.012   6.336   0.982
29745WAT     H189477   6.093   6.278   0.994
29745WAT     H289478   6.035   6.430   1.007
29746WAT      O89479   7.636   3.082   6.617
29746WAT     H189480   7.640   3.004   6.555
29746WAT     H289481   7.592   3.159   6.569
29747WAT      O89482   3.322   5.313   0.116
29747WAT     H189483   3.291   5.221   0.091
29747WAT     H289484   3.294   5.334   0.210
29748WAT      O89485   4.887   3.933   6.684
29748WAT     H189486   4.949   3.993   6.733
29748WAT     H289487   4.904   3.941   6.585
29749WAT      O89488   5.028   5.947   9.272
29749WAT     H189489   5.121   5.911   9.266
29749WAT     H289490   4.975   5.893   9.338
29750WAT      O89491   5.716   5.530   6.649
29750WAT     H189492   5.797   5.496   6.601
29750WAT     H289493   5.743   5.570   6.737
29751WAT      O89494   3.339   5.558   0.416
29751WAT     H189495   3.270   5.487   0.401
29751WAT     H289496   3.430   5.516   0.411
29752WAT      O89497   6.709   1.990   4.477
29752WAT     H189498   6.630   2.027   4.527
29752WAT     H289499   6.697   1.891   4.466
29753WAT      O89500   6.032   5.250   4.603
29753WAT     H189501   6.109   5.304   4.570
29753WAT     H289502   6.022   5.263   4.702
29754WAT      O89503   1.686   5.897   3.752
29754WAT     H189504   1.683   5.857   3.660
29754WAT     H289505   1.730   5.987   3.747
29755WAT      O89506   2.283   0.254   4.604
29755WAT     H189507   2.231   0.300   4.675
29755WAT     H289508   2.252   0.285   4.514
29756WAT      O89509   4.990   6.763   4.468
29756WAT     H189510   5.053   6.724   4.536
29756WAT     H289511   4.915   6.699   4.451
29757WAT      O89512   1.914   7.998   9.437
29757WAT     H189513   1.985   7.968   9.500
29757WAT     H289514   1.889   8.093   9.458
29758WAT      O89515   4.229   3.340   3.482
29758WAT     H189516   4.291   3.262   3.493
29758WAT     H289517   4.272   3.422   3.520
29759WAT      O89518   3.246   6.467   5.420
29759WAT     H189519   3.334   6.513   5.435
29759WAT     H289520   3.247   6.377   5.462
29760WAT      O89521   2.041   0.895   7.472
29760WAT     H189522   2.067   0.833   7.546
29760WAT     H289523   2.109   0.968   7.465
29761WAT      O89524   8.345   8.460   9.373
29761WAT     H189525   8.248   8.469   9.350
29761WAT     H289526   8.396   8.536   9.334
29762WAT      O89527   7.206   8.525   9.090
29762WAT     H189528   7.253   8.445   9.126
29762WAT     H289529   7.107   8.514   9.101
29763WAT      O89530   8.284   9.092   3.379
29763WAT     H189531   8.241   9.137   3.457
29763WAT     H289532   8.265   9.144   3.295
29764WAT      O89533   8.702   1.658   4.432
29764WAT     H189534   8.647   1.735   4.402
29764WAT     H289535   8.793   1.663   4.391
29765WAT      O89536   1.890   3.894   1.690
29765WAT     H189537   1.821   3.960   1.719
29765WAT     H289538   1.846   3.809   1.661
29766WAT      O89539   5.684   8.502   0.526
29766WAT     H189540   5.749   8.464   0.592
29766WAT     H289541   5.606   8.541   0.575
29767WAT      O89542   4.743   8.009   0.326
29767WAT     H189543   4.661   8.000   0.269
29767WAT     H289544   4.824   8.020   0.267
29768WAT      O89545   6.572   4.424   5.216
29768WAT     H189546   6.660   4.377   5.209
29768WAT     H289547   6.574   4.507   5.161
29769WAT      O89548   8.317   6.498   5.380
29769WAT     H189549   8.302   6.427   5.449
29769WAT     H289550   8.300   6.460   5.289
29770WAT      O89551   6.299   6.320   9.520
29770WAT     H189552   6.312   6.333   9.421
29770WAT     H289553   6.303   6.223   9.542
29771WAT      O89554   3.359   2.993   1.921
29771WAT     H189555   3.305   3.071   1.953
29771WAT     H289556   3.302   2.934   1.864
29772WAT      O89557   2.697   6.214   5.226
29772WAT     H189558   2.665   6.188   5.318
29772WAT     H289559   2.721   6.132   5.175
29773WAT      O89560   7.675   1.967   3.703
29773WAT     H189561   7.647   2.058   3.675
29773WAT     H289562   7.732   1.926   3.632
29774WAT      O89563   5.410   9.051   1.582
29774WAT     H189564   5.365   9.033   1.495
29774WAT     H289565   5.404   8.970   1.640
29775WAT      O89566   3.619   6.417   0.761
29775WAT     H189567   3.682   6.459   0.696
29775WAT     H289568   3.526   6.420   0.724
29776WAT      O89569   1.608   5.794   0.311
29776WAT     H189570   1.528   5.853   0.309
29776WAT     H289571   1.689   5.848   0.334
29777WAT      O89572   2.799   6.088   9.430
29777WAT     H189573   2.817   6.101   9.332
29777WAT     H289574   2.837   6.001   9.460
29778WAT      O89575   1.151   8.550   7.037
29778WAT     H189576   1.178   8.616   7.108
29778WAT     H289577   1.215   8.473   7.038
29779WAT      O89578   3.852   4.305   9.313
29779WAT     H189579   3.920   4.244   9.354
29779WAT     H289580   3.893   4.352   9.236
29780WAT      O89581   8.510   3.070   6.637
29780WAT     H189582   8.584   3.130   6.668
29780WAT     H289583   8.537   2.975   6.648
29781WAT      O89584   4.014   4.892   2.954
29781WAT     H189585   4.088   4.950   2.987
29781WAT     H289586   4.031   4.868   2.858
29782WAT      O89587   4.936   7.239   6.049
29782WAT     H189588   4.986   7.289   5.978
29782WAT     H289589   4.844   7.218   6.016
29783WAT      O89590   2.543   2.395   6.706
29783WAT     H189591   2.568   2.342   6.787
29783WAT     H289592   2.454   2.363   6.671
29784WAT      O89593   8.700   2.284   4.539
29784WAT     H189594   8.622   2.304   4.599
29784WAT     H289595   8.752   2.368   4.523
29785WAT      O89596   2.268   5.156   1.101
29785WAT     H189597   2.185   5.132   1.051
29785WAT     H289598   2.270   5.254   1.119
29786WAT      O89599   0.385   3.754   5.523
29786WAT     H189600   0.373   3.853   5.519
29786WAT     H289601   0.458   3.732   5.588
29787WAT      O89602   5.435   2.076   8.605
29787WAT     H189603   5.534   2.068   8.589
29787WAT     H289604   5.412   2.173   8.619
29788WAT      O89605   5.299   5.868   0.497
29788WAT     H189606   5.330   5.919   0.416
29788WAT     H289607   5.257   5.930   0.562
29789WAT      O89608   7.099   7.147   5.410
29789WAT     H189609   7.157   7.066   5.404
29789WAT     H289610   7.128   7.204   5.486
29790WAT      O89611   4.613   0.855   8.160
29790WAT     H189612   4.635   0.846   8.063
29790WAT     H289613   4.544   0.926   8.173
29791WAT      O89614   9.355   3.881   9.860
29791WAT     H189615   9.289   3.844   9.795
29791WAT     H289616   9.436   3.913   9.811
29792WAT      O89617   2.976   9.256   8.352
29792WAT     H189618   3.070   9.267   8.384
29792WAT     H289619   2.968   9.295   8.260
29793WAT      O89620   4.230   3.590   0.140
29793WAT     H189621   4.327   3.605   0.159
29793WAT     H289622   4.193   3.524   0.206
29794WAT      O89623   5.642   9.329   4.071
29794WAT     H189624   5.732   9.290   4.092
29794WAT     H289625   5.599   9.362   4.154
29795WAT      O89626   8.349   4.118   2.712
29795WAT     H189627   8.318   4.094   2.804
29795WAT     H289628   8.327   4.044   2.649
29796WAT      O89629   9.399   2.692   5.436
29796WAT     H189630   9.406   2.770   5.497
29796WAT     H289631   9.311   2.694   5.389
29797WAT      O89632   8.515   8.148   8.966
29797WAT     H189633   8.430   8.129   8.918
29797WAT     H289634   8.590   8.152   8.899
29798WAT      O89635   0.390   4.591   8.394
29798WAT     H189636   0.478   4.634   8.377
29798WAT     H289637   0.319   4.635   8.338
29799WAT      O89638   3.522   3.192   3.560
29799WAT     H189639   3.586   3.251   3.511
29799WAT     H289640   3.466   3.141   3.494
29800WAT      O89641   9.511   7.647   7.332
29800WAT     H189642   9.443   7.709   7.293
29800WAT     H289643   9.482   7.619   7.423
29801WAT      O89644   6.132   7.235   0.264
29801WAT     H189645   6.188   7.291   0.325
29801WAT     H289646   6.096   7.292   0.190
29802WAT      O89647   5.476   6.224   6.049
29802WAT     H189648   5.555   6.283   6.036
29802WAT     H289649   5.413   6.266   6.114
29803WAT      O89650   6.432   0.832   5.476
29803WAT     H189651   6.365   0.779   5.529
29803WAT     H289652   6.384   0.901   5.422
29804WAT      O89653   3.096   4.073   8.850
29804WAT     H189654   3.080   4.075   8.751
29804WAT     H289655   3.096   3.978   8.882
29805WAT      O89656   0.278   2.434   7.097
29805WAT     H189657   0.187   2.404   7.128
29805WAT     H289658   0.334   2.354   7.077
29806WAT      O89659   6.967   7.845   9.731
29806WAT     H189660   6.906   7.924   9.735
29806WAT     H289661   6.935   7.775   9.794
29807WAT      O89662   3.033   5.216   4.418
29807WAT     H189663   3.024   5.308   4.457
29807WAT     H289664   3.089   5.221   4.335
29808WAT      O89665   9.311   5.054   9.144
29808WAT     H189666   9.236   5.005   9.099
29808WAT     H289667   9.289   5.152   9.148
29809WAT      O89668   3.443   6.140   6.891
29809WAT     H189669   3.522   6.195   6.865
29809WAT     H289670   3.447   6.121   6.989
29810WAT      O89671   7.724   6.002   0.067
29810WAT     H189672   7.662   5.926   0.044
29810WAT     H289673   7.709   6.077   0.004
29811WAT      O89674   0.529   1.312   2.290
29811WAT     H189675   0.496   1.404   2.313
29811WAT     H289676   0.581   1.276   2.367
29812WAT      O89677   9.512   0.339   6.647
29812WAT     H189678   9.449   0.340   6.725
29812WAT     H289679   9.484   0.409   6.582
29813WAT      O89680   3.537   1.248   7.724
29813WAT     H189681   3.585   1.201   7.650
29813WAT     H289682   3.443   1.269   7.694
29814WAT      O89683   3.162   4.077   2.124
29814WAT     H189684   3.103   4.157   2.114
29814WAT     H289685   3.251   4.096   2.082
29815WAT      O89686   7.927   5.833   5.576
29815WAT     H189687   7.882   5.822   5.665
29815WAT     H289688   7.951   5.929   5.563
29816WAT      O89689   8.264   8.766   1.890
29816WAT     H189690   8.198   8.714   1.943
29816WAT     H289691   8.356   8.728   1.904
29817WAT      O89692   0.241   9.519   7.273
29817WAT     H189693   0.267   9.611   7.301
29817WAT     H289694   0.319   9.457   7.284
29818WAT      O89695   9.879   4.792   1.317
29818WAT     H189696   9.815   4.856   1.275
29818WAT     H289697   9.830   4.708   1.342
29819WAT      O89698   2.919   2.074   6.556
29819WAT     H189699   2.832   2.087   6.509
29819WAT     H289700   2.954   1.982   6.537
29820WAT      O89701   6.534   5.921   8.672
29820WAT     H189702   6.513   5.936   8.576
29820WAT     H289703   6.612   5.859   8.680
29821WAT      O89704   1.866   2.564   9.390
29821WAT     H189705   1.782   2.572   9.444
29821WAT     H289706   1.890   2.467   9.381
29822WAT      O89707   8.772   0.862   1.477
29822WAT     H189708   8.720   0.840   1.395
29822WAT     H289709   8.757   0.790   1.546
29823WAT      O89710   7.741   3.939   6.882
29823WAT     H189711   7.840   3.930   6.873
29823WAT     H289712   7.718   4.029   6.918
29824WAT      O89713   5.412   1.100   8.187
29824WAT     H189714   5.405   1.078   8.284
29824WAT     H289715   5.507   1.118   8.163
29825WAT      O89716   4.475   5.536   1.938
29825WAT     H189717   4.574   5.549   1.950
29825WAT     H289718   4.429   5.546   2.027
29826WAT      O89719   8.579   3.303   2.930
29826WAT     H189720   8.493   3.350   2.947
29826WAT     H289721   8.638   3.360   2.874
29827WAT      O89722   0.315   9.767   4.342
29827WAT     H189723   0.339   9.795   4.435
29827WAT     H289724   0.375   9.813   4.277
29828WAT      O89725   8.641   8.751   1.437
29828WAT     H189726   8.652   8.847   1.462
29828WAT     H289727   8.552   8.738   1.392
29829WAT      O89728   0.720   3.795   7.317
29829WAT     H189729   0.795   3.777   7.254
29829WAT     H289730   0.632   3.778   7.271
29830WAT      O89731   8.386   0.959   7.160
29830WAT     H189732   8.366   0.923   7.069
29830WAT     H289733   8.481   0.989   7.163
29831WAT      O89734   5.792   9.183   3.393
29831WAT     H189735   5.748   9.103   3.435
29831WAT     H289736   5.860   9.220   3.456
29832WAT      O89737   3.722   2.944   2.131
29832WAT     H189738   3.714   3.019   2.066
29832WAT     H289739   3.638   2.890   2.130
29833WAT      O89740   7.025   6.583   4.245
29833WAT     H189741   6.962   6.655   4.215
29833WAT     H289742   6.982   6.494   4.233
29834WAT      O89743   7.855   8.585   1.749
29834WAT     H189744   7.830   8.640   1.669
29834WAT     H289745   7.954   8.590   1.762
29835WAT      O89746   7.067   6.922   0.178
29835WAT     H189747   7.025   6.867   0.250
29835WAT     H289748   7.134   6.984   0.218
29836WAT      O89749   9.173   3.910   6.841
29836WAT     H189750   9.189   3.842   6.769
29836WAT     H289751   9.178   4.002   6.802
29837WAT      O89752   5.911   0.128   1.736
29837WAT     H189753   5.863   0.046   1.766
29837WAT     H289754   5.918   0.193   1.812
29838WAT      O89755   4.189   5.504   6.056
29838WAT     H189756   4.160   5.462   6.142
29838WAT     H289757   4.154   5.450   5.979
29839WAT      O89758   7.384   9.004   4.913
29839WAT     H189759   7.361   9.089   4.865
29839WAT     H289760   7.439   9.026   4.993
29840WAT      O89761   5.787   2.181   2.390
29840WAT     H189762   5.791   2.277   2.364
29840WAT     H289763   5.832   2.168   2.478
29841WAT      O89764   4.515   3.474   5.692
29841WAT     H189765   4.460   3.404   5.647
29841WAT     H289766   4.455   3.538   5.740
29842WAT      O89767   1.675   4.585   2.651
29842WAT     H189768   1.585   4.626   2.639
29842WAT     H289769   1.702   4.590   2.747
29843WAT      O89770   6.849   7.011   0.679
29843WAT     H189771   6.895   7.094   0.711
29843WAT     H289772   6.822   6.955   0.757
29844WAT      O89773   3.521   5.764   4.533
29844WAT     H189774   3.521   5.860   4.561
29844WAT     H289775   3.461   5.753   4.453
29845WAT      O89776   5.636   0.223   1.068
29845WAT     H189777   5.586   0.153   1.118
29845WAT     H289778   5.636   0.200   0.970
29846WAT      O89779   5.098   8.876   5.501
29846WAT     H189780   5.005   8.870   5.464
29846WAT     H289781   5.142   8.959   5.468
29847WAT      O89782   7.093   9.705   5.983
29847WAT     H189783   7.066   9.710   5.887
29847WAT     H289784   7.076   9.794   6.027
29848WAT      O89785   9.270   3.668   9.231
29848WAT     H189786   9.368   3.683   9.215
29848WAT     H289787   9.254   3.572   9.253
29849WAT      O89788   8.636   3.698   9.616
29849WAT     H189789   8.633   3.792   9.582
29849WAT     H289790   8.587   3.638   9.551
29850WAT      O89791   6.564   2.027   2.664
29850WAT     H189792   6.537   2.041   2.568
29850WAT     H289793   6.617   1.943   2.672
29851WAT      O89794   1.896   4.031   5.352
29851WAT     H189795   1.964   4.092   5.311
29851WAT     H289796   1.837   4.083   5.413
29852WAT      O89797   0.584   8.495   1.233
29852WAT     H189798   0.670   8.472   1.279
29852WAT     H289799   0.508   8.454   1.283
29853WAT      O89800   6.145   1.806   9.296
29853WAT     H189801   6.148   1.904   9.277
29853WAT     H289802   6.160   1.755   9.211
29854WAT      O89803   9.656   4.337   6.380
29854WAT     H189804   9.702   4.386   6.306
29854WAT     H289805   9.639   4.243   6.352
29855WAT      O89806   9.145   2.965   2.524
29855WAT     H189807   9.100   2.916   2.449
29855WAT     H289808   9.122   2.920   2.610
29856WAT      O89809   5.664   3.892   7.308
29856WAT     H189810   5.573   3.881   7.267
29856WAT     H289811   5.702   3.981   7.280
29857WAT      O89812   5.449   3.170   8.882
29857WAT     H189813   5.495   3.250   8.843
29857WAT     H289814   5.414   3.112   8.808
29858WAT      O89815   4.033   4.329   7.683
29858WAT     H189816   3.944   4.285   7.671
29858WAT     H289817   4.059   4.328   7.779
29859WAT      O89818   2.169   6.866   9.135
29859WAT     H189819   2.123   6.816   9.207
29859WAT     H289820   2.266   6.840   9.132
29860WAT      O89821   5.536   4.733   4.948
29860WAT     H189822   5.501   4.824   4.972
29860WAT     H289823   5.539   4.725   4.848
29861WAT      O89824   8.264   6.556   0.553
29861WAT     H189825   8.245   6.649   0.521
29861WAT     H289826   8.360   6.549   0.581
29862WAT      O89827   0.634   1.604   0.866
29862WAT     H189828   0.594   1.608   0.957
29862WAT     H289829   0.617   1.690   0.818
29863WAT      O89830   4.839   6.624   0.075
29863WAT     H189831   4.910   6.557   0.053
29863WAT     H289832   4.840   6.642   0.173
29864WAT      O89833   3.335   1.690   8.162
29864WAT     H189834   3.316   1.593   8.178
29864WAT     H289835   3.365   1.703   8.067
29865WAT      O89836   5.131   2.079   5.522
29865WAT     H189837   5.114   1.990   5.479
29865WAT     H289838   5.044   2.128   5.533
29866WAT      O89839   4.517   0.811   0.594
29866WAT     H189840   4.429   0.842   0.630
29866WAT     H289841   4.513   0.809   0.494
29867WAT      O89842   4.205   6.747   6.080
29867WAT     H189843   4.170   6.790   6.163
29867WAT     H289844   4.252   6.816   6.024
29868WAT      O89845   6.808   3.105   9.354
29868WAT     H189846   6.805   3.019   9.406
29868WAT     H289847   6.845   3.178   9.411
29869WAT      O89848   0.124   2.825   0.353
29869WAT     H189849   0.067   2.880   0.292
29869WAT     H289850   0.196   2.882   0.392
29870WAT      O89851   9.725   3.308   2.986
29870WAT     H189852   9.762   3.319   3.078
29870WAT     H289853   9.750   3.387   2.930
29871WAT      O89854   0.392   2.140   6.337
29871WAT     H189855   0.394   2.200   6.257
29871WAT     H289856   0.485   2.112   6.360
29872WAT      O89857   9.125   7.418   5.580
29872WAT     H189858   9.190   7.378   5.645
29872WAT     H289859   9.118   7.516   5.596
29873WAT      O89860   5.629   1.180   6.170
29873WAT     H189861   5.564   1.186   6.246
29873WAT     H289862   5.591   1.226   6.090
29874WAT      O89863   5.556   7.971   3.173
29874WAT     H189864   5.534   8.039   3.243
29874WAT     H289865   5.540   8.010   3.082
29875WAT      O89866   9.132   0.205   7.463
29875WAT     H189867   9.133   0.150   7.547
29875WAT     H289868   9.221   0.198   7.417
29876WAT      O89869   5.328   9.644   4.783
29876WAT     H189870   5.410   9.586   4.782
29876WAT     H289871   5.333   9.710   4.709
29877WAT      O89872   4.648   0.022   6.530
29877WAT     H189873   4.669  -0.064   6.577
29877WAT     H289874   4.602   0.084   6.592
29878WAT      O89875   9.516   0.167   3.788
29878WAT     H189876   9.572   0.094   3.828
29878WAT     H289877   9.451   0.127   3.723
29879WAT      O89878   5.608   6.310   8.716
29879WAT     H189879   5.545   6.321   8.793
29879WAT     H289880   5.701   6.298   8.752
29880WAT      O89881   8.765   3.788   6.321
29880WAT     H189882   8.725   3.821   6.407
29880WAT     H289883   8.708   3.818   6.245
29881WAT      O89884   8.839   5.169   6.491
29881WAT     H189885   8.791   5.152   6.405
29881WAT     H289886   8.838   5.086   6.547
29882WAT      O89887   4.546   2.583   9.034
29882WAT     H189888   4.540   2.528   9.117
29882WAT     H289889   4.454   2.598   8.997
29883WAT      O89890   4.711   1.944   6.752
29883WAT     H189891   4.723   1.973   6.657
29883WAT     H289892   4.795   1.901   6.784
29884WAT      O89893   0.691   9.449   2.527
29884WAT     H189894   0.729   9.499   2.605
29884WAT     H289895   0.631   9.509   2.475
29885WAT      O89896   3.773   8.018   0.824
29885WAT     H189897   3.819   8.100   0.859
29885WAT     H289898   3.840   7.957   0.782
29886WAT      O89899   2.434   8.460   2.048
29886WAT     H189900   2.361   8.484   2.112
29886WAT     H289901   2.484   8.380   2.082
29887WAT      O89902   9.751   3.732   9.037
29887WAT     H189903   9.672   3.683   9.074
29887WAT     H289904   9.728   3.770   8.948
29888WAT      O89905   5.702   4.257   3.272
29888WAT     H189906   5.796   4.234   3.297
29888WAT     H289907   5.699   4.282   3.175
29889WAT      O89908   9.711   7.432   3.160
29889WAT     H189909   9.767   7.512   3.183
29889WAT     H289910   9.728   7.406   3.065
29890WAT      O89911   1.399   5.636   2.166
29890WAT     H189912   1.371   5.690   2.245
29890WAT     H289913   1.463   5.690   2.110
29891WAT      O89914   7.996   4.315   3.641
29891WAT     H189915   7.960   4.408   3.627
29891WAT     H289916   7.925   4.249   3.620
29892WAT      O89917   2.476   5.626   4.841
29892WAT     H189918   2.484   5.546   4.780
29892WAT     H289919   2.478   5.595   4.936
29893WAT      O89920   9.558   8.909   4.024
29893WAT     H189921   9.572   8.915   4.123
29893WAT     H289922   9.637   8.948   3.977
29894WAT      O89923   5.567   0.202   7.913
29894WAT     H189924   5.611   0.168   7.830
29894WAT     H289925   5.627   0.186   7.991
29895WAT      O89926   4.481   4.064   0.258
29895WAT     H189927   4.480   3.970   0.224
29895WAT     H289928   4.571   4.105   0.240
29896WAT      O89929   4.268   2.708   0.042
29896WAT     H189930   4.224   2.640   0.099
29896WAT     H289931   4.299   2.666  -0.043
29897WAT      O89932   7.547   6.568   1.879
29897WAT     H189933   7.518   6.663   1.869
29897WAT     H289934   7.540   6.541   1.975
29898WAT      O89935   8.493   6.021   4.203
29898WAT     H189936   8.476   5.964   4.284
29898WAT     H289937   8.426   6.095   4.200
29899WAT      O89938   0.824   9.138   7.514
29899WAT     H189939   0.919   9.112   7.532
29899WAT     H289940   0.816   9.238   7.519
29900WAT      O89941   3.302   2.959   6.229
29900WAT     H189942   3.342   3.045   6.262
29900WAT     H289943   3.288   2.898   6.307
29901WAT      O89944   1.475   9.478   9.149
29901WAT     H189945   1.419   9.473   9.231
29901WAT     H289946   1.556   9.420   9.159
29902WAT      O89947   5.214   5.338   2.912
29902WAT     H189948   5.228   5.317   2.815
29902WAT     H289949   5.212   5.437   2.925
29903WAT      O89950   6.342   9.468   5.313
29903WAT     H189951   6.397   9.403   5.261
29903WAT     H289952   6.256   9.424   5.340
29904WAT      O89953   3.761   1.135   0.542
29904WAT     H189954   3.725   1.221   0.506
29904WAT     H289955   3.743   1.131   0.641
29905WAT      O89956   0.956   7.645   8.422
29905WAT     H189957   0.912   7.570   8.470
29905WAT     H289958   0.893   7.723   8.418
29906WAT      O89959   2.635   1.652   3.235
29906WAT     H189960   2.624   1.704   3.151
29906WAT     H289961   2.617   1.711   3.314
29907WAT      O89962   7.550   6.027   3.565
29907WAT     H189963   7.472   5.978   3.604
29907WAT     H289964   7.520   6.077   3.484
29908WAT      O89965   0.958   1.732   6.890
29908WAT     H189966   0.896   1.775   6.955
29908WAT     H289967   0.906   1.693   6.815
29909WAT      O89968   5.000   1.729   1.541
29909WAT     H189969   5.024   1.648   1.487
29909WAT     H289970   5.083   1.768   1.582
29910WAT      O89971   4.172   3.196   1.352
29910WAT     H189972   4.098   3.249   1.312
29910WAT     H289973   4.251   3.255   1.369
29911WAT      O89974   8.538   3.406   8.315
29911WAT     H189975   8.573   3.500   8.321
29911WAT     H289976   8.445   3.409   8.277
29912WAT      O89977   6.210   8.617   5.778
29912WAT     H189978   6.160   8.536   5.808
29912WAT     H289979   6.156   8.699   5.797
29913WAT      O89980   8.004   8.319   7.234
29913WAT     H189981   8.034   8.304   7.140
29913WAT     H289982   7.963   8.410   7.242
29914WAT      O89983   8.895   8.539   6.932
29914WAT     H189984   8.902   8.485   7.015
29914WAT     H289985   8.871   8.633   6.955
29915WAT      O89986   8.585   5.388   2.515
29915WAT     H189987   8.608   5.483   2.533
29915WAT     H289988   8.669   5.336   2.498
29916WAT      O89989   6.776   1.356   8.191
29916WAT     H189990   6.842   1.419   8.150
29916WAT     H289991   6.684   1.392   8.177
29917WAT      O89992   6.215   8.067   3.604
29917WAT     H189993   6.226   8.104   3.511
29917WAT     H289994   6.267   8.123   3.668
29918WAT      O89995   9.069   4.869   7.337
29918WAT     H189996   9.020   4.803   7.396
29918WAT     H289997   9.084   4.828   7.248
29919WAT      O89998   0.742   6.287   7.423
29919WAT     H189999   0.781   6.205   7.382
29919WAT     H290000   0.654   6.307   7.379
29920WAT      O90001   5.967   8.437   1.945
29920WAT     H190002   5.949   8.523   1.993
29920WAT     H290003   5.967   8.361   2.011
29921WAT      O90004   7.690   0.650   5.253
29921WAT     H190005   7.755   0.659   5.328
29921WAT     H290006   7.738   0.627   5.169
29922WAT      O90007   2.964   9.553   6.426
29922WAT     H190008   2.937   9.463   6.391
29922WAT     H290009   2.898   9.622   6.395
29923WAT      O90010   6.014   1.421   7.593
29923WAT     H190011   5.931   1.476   7.603
29923WAT     H290012   6.012   1.344   7.657
29924WAT      O90013   5.187   4.713   8.682
29924WAT     H190014   5.236   4.657   8.615
29924WAT     H290015   5.206   4.679   8.774
29925WAT      O90016   9.128   6.634   0.638
29925WAT     H190017   9.195   6.633   0.712
29925WAT     H290018   9.175   6.622   0.551
29926WAT      O90019   9.566   2.089   8.915
29926WAT     H190020   9.558   2.171   8.972
29926WAT     H290021   9.480   2.074   8.866
29927WAT      O90022   8.000   8.528   6.975
29927WAT     H190023   8.086   8.578   6.983
29927WAT     H290024   8.018   8.438   6.935
29928WAT      O90025   8.083   0.936   8.794
29928WAT     H190026   8.076   1.008   8.862
29928WAT     H290027   8.003   0.939   8.734
29929WAT      O90028   0.181   6.840   6.785
29929WAT     H190029   0.228   6.882   6.862
29929WAT     H290030   0.245   6.830   6.708
29930WAT      O90031   3.976   8.196   6.153
29930WAT     H190032   3.992   8.141   6.071
29930WAT     H290033   4.063   8.233   6.185
29931WAT      O90034   4.949   6.462   5.847
29931WAT     H190035   5.029   6.475   5.788
29931WAT     H290036   4.872   6.430   5.793
29932WAT      O90037   2.816   9.405   4.851
29932WAT     H190038   2.761   9.479   4.888
29932WAT     H290039   2.860   9.435   4.766
29933WAT      O90040   0.747   4.767   3.489
29933WAT     H190041   0.821   4.828   3.514
29933WAT     H290042   0.663   4.795   3.536
29934WAT      O90043   5.608   1.165   6.603
29934WAT     H190044   5.706   1.155   6.591
29934WAT     H290045   5.560   1.107   6.536
29935WAT      O90046   4.391   1.482   3.998
29935WAT     H190047   4.392   1.506   4.095
29935WAT     H290048   4.343   1.395   3.985
29936WAT      O90049   7.817   5.264   3.460
29936WAT     H190050   7.775   5.326   3.394
29936WAT     H290051   7.912   5.289   3.475
29937WAT      O90052   4.360   4.415   9.337
29937WAT     H190053   4.318   4.503   9.356
29937WAT     H290054   4.293   4.355   9.293
29938WAT      O90055   0.442   9.200   6.000
29938WAT     H190056   0.412   9.146   6.079
29938WAT     H290057   0.450   9.140   5.920
29939WAT      O90058   1.844   2.521   0.624
29939WAT     H190059   1.919   2.467   0.664
29939WAT     H290060   1.881   2.579   0.552
29940WAT      O90061   1.203   8.968   6.938
29940WAT     H190062   1.245   9.058   6.942
29940WAT     H290063   1.103   8.978   6.931
29941WAT      O90064   0.944   4.283   2.163
29941WAT     H190065   0.953   4.347   2.239
29941WAT     H290066   1.035   4.254   2.134
29942WAT      O90067   1.189   2.206   1.617
29942WAT     H190068   1.208   2.107   1.620
29942WAT     H290069   1.150   2.235   1.704
29943WAT      O90070   7.517   5.434   7.955
29943WAT     H190071   7.528   5.401   7.862
29943WAT     H290072   7.583   5.389   8.015
29944WAT      O90073   3.388   0.730   5.779
29944WAT     H190074   3.312   0.735   5.843
29944WAT     H290075   3.460   0.673   5.817
29945WAT      O90076   3.593   8.024   4.610
29945WAT     H190077   3.595   8.084   4.530
29945WAT     H290078   3.503   8.027   4.652
29946WAT      O90079   3.394   3.491   3.551
29946WAT     H190080   3.464   3.551   3.514
29946WAT     H290081   3.391   3.500   3.651
29947WAT      O90082   8.504   1.816   7.196
29947WAT     H190083   8.550   1.825   7.284
29947WAT     H290084   8.471   1.722   7.185
29948WAT      O90085   2.824   3.714   2.896
29948WAT     H190086   2.794   3.766   2.976
29948WAT     H290087   2.900   3.761   2.852
29949WAT      O90088   2.843   8.012   0.169
29949WAT     H190089   2.784   7.998   0.248
29949WAT     H290090   2.871   7.924   0.132
29950WAT      O90091   9.105   4.673   7.117
29950WAT     H190092   9.016   4.635   7.095
29950WAT     H290093   9.169   4.598   7.135
29951WAT      O90094   0.202   5.043   3.123
29951WAT     H190095   0.297   5.067   3.104
29951WAT     H290096   0.196   4.996   3.211
29952WAT      O90097   9.093   9.308   5.343
29952WAT     H190098   8.996   9.287   5.346
29952WAT     H290099   9.138   9.273   5.426
29953WAT      O90100   7.746   7.452   0.718
29953WAT     H190101   7.827   7.501   0.750
29953WAT     H290102   7.766   7.410   0.629
29954WAT      O90103   0.456   0.885   7.735
29954WAT     H190104   0.536   0.912   7.681
29954WAT     H290105   0.408   0.810   7.689
29955WAT      O90106   6.292   6.816   6.888
29955WAT     H190107   6.338   6.818   6.976
29955WAT     H290108   6.195   6.796   6.901
29956WAT      O90109   8.665   6.896   7.821
29956WAT     H190110   8.695   6.952   7.899
29956WAT     H290111   8.610   6.952   7.760
29957WAT      O90112   1.418   3.979   4.005
29957WAT     H190113   1.411   4.077   3.991
29957WAT     H290114   1.370   3.952   4.088
29958WAT      O90115   7.877   8.085   7.309
29958WAT     H190116   7.954   8.079   7.373
29958WAT     H290117   7.882   8.172   7.260
29959WAT      O90118   8.580   4.713   5.056
29959WAT     H190119   8.547   4.664   5.137
29959WAT     H290120   8.612   4.804   5.082
29960WAT      O90121   2.679   4.151   7.117
29960WAT     H190122   2.693   4.060   7.078
29960WAT     H290123   2.583   4.177   7.109
29961WAT      O90124   0.797   6.444   6.283
29961WAT     H190125   0.722   6.398   6.236
29961WAT     H290126   0.800   6.414   6.379
29962WAT      O90127   1.043   8.033   8.433
29962WAT     H190128   1.045   8.001   8.338
29962WAT     H290129   1.029   7.956   8.494
29963WAT      O90130   2.342   7.230   9.229
29963WAT     H190131   2.283   7.234   9.149
29963WAT     H290132   2.296   7.180   9.303
29964WAT      O90133   4.135   3.516   7.975
29964WAT     H190134   4.112   3.503   7.878
29964WAT     H290135   4.190   3.599   7.984
29965WAT      O90136   1.074   6.000   8.052
29965WAT     H190137   1.054   5.902   8.042
29965WAT     H290138   1.035   6.050   7.974
29966WAT      O90139   1.726   7.603   6.423
29966WAT     H190140   1.719   7.698   6.394
29966WAT     H290141   1.654   7.582   6.489
29967WAT      O90142   0.976   2.046   5.090
29967WAT     H190143   0.915   1.994   5.149
29967WAT     H290144   1.024   1.982   5.029
29968WAT      O90145   6.041   8.796   1.650
29968WAT     H190146   6.022   8.699   1.637
29968WAT     H290147   6.018   8.823   1.743
29969WAT      O90148   1.517   9.612   8.458
29969WAT     H190149   1.550   9.658   8.376
29969WAT     H290150   1.430   9.652   8.486
29970WAT      O90151   5.828   3.570   6.225
29970WAT     H190152   5.911   3.515   6.222
29970WAT     H290153   5.767   3.536   6.296
29971WAT      O90154   5.041   3.855   0.856
29971WAT     H190155   5.023   3.831   0.951
29971WAT     H290156   4.978   3.804   0.797
29972WAT      O90157   3.287   0.361   3.923
29972WAT     H190158   3.214   0.296   3.902
29972WAT     H290159   3.356   0.317   3.980
29973WAT      O90160   0.437   8.005   3.146
29973WAT     H190161   0.491   7.970   3.223
29973WAT     H290162   0.350   8.040   3.180
29974WAT      O90163   7.347   2.001   0.579
29974WAT     H190164   7.422   1.976   0.641
29974WAT     H290165   7.262   1.959   0.611
29975WAT      O90166   9.776   7.624   9.473
29975WAT     H190167   9.748   7.667   9.559
29975WAT     H290168   9.790   7.526   9.488
29976WAT      O90169   7.572   0.011   6.937
29976WAT     H190170   7.629  -0.005   6.857
29976WAT     H290171   7.628   0.040   7.014
29977WAT      O90172   7.922   1.886   1.176
29977WAT     H190173   7.850   1.902   1.244
29977WAT     H290174   7.881   1.872   1.086
29978WAT      O90175   9.482   3.466   4.620
29978WAT     H190176   9.483   3.496   4.525
29978WAT     H290177   9.526   3.535   4.677
29979WAT      O90178   6.303   4.888   8.836
29979WAT     H190179   6.322   4.830   8.915
29979WAT     H290180   6.222   4.854   8.788
29980WAT      O90181   9.739   1.600   4.980
29980WAT     H190182   9.789   1.525   5.022
29980WAT     H290183   9.752   1.597   4.880
29981WAT      O90184   4.298   8.207   7.279
29981WAT     H190185   4.380   8.172   7.232
29981WAT     H290186   4.286   8.303   7.258
29982WAT      O90187   8.084   0.753   4.941
29982WAT     H190188   8.035   0.697   4.874
29982WAT     H290189   8.181   0.729   4.939
29983WAT      O90190   7.757   1.623   4.528
29983WAT     H190191   7.851   1.636   4.561
29983WAT     H290192   7.714   1.549   4.579
29984WAT      O90193   1.510   4.503   8.139
29984WAT     H190194   1.545   4.475   8.228
29984WAT     H290195   1.564   4.461   8.066
29985WAT      O90196   7.933   0.444   6.547
29985WAT     H190197   7.897   0.364   6.500
29985WAT     H290198   7.969   0.509   6.479
29986WAT      O90199   6.972   1.631   4.103
29986WAT     H190200   6.884   1.678   4.115
29986WAT     H290201   6.990   1.618   4.006
29987WAT      O90202   3.057   6.983   8.189
29987WAT     H190203   3.076   6.892   8.153
29987WAT     H290204   2.988   7.027   8.131
29988WAT      O90205   5.356   1.711   6.354
29988WAT     H190206   5.275   1.652   6.354
29988WAT     H290207   5.404   1.701   6.267
29989WAT      O90208   4.623   8.571   0.993
29989WAT     H190209   4.571   8.562   1.078
29989WAT     H290210   4.560   8.588   0.917
29990WAT      O90211   9.118   2.278   1.552
29990WAT     H190212   9.135   2.314   1.644
29990WAT     H290213   9.204   2.247   1.511
29991WAT      O90214   1.691   8.046   5.886
29991WAT     H190215   1.666   8.078   5.978
29991WAT     H290216   1.701   7.947   5.886
29992WAT      O90217   7.154   0.809   7.606
29992WAT     H190218   7.127   0.776   7.696
29992WAT     H290219   7.192   0.734   7.553
29993WAT      O90220   3.453   9.720   1.001
29993WAT     H190221   3.484   9.797   0.946
29993WAT     H290222   3.393   9.752   1.074
29994WAT      O90223   4.823   0.767   7.315
29994WAT     H190224   4.793   0.711   7.238
29994WAT     H290225   4.899   0.722   7.362
29995WAT      O90226   4.461   3.757   2.727
29995WAT     H190227   4.372   3.761   2.774
29995WAT     H290228   4.468   3.836   2.665
29996WAT      O90229   3.843   1.683   0.322
29996WAT     H190230   3.767   1.655   0.382
29996WAT     H290231   3.838   1.782   0.307
29997WAT      O90232   1.833   3.282   3.674
29997WAT     H190233   1.844   3.343   3.753
29997WAT     H290234   1.889   3.316   3.599
29998WAT      O90235   3.421   2.490   6.630
29998WAT     H190236   3.468   2.405   6.654
29998WAT     H290237   3.349   2.471   6.563
29999WAT      O90238   3.205   2.342   9.714
29999WAT     H190239   3.216   2.321   9.617
29999WAT     H290240   3.285   2.310   9.764
30000WAT      O90241   7.273   8.868   1.735
30000WAT     H190242   7.355   8.919   1.759
30000WAT     H290243   7.287   8.771   1.755
30001WAT      O90244   7.733   8.436   5.037
30001WAT     H190245   7.681   8.352   5.048
30001WAT     H290246   7.830   8.415   5.026
30002WAT      O90247   1.864   5.821   5.829
30002WAT     H190248   1.785   5.869   5.791
30002WAT     H290249   1.894   5.749   5.766
30003WAT      O90250   3.890   0.100   3.456
30003WAT     H190251   3.964   0.159   3.488
30003WAT     H290252   3.808   0.117   3.511
30004WAT      O90253   9.713   1.158   7.491
30004WAT     H190254   9.799   1.207   7.474
30004WAT     H290255   9.710   1.129   7.587
30005WAT      O90256   4.663   8.286   7.202
30005WAT     H190257   4.626   8.340   7.279
30005WAT     H290258   4.750   8.245   7.230
30006WAT      O90259   0.363   2.521   1.292
30006WAT     H190260   0.416   2.447   1.333
30006WAT     H290261   0.412   2.557   1.212
30007WAT      O90262   2.634   9.762   7.896
30007WAT     H190263   2.697   9.703   7.845
30007WAT     H290264   2.686   9.836   7.940
30008WAT      O90265   5.949   2.827   0.497
30008WAT     H190266   5.950   2.832   0.398
30008WAT     H290267   6.039   2.801   0.531
30009WAT      O90268   2.118   0.103   7.033
30009WAT     H190269   2.196   0.041   7.038
30009WAT     H290270   2.113   0.156   7.118
30010WAT      O90271   1.586   4.743   0.544
30010WAT     H190272   1.659   4.715   0.605
30010WAT     H290273   1.567   4.841   0.555
30011WAT      O90274   1.201   8.595   3.655
30011WAT     H190275   1.218   8.497   3.667
30011WAT     H290276   1.150   8.630   3.734
30012WAT      O90277   7.574   7.330   1.124
30012WAT     H190278   7.603   7.425   1.126
30012WAT     H290279   7.630   7.279   1.058
30013WAT      O90280   1.766   7.056   2.086
30013WAT     H190281   1.676   7.021   2.063
30013WAT     H290282   1.759   7.152   2.114
30014WAT      O90283   4.976   1.006   0.680
30014WAT     H190284   4.934   1.071   0.616
30014WAT     H290285   4.906   0.946   0.718
30015WAT      O90286   2.693   5.557   9.715
30015WAT     H190287   2.706   5.508   9.629
30015WAT     H290288   2.778   5.556   9.767
30016WAT      O90289   7.454   1.964   2.883
30016WAT     H190290   7.516   2.034   2.848
30016WAT     H290291   7.392   1.936   2.810
30017WAT      O90292   1.160   5.503   6.831
30017WAT     H190293   1.216   5.442   6.774
30017WAT     H290294   1.217   5.578   6.865
30018WAT      O90295   5.555   0.402   5.384
30018WAT     H190296   5.590   0.443   5.299
30018WAT     H290297   5.500   0.321   5.362
30019WAT      O90298   3.949   5.710   9.237
30019WAT     H190299   4.000   5.791   9.210
30019WAT     H290300   3.934   5.711   9.335
30020WAT      O90301   3.419   2.239   9.835
30020WAT     H190302   3.478   2.317   9.854
30020WAT     H290303   3.469   2.170   9.782
30021WAT      O90304   2.219   9.773   5.433
30021WAT     H190305   2.304   9.823   5.415
30021WAT     H290306   2.203   9.708   5.358
30022WAT      O90307   1.130   1.533   9.056
30022WAT     H190308   1.173   1.608   9.106
30022WAT     H290309   1.056   1.569   8.999
30023WAT      O90310   7.722   5.850   7.246
30023WAT     H190311   7.804   5.840   7.303
30023WAT     H290312   7.676   5.762   7.239
30024WAT      O90313   1.358   6.892   3.347
30024WAT     H190314   1.455   6.877   3.367
30024WAT     H290315   1.341   6.989   3.333
30025WAT      O90316   0.670   4.339   7.806
30025WAT     H190317   0.644   4.375   7.717
30025WAT     H290318   0.589   4.335   7.865
30026WAT      O90319   2.300   3.269   1.530
30026WAT     H190320   2.374   3.208   1.502
30026WAT     H290321   2.238   3.220   1.591
30027WAT      O90322   5.566   8.812   3.256
30027WAT     H190323   5.531   8.774   3.171
30027WAT     H290324   5.517   8.896   3.279
30028WAT      O90325   3.310   7.702   9.428
30028WAT     H190326   3.327   7.785   9.375
30028WAT     H290327   3.352   7.624   9.383
30029WAT      O90328   6.023   7.935   7.761
30029WAT     H190329   6.085   8.013   7.767
30029WAT     H290330   5.938   7.955   7.810
30030WAT      O90331   9.270   5.898   3.228
30030WAT     H190332   9.301   5.901   3.133
30030WAT     H290333   9.194   5.833   3.236
30031WAT      O90334   2.088   8.871   4.126
30031WAT     H190335   2.176   8.843   4.087
30031WAT     H290336   2.085   8.970   4.134
30032WAT      O90337   7.554   7.754   9.663
30032WAT     H190338   7.473   7.797   9.624
30032WAT     H290339   7.541   7.739   9.760
30033WAT      O90340   2.218   5.887   7.164
30033WAT     H190341   2.196   5.966   7.107
30033WAT     H290342   2.141   5.822   7.162
30034WAT      O90343   8.265   8.809   6.478
30034WAT     H190344   8.271   8.908   6.485
30034WAT     H290345   8.355   8.772   6.454
30035WAT      O90346   9.441   5.040   7.800
30035WAT     H190347   9.491   4.998   7.876
30035WAT     H290348   9.387   5.117   7.834
30036WAT      O90349   1.811   2.386   4.795
30036WAT     H190350   1.737   2.324   4.771
30036WAT     H290351   1.789   2.478   4.763
30037WAT      O90352   8.707   7.193   7.185
30037WAT     H190353   8.739   7.214   7.277
30037WAT     H290354   8.704   7.276   7.130
30038WAT      O90355   9.823   3.896   9.246
30038WAT     H190356   9.879   3.846   9.312
30038WAT     H290357   9.793   3.835   9.173
30039WAT      O90358   6.980   7.716   7.729
30039WAT     H190359   7.033   7.777   7.671
30039WAT     H290360   6.965   7.760   7.818
30040WAT      O90361   5.086   3.228   8.013
30040WAT     H190362   4.993   3.191   8.016
30040WAT     H290363   5.127   3.219   8.103
30041WAT      O90364   7.227   0.969   6.370
30041WAT     H190365   7.207   1.056   6.415
30041WAT     H290366   7.323   0.966   6.343
30042WAT      O90367   5.046   3.452   9.141
30042WAT     H190368   5.043   3.506   9.225
30042WAT     H290369   5.141   3.441   9.112
30043WAT      O90370   7.451   5.406   2.459
30043WAT     H190371   7.418   5.340   2.392
30043WAT     H290372   7.533   5.452   2.423
30044WAT      O90373   6.816   5.681   3.626
30044WAT     H190374   6.720   5.684   3.653
30044WAT     H290375   6.861   5.603   3.670
30045WAT      O90376   0.613   1.526   9.277
30045WAT     H190377   0.703   1.565   9.298
30045WAT     H290378   0.590   1.456   9.345
30046WAT      O90379   0.326   6.290   3.774
30046WAT     H190380   0.297   6.299   3.870
30046WAT     H290381   0.248   6.259   3.719
30047WAT      O90382   9.495   9.140   0.855
30047WAT     H190383   9.545   9.055   0.842
30047WAT     H290384   9.503   9.197   0.773
30048WAT      O90385   9.834   8.391   1.198
30048WAT     H190386   9.887   8.328   1.255
30048WAT     H290387   9.861   8.379   1.102
30049WAT      O90388   2.124   8.040   5.328
30049WAT     H190389   2.162   8.101   5.258
30049WAT     H290390   2.195   7.978   5.361
30050WAT      O90391   5.827   0.957   2.504
30050WAT     H190392   5.778   1.010   2.435
30050WAT     H290393   5.888   1.018   2.555
30051WAT      O90394   2.159   6.634   4.168
30051WAT     H190395   2.140   6.650   4.264
30051WAT     H290396   2.085   6.672   4.112
30052WAT      O90397   7.093   2.164   7.276
30052WAT     H190398   7.123   2.073   7.251
30052WAT     H290399   7.084   2.170   7.376
30053WAT      O90400   8.260   9.489   3.957
30053WAT     H190401   8.305   9.502   4.045
30053WAT     H290402   8.184   9.425   3.967
30054WAT      O90403   3.809   9.498   0.175
30054WAT     H190404   3.733   9.497   0.111
30054WAT     H290405   3.866   9.579   0.158
30055WAT      O90406   6.390   9.194   8.746
30055WAT     H190407   6.365   9.273   8.804
30055WAT     H290408   6.318   9.179   8.679
30056WAT      O90409   2.705   6.230   9.663
30056WAT     H190410   2.767   6.200   9.590
30056WAT     H290411   2.658   6.151   9.701
30057WAT      O90412   5.957   9.208   9.417
30057WAT     H190413   6.003   9.197   9.328
30057WAT     H290414   6.024   9.198   9.490
30058WAT      O90415   6.388   8.862   6.424
30058WAT     H190416   6.374   8.839   6.328
30058WAT     H290417   6.485   8.872   6.443
30059WAT      O90418   5.155   0.237   9.524
30059WAT     H190419   5.066   0.281   9.532
30059WAT     H290420   5.223   0.305   9.495
30060WAT      O90421   6.662   8.814   6.995
30060WAT     H190422   6.758   8.839   7.010
30060WAT     H290423   6.643   8.728   7.044
30061WAT      O90424   6.485   2.727   3.428
30061WAT     H190425   6.576   2.720   3.470
30061WAT     H290426   6.450   2.819   3.439
30062WAT      O90427   8.511   1.323   8.932
30062WAT     H190428   8.486   1.281   9.019
30062WAT     H290429   8.427   1.343   8.880
30063WAT      O90430   3.605   7.339   6.270
30063WAT     H190431   3.527   7.323   6.209
30063WAT     H290432   3.677   7.387   6.220
30064WAT      O90433   7.263   5.672   7.427
30064WAT     H190434   7.292   5.735   7.355
30064WAT     H290435   7.293   5.579   7.404
30065WAT      O90436   8.286   9.026   8.333
30065WAT     H190437   8.330   9.079   8.259
30065WAT     H290438   8.246   9.089   8.399
30066WAT      O90439   6.684   0.306   0.103
30066WAT     H190440   6.776   0.337   0.123
30066WAT     H290441   6.681   0.206   0.106
30067WAT      O90442   9.091   0.210   8.998
30067WAT     H190443   9.154   0.241   8.927
30067WAT     H290444   9.032   0.138   8.960
30068WAT      O90445   0.136   7.019   6.391
30068WAT     H190446   0.071   7.045   6.463
30068WAT     H290447   0.087   6.973   6.317
30069WAT      O90448   0.494   1.416   5.988
30069WAT     H190449   0.534   1.324   5.981
30069WAT     H290450   0.566   1.484   5.986
30070WAT      O90451   8.271   7.664   6.043
30070WAT     H190452   8.340   7.603   6.005
30070WAT     H290453   8.211   7.613   6.105
30071WAT      O90454   0.580   9.571   0.308
30071WAT     H190455   0.505   9.506   0.303
30071WAT     H290456   0.660   9.534   0.260
30072WAT      O90457   0.497   0.911   0.459
30072WAT     H190458   0.399   0.908   0.478
30072WAT     H290459   0.540   0.980   0.517
30073WAT      O90460   2.593   5.874   0.396
30073WAT     H190461   2.629   5.880   0.303
30073WAT     H290462   2.494   5.890   0.395
30074WAT      O90463   6.565   1.114   6.123
30074WAT     H190464   6.489   1.170   6.091
30074WAT     H290465   6.645   1.172   6.139
30075WAT      O90466   2.232   3.434   7.115
30075WAT     H190467   2.236   3.345   7.069
30075WAT     H290468   2.195   3.422   7.207
30076WAT      O90469   6.877   5.578   9.177
30076WAT     H190470   6.902   5.668   9.142
30076WAT     H290471   6.824   5.529   9.107
30077WAT      O90472   7.203   3.867   0.033
30077WAT     H190473   7.236   3.921   0.111
30077WAT     H290474   7.227   3.914  -0.052
30078WAT      O90475   3.281   1.267   7.625
30078WAT     H190476   3.247   1.240   7.535
30078WAT     H290477   3.212   1.246   7.694
30079WAT      O90478   8.510   8.013   8.176
30079WAT     H190479   8.591   8.069   8.195
30079WAT     H290480   8.428   8.070   8.184
30080WAT      O90481   5.869   5.913   0.249
30080WAT     H190482   5.852   5.877   0.341
30080WAT     H290483   5.786   5.956   0.214
30081WAT      O90484   4.371   8.360   6.911
30081WAT     H190485   4.404   8.369   7.004
30081WAT     H290486   4.444   8.385   6.847
30082WAT      O90487   2.809   1.500   1.756
30082WAT     H190488   2.824   1.569   1.685
30082WAT     H290489   2.732   1.529   1.814
30083WAT      O90490   5.496   3.895   5.351
30083WAT     H190491   5.405   3.881   5.311
30083WAT     H290492   5.534   3.981   5.317
30084WAT      O90493   8.237   2.344   3.176
30084WAT     H190494   8.312   2.307   3.121
30084WAT     H290495   8.150   2.319   3.133
30085WAT      O90496   6.913   4.701   1.533
30085WAT     H190497   6.957   4.614   1.512
30085WAT     H290498   6.844   4.721   1.463
30086WAT      O90499   2.900   5.735   2.826
30086WAT     H190500   2.959   5.738   2.745
30086WAT     H290501   2.876   5.829   2.853
30087WAT      O90502   4.452   2.944   8.855
30087WAT     H190503   4.544   2.981   8.849
30087WAT     H290504   4.450   2.852   8.816
30088WAT      O90505   7.208   3.427   8.011
30088WAT     H190506   7.170   3.348   7.964
30088WAT     H290507   7.145   3.457   8.083
30089WAT      O90508   1.340   9.044   7.483
30089WAT     H190509   1.393   9.048   7.399
30089WAT     H290510   1.380   8.975   7.544
30090WAT      O90511   6.949   9.763   6.640
30090WAT     H190512   7.039   9.732   6.671
30090WAT     H290513   6.880   9.696   6.665
30091WAT      O90514   0.413   5.794   0.900
30091WAT     H190515   0.442   5.805   0.805
30091WAT     H290516   0.386   5.883   0.938
30092WAT      O90517   4.106   2.269   6.502
30092WAT     H190518   4.157   2.289   6.419
30092WAT     H290519   4.060   2.353   6.534
30093WAT      O90520   6.702   0.735   9.483
30093WAT     H190521   6.672   0.717   9.389
30093WAT     H290522   6.677   0.828   9.510
30094WAT      O90523   4.338   7.664   8.709
30094WAT     H190524   4.271   7.726   8.751
30094WAT     H290525   4.371   7.600   8.778
30095WAT      O90526   4.986   3.167   8.963
30095WAT     H190527   5.085   3.169   8.971
30095WAT     H290528   4.951   3.260   8.959
30096WAT      O90529   3.705   8.067   3.490
30096WAT     H190530   3.694   8.150   3.435
30096WAT     H290531   3.754   7.998   3.437
30097WAT      O90532   7.185   1.644   8.893
30097WAT     H190533   7.142   1.665   8.981
30097WAT     H290534   7.281   1.671   8.895
30098WAT      O90535   3.493   0.264   5.895
30098WAT     H190536   3.526   0.245   5.803
30098WAT     H290537   3.557   0.226   5.962
30099WAT      O90538   7.031   4.053   1.874
30099WAT     H190539   7.080   4.092   1.952
30099WAT     H290540   7.082   3.976   1.837
30100WAT      O90541   4.797   3.549   8.389
30100WAT     H190542   4.839   3.459   8.375
30100WAT     H290543   4.711   3.552   8.339
30101WAT      O90544   0.067   5.651   2.114
30101WAT     H190545   0.147   5.646   2.053
30101WAT     H290546  -0.016   5.662   2.059
30102WAT      O90547   3.777   7.140   2.802
30102WAT     H190548   3.795   7.046   2.829
30102WAT     H290549   3.678   7.154   2.793
30103WAT      O90550   6.214   7.926   4.213
30103WAT     H190551   6.209   8.025   4.225
30103WAT     H290552   6.184   7.880   4.296
30104WAT      O90553   4.562   6.113   0.378
30104WAT     H190554   4.613   6.027   0.380
30104WAT     H290555   4.522   6.131   0.468
30105WAT      O90556   9.197   6.066   8.827
30105WAT     H190557   9.202   6.096   8.732
30105WAT     H290558   9.289   6.053   8.863
30106WAT      O90559   9.675   8.666   4.838
30106WAT     H190560   9.576   8.661   4.849
30106WAT     H290561   9.699   8.640   4.744
30107WAT      O90562   2.565   1.796   6.661
30107WAT     H190563   2.535   1.884   6.699
30107WAT     H290564   2.536   1.789   6.566
30108WAT      O90565   2.692   2.662   5.017
30108WAT     H190566   2.619   2.661   4.949
30108WAT     H290567   2.653   2.676   5.108
30109WAT      O90568   3.893   3.019   8.870
30109WAT     H190569   3.962   2.954   8.904
30109WAT     H290570   3.822   2.970   8.821
30110WAT      O90571   8.739   0.710   5.769
30110WAT     H190572   8.660   0.752   5.725
30110WAT     H290573   8.709   0.645   5.839
30111WAT      O90574   8.381   9.129   0.184
30111WAT     H190575   8.360   9.156   0.278
30111WAT     H290576   8.467   9.078   0.181
30112WAT      O90577   4.717   6.663   7.187
30112WAT     H190578   4.633   6.622   7.150
30112WAT     H290579   4.786   6.593   7.200
30113WAT      O90580   8.507   7.385   4.511
30113WAT     H190581   8.571   7.310   4.528
30113WAT     H290582   8.415   7.357   4.537
30114WAT      O90583   8.989   9.469   0.732
30114WAT     H190584   8.901   9.492   0.774
30114WAT     H290585   9.062   9.515   0.781
30115WAT      O90586   7.185   1.949   4.054
30115WAT     H190587   7.102   1.939   3.999
30115WAT     H290588   7.165   2.003   4.136
30116WAT      O90589   1.570   4.293   7.420
30116WAT     H190590   1.511   4.279   7.499
30116WAT     H290591   1.597   4.205   7.382
30117WAT      O90592   5.133   2.728   4.067
30117WAT     H190593   5.151   2.637   4.102
30117WAT     H290594   5.088   2.783   4.138
30118WAT      O90595   6.468   8.694   0.859
30118WAT     H190596   6.411   8.636   0.800
30118WAT     H290597   6.411   8.741   0.925
30119WAT      O90598   7.883   5.351   0.132
30119WAT     H190599   7.785   5.350   0.116
30119WAT     H290600   7.913   5.261   0.163
30120WAT      O90601   1.661   9.361   8.892
30120WAT     H190602   1.673   9.323   8.984
30120WAT     H290603   1.668   9.461   8.896
30121WAT      O90604   3.935   7.117   1.096
30121WAT     H190605   3.939   7.017   1.087
30121WAT     H290606   4.015   7.158   1.053
30122WAT      O90607   5.667   2.235   0.519
30122WAT     H190608   5.654   2.332   0.498
30122WAT     H290609   5.593   2.203   0.578
30123WAT      O90610   4.899   2.396   1.805
30123WAT     H190611   4.952   2.460   1.749
30123WAT     H290612   4.858   2.326   1.746
30124WAT      O90613   8.476   3.490   6.713
30124WAT     H190614   8.443   3.584   6.709
30124WAT     H290615   8.476   3.451   6.621
30125WAT      O90616   2.666   4.273   4.327
30125WAT     H190617   2.690   4.327   4.408
30125WAT     H290618   2.744   4.216   4.301
30126WAT      O90619   8.105   5.236   5.768
30126WAT     H190620   8.077   5.157   5.822
30126WAT     H290621   8.189   5.216   5.719
30127WAT      O90622   3.647   7.024   0.212
30127WAT     H190623   3.602   7.078   0.141
30127WAT     H290624   3.724   7.077   0.250
30128WAT      O90625   7.401   9.072   6.132
30128WAT     H190626   7.340   9.090   6.054
30128WAT     H290627   7.452   9.155   6.154
30129WAT      O90628   2.989   4.021   9.411
30129WAT     H190629   3.041   3.946   9.452
30129WAT     H290630   3.037   4.056   9.331
30130WAT      O90631   8.539   6.968   3.827
30130WAT     H190632   8.488   7.052   3.848
30130WAT     H290633   8.607   6.987   3.756
30131WAT      O90634   1.271   2.478   1.249
30131WAT     H190635   1.296   2.412   1.178
30131WAT     H290636   1.347   2.541   1.264
30132WAT      O90637   5.887   9.493   3.143
30132WAT     H190638   5.829   9.553   3.196
30132WAT     H290639   5.970   9.472   3.194
30133WAT      O90640   9.677   2.324   4.607
30133WAT     H190641   9.648   2.235   4.641
30133WAT     H290642   9.759   2.313   4.550
30134WAT      O90643   3.476   7.705   2.502
30134WAT     H190644   3.408   7.683   2.431
30134WAT     H290645   3.558   7.741   2.459
30135WAT      O90646   4.037   2.031   4.693
30135WAT     H190647   4.088   1.975   4.759
30135WAT     H290648   4.101   2.072   4.628
30136WAT      O90649   7.607   3.013   5.439
30136WAT     H190650   7.654   3.042   5.523
30136WAT     H290651   7.509   3.009   5.455
30137WAT      O90652   8.619   7.961   1.207
30137WAT     H190653   8.649   7.966   1.111
30137WAT     H290654   8.570   7.875   1.222
30138WAT      O90655   0.002   8.402   3.528
30138WAT     H190656   0.011   8.326   3.593
30138WAT     H290657   0.093   8.437   3.505
30139WAT      O90658   4.896   5.953   8.136
30139WAT     H190659   4.830   5.902   8.081
30139WAT     H290660   4.897   5.917   8.229
30140WAT      O90661   2.678   1.989   6.924
30140WAT     H190662   2.676   1.958   7.019
30140WAT     H290663   2.752   1.942   6.875
30141WAT      O90664   5.995   3.854   6.578
30141WAT     H190665   5.940   3.887   6.502
30141WAT     H290666   6.081   3.817   6.543
30142WAT      O90667   8.587   0.572   6.922
30142WAT     H190668   8.599   0.671   6.919
30142WAT     H290669   8.534   0.547   7.003
30143WAT      O90670   5.439   6.186   1.583
30143WAT     H190671   5.498   6.132   1.643
30143WAT     H290672   5.442   6.282   1.612
30144WAT      O90673   4.844   0.834   3.802
30144WAT     H190674   4.784   0.825   3.881
30144WAT     H290675   4.795   0.879   3.727
30145WAT      O90676   3.178   3.107   5.063
30145WAT     H190677   3.214   3.167   5.134
30145WAT     H290678   3.144   3.163   4.987
30146WAT      O90679   8.593   1.109   8.735
30146WAT     H190680   8.568   1.198   8.773
30146WAT     H290681   8.611   1.118   8.637
30147WAT      O90682   2.782   4.018   1.870
30147WAT     H190683   2.706   3.967   1.912
30147WAT     H290684   2.869   3.982   1.905
30148WAT      O90685   6.943   3.327   5.689
30148WAT     H190686   7.042   3.311   5.695
30148WAT     H290687   6.902   3.315   5.780
30149WAT      O90688   6.238   0.590   6.885
30149WAT     H190689   6.272   0.530   6.957
30149WAT     H290690   6.196   0.671   6.926
30150WAT      O90691   6.332   9.581   7.222
30150WAT     H190692   6.350   9.486   7.197
30150WAT     H290693   6.414   9.621   7.264
30151WAT      O90694   7.330   0.216   8.807
30151WAT     H190695   7.368   0.243   8.895
30151WAT     H290696   7.313   0.118   8.806
30152WAT      O90697   0.545   1.365   4.865
30152WAT     H190698   0.559   1.453   4.911
30152WAT     H290699   0.487   1.307   4.923
30153WAT      O90700   5.448   1.675   4.769
30153WAT     H190701   5.468   1.577   4.765
30153WAT     H290702   5.499   1.716   4.845
30154WAT      O90703   4.880   0.472   0.734
30154WAT     H190704   4.946   0.397   0.733
30154WAT     H290705   4.830   0.472   0.821
30155WAT      O90706   9.442   4.737   1.560
30155WAT     H190707   9.399   4.777   1.479
30155WAT     H290708   9.454   4.808   1.630
30156WAT      O90709   8.126   9.158   1.687
30156WAT     H190710   8.118   9.085   1.754
30156WAT     H290711   8.109   9.122   1.595
30157WAT      O90712   7.526   9.484   7.119
30157WAT     H190713   7.567   9.564   7.163
30157WAT     H290714   7.480   9.512   7.035
30158WAT      O90715   3.652   6.301   6.838
30158WAT     H190716   3.600   6.386   6.829
30158WAT     H290717   3.687   6.293   6.932
30159WAT      O90718   9.749   3.793   7.444
30159WAT     H190719   9.840   3.772   7.408
30159WAT     H290720   9.711   3.871   7.393
30160WAT      O90721   2.964   5.515   5.380
30160WAT     H190722   3.009   5.444   5.433
30160WAT     H290723   3.023   5.543   5.304
30161WAT      O90724   4.669   6.823   3.251
30161WAT     H190725   4.744   6.804   3.314
30161WAT     H290726   4.704   6.872   3.171
30162WAT      O90727   7.011   6.103   8.229
30162WAT     H190728   6.958   6.110   8.145
30162WAT     H290729   7.019   6.193   8.272
30163WAT      O90730   5.827   0.639   4.742
30163WAT     H190731   5.871   0.712   4.689
30163WAT     H290732   5.895   0.573   4.772
30164WAT      O90733   9.861   3.320   3.217
30164WAT     H190734   9.941   3.327   3.157
30164WAT     H290735   9.875   3.247   3.283
30165WAT      O90736   6.069   1.967   8.962
30165WAT     H190737   6.011   2.002   8.888
30165WAT     H290738   6.133   1.899   8.925
30166WAT      O90739   7.854   4.145   8.443
30166WAT     H190740   7.832   4.236   8.410
30166WAT     H290741   7.907   4.096   8.374
30167WAT      O90742   1.019   4.883   0.412
30167WAT     H190743   1.101   4.899   0.468
30167WAT     H290744   0.937   4.897   0.469
30168WAT      O90745   3.966   7.345   2.815
30168WAT     H190746   4.026   7.306   2.746
30168WAT     H290747   3.902   7.276   2.847
30169WAT      O90748   4.338   7.888   6.531
30169WAT     H190749   4.319   7.917   6.438
30169WAT     H290750   4.303   7.955   6.596
30170WAT      O90751   1.376   6.593   4.099
30170WAT     H190752   1.321   6.514   4.125
30170WAT     H290753   1.350   6.672   4.155
30171WAT      O90754   9.096   7.995   9.339
30171WAT     H190755   9.152   7.916   9.363
30171WAT     H290756   9.002   7.965   9.323
30172WAT      O90757   4.708   2.998   6.109
30172WAT     H190758   4.773   3.016   6.183
30172WAT     H290759   4.642   2.929   6.139
30173WAT      O90760   1.830   0.126   1.617
30173WAT     H190761   1.754   0.085   1.566
30173WAT     H290762   1.876   0.193   1.560
30174WAT      O90763   5.852   0.597   0.555
30174WAT     H190764   5.820   0.504   0.536
30174WAT     H290765   5.945   0.608   0.521
30175WAT      O90766   8.065   3.774   8.950
30175WAT     H190767   8.125   3.696   8.929
30175WAT     H290768   7.974   3.757   8.913
30176WAT      O90769   1.797   3.307   4.595
30176WAT     H190770   1.809   3.401   4.561
30176WAT     H290771   1.789   3.245   4.517
30177WAT      O90772   3.867   4.591   1.095
30177WAT     H190773   3.953   4.540   1.101
30177WAT     H290774   3.824   4.575   1.006
30178WAT      O90775   3.551   3.676   8.197
30178WAT     H190776   3.483   3.739   8.161
30178WAT     H290777   3.633   3.678   8.140
30179WAT      O90778   3.410   1.414   0.771
30179WAT     H190779   3.406   1.323   0.730
30179WAT     H290780   3.407   1.405   0.871
30180WAT      O90781   7.960   2.930   6.195
30180WAT     H190782   7.937   2.881   6.111
30180WAT     H290783   7.991   3.023   6.173
30181WAT      O90784   7.485   8.020   4.354
30181WAT     H190785   7.584   8.021   4.364
30181WAT     H290786   7.454   7.926   4.339
30182WAT      O90787   1.955   0.190   3.956
30182WAT     H190788   1.868   0.143   3.943
30182WAT     H290789   1.941   0.270   4.014
30183WAT      O90790   9.661   8.364   7.946
30183WAT     H190791   9.733   8.370   8.015
30183WAT     H290792   9.659   8.272   7.907
30184WAT      O90793   1.492   8.117   2.494
30184WAT     H190794   1.440   8.189   2.539
30184WAT     H290795   1.509   8.143   2.399
30185WAT      O90796   8.950   0.612   0.815
30185WAT     H190797   9.006   0.693   0.799
30185WAT     H290798   8.862   0.639   0.854
30186WAT      O90799   0.309   6.569   7.222
30186WAT     H190800   0.287   6.489   7.167
30186WAT     H290801   0.239   6.639   7.210
30187WAT      O90802   7.179   1.934   7.174
30187WAT     H190803   7.125   1.860   7.215
30187WAT     H290804   7.202   1.909   7.080
30188WAT      O90805   8.707   8.342   1.431
30188WAT     H190806   8.703   8.399   1.513
30188WAT     H290807   8.799   8.348   1.392
30189WAT      O90808   4.583   3.998   6.317
30189WAT     H190809   4.638   4.082   6.318
30189WAT     H290810   4.632   3.925   6.363
30190WAT      O90811   7.942   1.218   3.954
30190WAT     H190812   7.857   1.262   3.982
30190WAT     H290813   8.019   1.273   3.985
30191WAT      O90814   8.023   3.160   2.152
30191WAT     H190815   8.118   3.168   2.124
30191WAT     H290816   7.986   3.073   2.121
30192WAT      O90817   3.250   2.851   9.036
30192WAT     H190818   3.162   2.895   9.020
30192WAT     H290819   3.239   2.752   9.030
30193WAT      O90820   2.241   2.054   5.111
30193WAT     H190821   2.181   2.051   5.031
30193WAT     H290822   2.185   2.065   5.193
30194WAT      O90823   5.999   3.330   1.473
30194WAT     H190824   5.966   3.307   1.565
30194WAT     H290825   6.013   3.246   1.421
30195WAT      O90826   0.629   5.085   6.286
30195WAT     H190827   0.718   5.040   6.279
30195WAT     H290828   0.557   5.016   6.291
30196WAT      O90829   2.017   1.773   2.577
30196WAT     H190830   2.111   1.752   2.602
30196WAT     H290831   1.967   1.688   2.562
30197WAT      O90832   5.075   5.834   7.772
30197WAT     H190833   5.125   5.897   7.832
30197WAT     H290834   5.024   5.768   7.828
30198WAT      O90835   3.019   5.338   9.706
30198WAT     H190836   3.066   5.272   9.646
30198WAT     H290837   2.922   5.341   9.682
30199WAT      O90838   8.786   2.458   9.591
30199WAT     H190839   8.810   2.374   9.542
30199WAT     H290840   8.690   2.454   9.618
30200WAT      O90841   3.453   6.969   2.680
30200WAT     H190842   3.492   7.035   2.743
30200WAT     H290843   3.462   6.877   2.718
30201WAT      O90844   6.752   5.129   1.203
30201WAT     H190845   6.844   5.113   1.239
30201WAT     H290846   6.752   5.211   1.146
30202WAT      O90847   2.563   1.187   7.657
30202WAT     H190848   2.480   1.204   7.604
30202WAT     H290849   2.605   1.274   7.684
30203WAT      O90850   0.108   9.298   1.960
30203WAT     H190851   0.097   9.340   2.050
30203WAT     H290852   0.205   9.281   1.943
30204WAT      O90853   1.430   1.418   4.088
30204WAT     H190854   1.409   1.321   4.080
30204WAT     H290855   1.344   1.470   4.096
30205WAT      O90856   1.968   9.800   7.837
30205WAT     H190857   1.934   9.714   7.874
30205WAT     H290858   2.062   9.815   7.867
30206WAT      O90859   8.317   4.491   6.851
30206WAT     H190860   8.267   4.573   6.822
30206WAT     H290861   8.253   4.416   6.867
30207WAT      O90862   9.133   5.740   6.142
30207WAT     H190863   9.204   5.723   6.075
30207WAT     H290864   9.060   5.673   6.131
30208WAT      O90865   6.008   5.936   1.371
30208WAT     H190866   6.032   5.999   1.297
30208WAT     H290867   5.955   5.859   1.333
30209WAT      O90868   0.755   6.557   1.448
30209WAT     H190869   0.770   6.518   1.539
30209WAT     H290870   0.666   6.528   1.413
30210WAT      O90871   0.095   8.116   8.176
30210WAT     H190872   0.189   8.090   8.156
30210WAT     H290873   0.057   8.055   8.245
30211WAT      O90874   0.034   6.052   2.988
30211WAT     H190875   0.037   6.043   3.087
30211WAT     H290876   0.126   6.069   2.953
30212WAT      O90877   4.393   3.396   8.016
30212WAT     H190878   4.447   3.400   7.932
30212WAT     H290879   4.300   3.429   7.998
30213WAT      O90880   5.618   6.506   7.015
30213WAT     H190881   5.541   6.526   7.075
30213WAT     H290882   5.598   6.540   6.923
30214WAT      O90883   8.712   2.006   4.522
30214WAT     H190884   8.685   2.101   4.536
30214WAT     H290885   8.655   1.965   4.450
30215WAT      O90886   2.909   0.328   3.257
30215WAT     H190887   2.825   0.329   3.202
30215WAT     H290888   2.986   0.357   3.201
30216WAT      O90889   1.028   5.779   2.105
30216WAT     H190890   1.041   5.878   2.095
30216WAT     H290891   0.931   5.757   2.101
30217WAT      O90892   9.218   4.567   0.118
30217WAT     H190893   9.143   4.634   0.119
30217WAT     H290894   9.189   4.486   0.067
30218WAT      O90895   3.516   9.540   5.426
30218WAT     H190896   3.526   9.452   5.380
30218WAT     H290897   3.605   9.585   5.430
30219WAT      O90898   4.653   0.257   8.481
30219WAT     H190899   4.573   0.198   8.473
30219WAT     H290900   4.628   0.341   8.529
30220WAT      O90901   2.963   5.797   8.846
30220WAT     H190902   3.048   5.850   8.851
30220WAT     H290903   2.895   5.837   8.908
30221WAT      O90904   3.359   2.555   0.182
30221WAT     H190905   3.457   2.535   0.188
30221WAT     H290906   3.308   2.488   0.235
30222WAT      O90907   7.676   6.235   8.297
30222WAT     H190908   7.698   6.323   8.254
30222WAT     H290909   7.682   6.244   8.396
30223WAT      O90910   1.735   8.197   9.304
30223WAT     H190911   1.793   8.224   9.381
30223WAT     H290912   1.790   8.198   9.220
30224WAT      O90913   3.383   9.435   5.825
30224WAT     H190914   3.352   9.428   5.730
30224WAT     H290915   3.482   9.446   5.827
30225WAT      O90916   3.208   4.530   3.866
30225WAT     H190917   3.254   4.536   3.955
30225WAT     H290918   3.272   4.553   3.793
30226WAT      O90919   6.609   1.001   7.514
30226WAT     H190920   6.611   1.006   7.613
30226WAT     H290921   6.597   1.093   7.476
30227WAT      O90922   8.515   6.289   4.587
30227WAT     H190923   8.441   6.287   4.654
30227WAT     H290924   8.582   6.218   4.610
30228WAT      O90925   2.407   2.817   1.692
30228WAT     H190926   2.428   2.763   1.611
30228WAT     H290927   2.477   2.887   1.705
30229WAT      O90928   2.816   4.541   7.950
30229WAT     H190929   2.840   4.586   7.865
30229WAT     H290930   2.839   4.444   7.944
30230WAT      O90931   2.618   5.763   3.407
30230WAT     H190932   2.663   5.756   3.318
30230WAT     H290933   2.532   5.712   3.404
30231WAT      O90934   2.003   2.288   0.126
30231WAT     H190935   1.941   2.323   0.196
30231WAT     H290936   2.097   2.289   0.161
30232WAT      O90937   7.577   8.679   5.356
30232WAT     H190938   7.534   8.657   5.269
30232WAT     H290939   7.629   8.599   5.389
30233WAT      O90940   6.819   1.178   4.035
30233WAT     H190941   6.867   1.236   4.100
30233WAT     H290942   6.731   1.151   4.074
30234WAT      O90943   3.640   8.259   8.222
30234WAT     H190944   3.648   8.212   8.135
30234WAT     H290945   3.580   8.339   8.212
30235WAT      O90946   5.323   7.621   4.500
30235WAT     H190947   5.388   7.550   4.474
30235WAT     H290948   5.235   7.604   4.454
30236WAT      O90949   0.153   9.837   9.242
30236WAT     H190950   0.240   9.873   9.207
30236WAT     H290951   0.150   9.738   9.227
30237WAT      O90952   1.913   9.186   4.706
30237WAT     H190953   1.909   9.284   4.686
30237WAT     H290954   1.941   9.136   4.624
30238WAT      O90955   7.671   1.151   6.981
30238WAT     H190956   7.608   1.118   7.052
30238WAT     H290957   7.678   1.250   6.986
30239WAT      O90958   7.222   0.957   9.184
30239WAT     H190959   7.142   0.988   9.235
30239WAT     H290960   7.297   0.941   9.247
30240WAT      O90961   8.449   7.087   1.252
30240WAT     H190962   8.383   7.120   1.319
30240WAT     H290963   8.406   7.020   1.192
30241WAT      O90964   6.611   1.587   6.854
30241WAT     H190965   6.550   1.539   6.791
30241WAT     H290966   6.596   1.685   6.848
30242WAT      O90967   3.720   7.229   0.971
30242WAT     H190968   3.640   7.171   0.955
30242WAT     H290969   3.789   7.178   1.022
30243WAT      O90970   5.482   8.710   5.391
30243WAT     H190971   5.435   8.740   5.474
30243WAT     H290972   5.440   8.754   5.311
30244WAT      O90973   6.752   5.248   3.854
30244WAT     H190974   6.718   5.195   3.932
30244WAT     H290975   6.684   5.316   3.829
30245WAT      O90976   8.798   7.313   7.482
30245WAT     H190977   8.709   7.324   7.528
30245WAT     H290978   8.838   7.225   7.508
30246WAT      O90979   5.645   2.929   8.969
30246WAT     H190980   5.646   3.020   9.011
30246WAT     H290981   5.693   2.933   8.881
30247WAT      O90982   9.244   0.301   8.072
30247WAT     H190983   9.242   0.255   8.161
30247WAT     H290984   9.323   0.362   8.067
30248WAT      O90985   8.685   6.857   6.948
30248WAT     H190986   8.613   6.918   6.982
30248WAT     H290987   8.646   6.766   6.932
30249WAT      O90988   1.598   0.646   9.418
30249WAT     H190989   1.667   0.611   9.354
30249WAT     H290990   1.626   0.626   9.511
30250WAT      O90991   4.021   5.412   2.902
30250WAT     H190992   4.120   5.416   2.896
30250WAT     H290993   3.986   5.342   2.841
30251WAT      O90994   8.892   4.986   6.951
30251WAT     H190995   8.975   5.029   6.983
30251WAT     H290996   8.864   4.915   7.016
30252WAT      O90997   0.417   0.175   7.373
30252WAT     H190998   0.440   0.197   7.279
30252WAT     H290999   0.348   0.240   7.407
30253WAT      O91000   2.441   7.454   6.334
30253WAT     H191001   2.515   7.501   6.286
30253WAT     H291002   2.480   7.388   6.399
30254WAT      O91003   1.157   4.731   2.368
30254WAT     H191004   1.101   4.709   2.448
30254WAT     H291005   1.242   4.773   2.397
30255WAT      O91006   6.749   8.692   8.654
30255WAT     H191007   6.808   8.623   8.695
30255WAT     H291008   6.776   8.708   8.559
30256WAT      O91009   7.622   2.574   7.993
30256WAT     H191010   7.598   2.481   8.022
30256WAT     H291011   7.715   2.575   7.958
30257WAT      O91012   0.914   8.520   7.170
30257WAT     H191013   0.978   8.511   7.247
30257WAT     H291014   0.966   8.527   7.085
30258WAT      O91015   7.091   2.379   1.166
30258WAT     H191016   7.086   2.477   1.188
30258WAT     H291017   6.999   2.340   1.168
30259WAT      O91018   3.074   2.892   6.081
30259WAT     H191019   3.063   2.952   6.001
30259WAT     H291020   3.149   2.927   6.138
30260WAT      O91021   1.723   3.432   6.249
30260WAT     H191022   1.658   3.403   6.179
30260WAT     H291023   1.785   3.357   6.271
30261WAT      O91024   0.591   9.641   8.733
30261WAT     H191025   0.660   9.609   8.798
30261WAT     H291026   0.603   9.592   8.646
30262WAT      O91027   4.946   2.468   2.076
30262WAT     H191028   4.848   2.475   2.094
30262WAT     H291029   4.961   2.413   1.994
30263WAT      O91030   3.464   7.331   0.229
30263WAT     H191031   3.409   7.382   0.296
30263WAT     H291032   3.534   7.390   0.190
30264WAT      O91033   5.215   7.648   0.813
30264WAT     H191034   5.151   7.724   0.800
30264WAT     H291035   5.308   7.678   0.789
30265WAT      O91036   0.751   6.032   8.169
30265WAT     H191037   0.674   6.002   8.225
30265WAT     H291038   0.764   5.968   8.093
30266WAT      O91039   0.664   3.956   2.573
30266WAT     H191040   0.574   3.979   2.609
30266WAT     H291041   0.717   4.039   2.558
30267WAT      O91042   4.179   6.831   7.707
30267WAT     H191043   4.129   6.792   7.784
30267WAT     H291044   4.133   6.914   7.676
30268WAT      O91045   6.856   5.390   5.494
30268WAT     H191046   6.877   5.487   5.482
30268WAT     H291047   6.905   5.336   5.426
30269WAT      O91048   5.553   7.841   7.923
30269WAT     H191049   5.477   7.830   7.859
30269WAT     H291050   5.521   7.887   8.005
30270WAT      O91051   4.456   9.254   6.193
30270WAT     H191052   4.492   9.312   6.266
30270WAT     H291053   4.369   9.290   6.161
30271WAT      O91054   9.623   6.730   3.537
30271WAT     H191055   9.549   6.666   3.517
30271WAT     H291056   9.635   6.737   3.636
30272WAT      O91057   7.122   1.771   9.806
30272WAT     H191058   7.180   1.760   9.887
30272WAT     H291059   7.151   1.853   9.756
30273WAT      O91060   7.078   3.066   9.502
30273WAT     H191061   7.125   3.126   9.437
30273WAT     H291062   7.116   2.974   9.496
30274WAT      O91063   8.394   3.757   1.284
30274WAT     H191064   8.347   3.672   1.261
30274WAT     H291065   8.387   3.774   1.382
30275WAT      O91066   8.991   8.575   3.363
30275WAT     H191067   8.952   8.667   3.365
30275WAT     H291068   9.023   8.551   3.454
30276WAT      O91069   9.474   8.175   6.530
30276WAT     H191070   9.391   8.168   6.476
30276WAT     H291071   9.530   8.093   6.517
30277WAT      O91072   0.055   3.061   2.792
30277WAT     H191073   0.151   3.088   2.783
30277WAT     H291074  -0.001   3.120   2.733
30278WAT      O91075   7.441   5.000   7.643
30278WAT     H191076   7.354   5.049   7.646
30278WAT     H291077   7.454   4.961   7.552
30279WAT      O91078   1.826   7.688   5.145
30279WAT     H191079   1.741   7.637   5.160
30279WAT     H291080   1.822   7.736   5.057
30280WAT      O91081   7.841   3.249   4.303
30280WAT     H191082   7.753   3.235   4.349
30280WAT     H291083   7.903   3.298   4.364
30281WAT      O91084   3.135   2.276   0.687
30281WAT     H191085   3.205   2.304   0.753
30281WAT     H291086   3.155   2.183   0.655
30282WAT      O91087   6.557   1.194   3.775
30282WAT     H191088   6.603   1.280   3.754
30282WAT     H291089   6.507   1.161   3.695
30283WAT      O91090   4.680   2.889   4.717
30283WAT     H191091   4.775   2.907   4.746
30283WAT     H291092   4.623   2.968   4.740
30284WAT      O91093   4.506   1.144   8.848
30284WAT     H191094   4.431   1.156   8.914
30284WAT     H291095   4.588   1.188   8.884
30285WAT      O91096   9.603   7.653   2.208
30285WAT     H191097   9.668   7.704   2.264
30285WAT     H291098   9.603   7.557   2.237
30286WAT      O91099   8.576   8.176   4.834
30286WAT     H191100   8.587   8.086   4.792
30286WAT     H291101   8.552   8.243   4.764
30287WAT      O91102   3.034   1.352   8.229
30287WAT     H191103   3.035   1.276   8.164
30287WAT     H291104   2.960   1.415   8.206
30288WAT      O91105   6.183   0.772   7.882
30288WAT     H191106   6.219   0.852   7.930
30288WAT     H291107   6.092   0.793   7.846
30289WAT      O91108   5.286   8.833   8.237
30289WAT     H191109   5.246   8.875   8.155
30289WAT     H291110   5.231   8.754   8.264
30290WAT      O91111   8.234   4.888   3.483
30290WAT     H191112   8.307   4.865   3.419
30290WAT     H291113   8.149   4.901   3.433
30291WAT      O91114   2.351   2.718   2.564
30291WAT     H191115   2.311   2.788   2.623
30291WAT     H291116   2.286   2.694   2.492
30292WAT      O91117   3.697   9.455   5.777
30292WAT     H191118   3.772   9.475   5.840
30292WAT     H291119   3.712   9.367   5.733
30293WAT      O91120   3.896   5.659   8.956
30293WAT     H191121   3.878   5.752   8.923
30293WAT     H291122   3.891   5.658   9.056
30294WAT      O91123   7.316   2.075   3.090
30294WAT     H191124   7.364   2.038   3.010
30294WAT     H291125   7.325   2.010   3.166
30295WAT      O91126   4.612   5.875   8.772
30295WAT     H191127   4.538   5.830   8.723
30295WAT     H291128   4.576   5.956   8.819
30296WAT      O91129   0.505   9.507   5.383
30296WAT     H191130   0.455   9.567   5.446
30296WAT     H291131   0.603   9.521   5.395
30297WAT      O91132   0.667   8.507   0.426
30297WAT     H191133   0.667   8.495   0.326
30297WAT     H291134   0.621   8.594   0.448
30298WAT      O91135   6.784   9.813   7.430
30298WAT     H191136   6.800   9.727   7.383
30298WAT     H291137   6.869   9.868   7.430
30299WAT      O91138   9.880   7.311   6.921
30299WAT     H191139   9.852   7.407   6.926
30299WAT     H291140   9.919   7.292   6.830
30300WAT      O91141   4.149   8.971   1.201
30300WAT     H191142   4.149   9.070   1.186
30300WAT     H291143   4.230   8.945   1.253
30301WAT      O91144   2.709   2.223   0.876
30301WAT     H191145   2.751   2.148   0.927
30301WAT     H291146   2.777   2.295   0.862
30302WAT      O91147   8.877   8.653   8.297
30302WAT     H191148   8.816   8.732   8.295
30302WAT     H291149   8.965   8.677   8.257
30303WAT      O91150   2.513   0.702   1.959
30303WAT     H191151   2.549   0.721   1.868
30303WAT     H291152   2.585   0.663   2.016
30304WAT      O91153   3.457   3.816   8.905
30304WAT     H191154   3.392   3.760   8.956
30304WAT     H291155   3.547   3.774   8.908
30305WAT      O91156   9.079   2.223   1.260
30305WAT     H191157   9.177   2.216   1.245
30305WAT     H291158   9.049   2.317   1.243
30306WAT      O91159   2.541   9.382   7.369
30306WAT     H191160   2.596   9.439   7.308
30306WAT     H291161   2.581   9.382   7.461
30307WAT      O91162   4.167   9.711   3.753
30307WAT     H191163   4.094   9.649   3.725
30307WAT     H291164   4.128   9.801   3.776
30308WAT      O91165   7.724   7.447   4.330
30308WAT     H191166   7.704   7.351   4.309
30308WAT     H291167   7.657   7.481   4.395
30309WAT      O91168   6.686   4.647   7.792
30309WAT     H191169   6.746   4.577   7.831
30309WAT     H291170   6.642   4.698   7.866
30310WAT      O91171   3.715   7.310   7.794
30310WAT     H191172   3.698   7.297   7.892
30310WAT     H291173   3.729   7.407   7.775
30311WAT      O91174   4.773   0.060   0.343
30311WAT     H191175   4.859   0.022   0.376
30311WAT     H291176   4.785   0.094   0.250
30312WAT      O91177   9.646   0.989   1.362
30312WAT     H191178   9.559   1.009   1.317
30312WAT     H291179   9.719   1.041   1.318
30313WAT      O91180   0.484   0.511   7.623
30313WAT     H191181   0.424   0.523   7.544
30313WAT     H291182   0.496   0.414   7.642
30314WAT      O91183   5.128   0.859   7.047
30314WAT     H191184   5.209   0.912   7.070
30314WAT     H291185   5.048   0.899   7.093
30315WAT      O91186   4.182   2.719   1.196
30315WAT     H191187   4.249   2.680   1.133
30315WAT     H291188   4.225   2.734   1.285
30316WAT      O91189   3.382   1.579   9.235
30316WAT     H191190   3.321   1.574   9.314
30316WAT     H291191   3.467   1.531   9.255
30317WAT      O91192   4.814   0.410   6.307
30317WAT     H191193   4.828   0.353   6.226
30317WAT     H291194   4.889   0.396   6.371
30318WAT      O91195   5.143   0.936   2.872
30318WAT     H191196   5.240   0.958   2.862
30318WAT     H291197   5.113   0.880   2.794
30319WAT      O91198   6.098   2.565   5.438
30319WAT     H191199   6.011   2.579   5.486
30319WAT     H291200   6.168   2.626   5.477
30320WAT      O91201   4.687   2.728   1.652
30320WAT     H191202   4.781   2.737   1.686
30320WAT     H291203   4.659   2.632   1.659
30321WAT      O91204   6.527   7.555   0.807
30321WAT     H191205   6.455   7.525   0.870
30321WAT     H291206   6.556   7.648   0.832
30322WAT      O91207   9.851   0.390   2.564
30322WAT     H191208   9.792   0.403   2.485
30322WAT     H291209   9.830   0.303   2.608
30323WAT      O91210   0.417   4.263   7.893
30323WAT     H191211   0.425   4.166   7.913
30323WAT     H291212   0.357   4.307   7.960
30324WAT      O91213   6.146   3.299   4.188
30324WAT     H191214   6.051   3.328   4.176
30324WAT     H291215   6.148   3.202   4.210
30325WAT      O91216   9.046   9.610   3.624
30325WAT     H191217   9.003   9.534   3.672
30325WAT     H291218   9.145   9.601   3.630
30326WAT      O91219   0.277   2.147   9.873
30326WAT     H191220   0.274   2.048   9.860
30326WAT     H291221   0.279   2.168   9.971
30327WAT      O91222   3.406   9.014   5.637
30327WAT     H191223   3.373   8.934   5.687
30327WAT     H291224   3.491   9.046   5.680
30328WAT      O91225   7.545   3.366   3.609
30328WAT     H191226   7.571   3.298   3.678
30328WAT     H291227   7.610   3.363   3.533
30329WAT      O91228   5.576   6.131   3.389
30329WAT     H191229   5.482   6.134   3.358
30329WAT     H291230   5.604   6.221   3.423
30330WAT      O91231   1.206   8.988   2.762
30330WAT     H191232   1.287   9.046   2.747
30330WAT     H291233   1.189   8.979   2.860
30331WAT      O91234   5.550   9.833   6.781
30331WAT     H191235   5.637   9.785   6.768
30331WAT     H291236   5.547   9.913   6.721
30332WAT      O91237   5.799   4.932   5.794
30332WAT     H191238   5.704   4.933   5.826
30332WAT     H291239   5.802   4.957   5.698
30333WAT      O91240   2.052   1.092   5.905
30333WAT     H191241   2.125   1.144   5.861
30333WAT     H291242   1.970   1.149   5.912
30334WAT      O91243   8.132   5.285   2.849
30334WAT     H191244   8.114   5.189   2.831
30334WAT     H291245   8.228   5.297   2.877
30335WAT      O91246   6.711   1.521   0.394
30335WAT     H191247   6.711   1.619   0.411
30335WAT     H291248   6.617   1.488   0.390
30336WAT      O91249   6.440   1.839   5.298
30336WAT     H191250   6.371   1.774   5.330
30336WAT     H291251   6.501   1.864   5.373
30337WAT      O91252   7.245   0.446   7.835
30337WAT     H191253   7.271   0.375   7.770
30337WAT     H291254   7.222   0.405   7.923
30338WAT      O91255   8.001   1.259   2.953
30338WAT     H191256   8.079   1.238   2.894
30338WAT     H291257   7.956   1.175   2.981
30339WAT      O91258   3.702   3.414   7.480
30339WAT     H191259   3.761   3.420   7.561
30339WAT     H291260   3.744   3.353   7.413
30340WAT      O91261   8.164   0.326   3.755
30340WAT     H191262   8.069   0.328   3.786
30340WAT     H291263   8.209   0.245   3.793
30341WAT      O91264   4.645   5.910   3.936
30341WAT     H191265   4.596   5.952   3.860
30341WAT     H291266   4.597   5.828   3.966
30342WAT      O91267   7.140   4.473   8.941
30342WAT     H191268   7.222   4.530   8.933
30342WAT     H291269   7.162   4.379   8.914
30343WAT      O91270   8.137   6.115   7.465
30343WAT     H191271   8.044   6.140   7.490
30343WAT     H291272   8.183   6.074   7.544
30344WAT      O91273   5.750   2.546   0.861
30344WAT     H191274   5.753   2.610   0.784
30344WAT     H291275   5.692   2.467   0.837
30345WAT      O91276   3.328   6.844   9.210
30345WAT     H191277   3.373   6.844   9.120
30345WAT     H291278   3.394   6.867   9.280
30346WAT      O91279   9.824   0.461   4.834
30346WAT     H191280   9.746   0.398   4.840
30346WAT     H291281   9.790   0.553   4.815
30347WAT      O91282   3.626   1.687   1.278
30347WAT     H191283   3.649   1.763   1.217
30347WAT     H291284   3.676   1.606   1.249
30348WAT      O91285   9.772   0.901   8.058
30348WAT     H191286   9.863   0.859   8.056
30348WAT     H291287   9.741   0.908   8.152
30349WAT      O91288   8.853   8.498   2.556
30349WAT     H191289   8.940   8.541   2.532
30349WAT     H291290   8.782   8.568   2.560
30350WAT      O91291   7.448   2.219   7.021
30350WAT     H191292   7.365   2.242   7.071
30350WAT     H291293   7.474   2.124   7.041
30351WAT      O91294   2.609   6.559   1.279
30351WAT     H191295   2.598   6.654   1.249
30351WAT     H291296   2.587   6.552   1.376
30352WAT      O91297   5.329   8.636   0.118
30352WAT     H191298   5.418   8.637   0.072
30352WAT     H291299   5.302   8.729   0.140
30353WAT      O91300   7.194   6.039   7.165
30353WAT     H191301   7.284   6.073   7.137
30353WAT     H291302   7.124   6.077   7.105
30354WAT      O91303   7.144   4.046   5.879
30354WAT     H191304   7.101   4.131   5.849
30354WAT     H291305   7.099   4.014   5.963
30355WAT      O91306   1.302   3.161   5.518
30355WAT     H191307   1.340   3.072   5.541
30355WAT     H291308   1.345   3.232   5.575
30356WAT      O91309   1.376   4.971   6.818
30356WAT     H191310   1.337   4.883   6.791
30356WAT     H291311   1.413   4.964   6.911
30357WAT      O91312   0.377   7.789   4.901
30357WAT     H191313   0.470   7.755   4.908
30357WAT     H291314   0.314   7.726   4.948
30358WAT      O91315   0.293   3.066   3.755
30358WAT     H191316   0.260   3.110   3.838
30358WAT     H291317   0.278   2.968   3.760
30359WAT      O91318   6.904   5.550   3.412
30359WAT     H191319   6.873   5.619   3.476
30359WAT     H291320   6.825   5.510   3.365
30360WAT      O91321   1.754   8.199   0.238
30360WAT     H191322   1.763   8.100   0.252
30360WAT     H291323   1.813   8.247   0.303
30361WAT      O91324   3.538   8.311   1.576
30361WAT     H191325   3.442   8.335   1.587
30361WAT     H291326   3.546   8.221   1.533
30362WAT      O91327   4.771   5.229   8.337
30362WAT     H191328   4.780   5.184   8.426
30362WAT     H291329   4.819   5.176   8.268
30363WAT      O91330   8.527   5.246   1.747
30363WAT     H191331   8.574   5.286   1.826
30363WAT     H291332   8.490   5.156   1.772
30364WAT      O91333   3.800   5.022   3.048
30364WAT     H191334   3.872   4.973   2.998
30364WAT     H291335   3.723   4.961   3.066
30365WAT      O91336   4.709   0.872   4.868
30365WAT     H191337   4.660   0.909   4.788
30365WAT     H291338   4.804   0.853   4.842
30366WAT      O91339   7.157   7.462   4.672
30366WAT     H191340   7.115   7.537   4.621
30366WAT     H291341   7.092   7.426   4.738
30367WAT      O91342   7.170   6.760   7.316
30367WAT     H191343   7.240   6.772   7.245
30367WAT     H291344   7.148   6.850   7.355
30368WAT      O91345   5.956   2.710   2.402
30368WAT     H191346   6.047   2.748   2.386
30368WAT     H291347   5.963   2.610   2.409
30369WAT      O91348   9.541   8.991   6.119
30369WAT     H191349   9.491   8.927   6.060
30369WAT     H291350   9.529   8.965   6.215
30370WAT      O91351   8.444   4.734   6.442
30370WAT     H191352   8.449   4.688   6.531
30370WAT     H291353   8.394   4.677   6.377
30371WAT      O91354   8.048   1.255   5.425
30371WAT     H191355   8.112   1.271   5.350
30371WAT     H291356   8.083   1.182   5.485
30372WAT      O91357   7.931   0.334   4.433
30372WAT     H191358   7.937   0.365   4.528
30372WAT     H291359   7.985   0.250   4.423
30373WAT      O91360   6.221   9.629   2.476
30373WAT     H191361   6.266   9.569   2.543
30373WAT     H291362   6.154   9.687   2.523
30374WAT      O91363   0.933   0.316   1.228
30374WAT     H191364   0.850   0.344   1.179
30374WAT     H291365   0.910   0.299   1.324
30375WAT      O91366   6.311   3.630   5.614
30375WAT     H191367   6.227   3.605   5.662
30375WAT     H291368   6.291   3.647   5.517
30376WAT      O91369   2.887   5.576   5.094
30376WAT     H191370   2.911   5.577   4.997
30376WAT     H291371   2.924   5.657   5.139
30377WAT      O91372   7.792   2.424   2.482
30377WAT     H191373   7.889   2.411   2.503
30377WAT     H291374   7.767   2.367   2.404
30378WAT      O91375   9.683   2.537   0.967
30378WAT     H191376   9.695   2.487   0.881
30378WAT     H291377   9.721   2.630   0.957
30379WAT      O91378   8.973   7.017   1.778
30379WAT     H191379   9.012   7.109   1.772
30379WAT     H291380   9.035   6.957   1.828
30380WAT      O91381   5.577   9.648   7.860
30380WAT     H191382   5.478   9.642   7.871
30380WAT     H291383   5.619   9.670   7.948
30381WAT      O91384   3.143   8.602   0.190
30381WAT     H191385   3.134   8.635   0.096
30381WAT     H291386   3.229   8.635   0.229
30382WAT      O91387   0.055   1.458   4.826
30382WAT     H191388   0.052   1.478   4.923
30382WAT     H291389   0.143   1.487   4.788
30383WAT      O91390   1.183   5.310   5.202
30383WAT     H191391   1.226   5.333   5.289
30383WAT     H291392   1.212   5.375   5.131
30384WAT      O91393   3.157   5.979   0.048
30384WAT     H191394   3.177   6.048   0.116
30384WAT     H291395   3.093   6.017  -0.020
30385WAT      O91396   7.661   4.871   4.187
30385WAT     H191397   7.666   4.793   4.250
30385WAT     H291398   7.596   4.851   4.114
30386WAT      O91399   0.506   8.508   3.079
30386WAT     H191400   0.525   8.411   3.094
30386WAT     H291401   0.591   8.556   3.060
30387WAT      O91402   5.224   0.033   1.876
30387WAT     H191403   5.254   0.041   1.971
30387WAT     H291404   5.130   0.066   1.869
30388WAT      O91405   8.056   1.859   4.131
30388WAT     H191406   8.024   1.768   4.103
30388WAT     H291407   7.981   1.908   4.177
30389WAT      O91408   0.677   6.358   4.602
30389WAT     H191409   0.740   6.333   4.676
30389WAT     H291410   0.679   6.288   4.531
30390WAT      O91411   3.839   1.896   9.682
30390WAT     H191412   3.919   1.873   9.737
30390WAT     H291413   3.788   1.969   9.726
30391WAT      O91414   3.442   5.098   1.072
30391WAT     H191415   3.527   5.145   1.046
30391WAT     H291416   3.439   5.009   1.027
30392WAT      O91417   7.227   9.635   1.296
30392WAT     H191418   7.150   9.593   1.345
30392WAT     H291419   7.271   9.702   1.356
30393WAT      O91420   9.266   0.170   3.401
30393WAT     H191421   9.260   0.270   3.405
30393WAT     H291422   9.178   0.133   3.372
30394WAT      O91423   8.080   8.318   0.830
30394WAT     H191424   7.986   8.288   0.814
30394WAT     H291425   8.136   8.239   0.854
30395WAT      O91426   3.247   2.270   0.991
30395WAT     H191427   3.308   2.340   1.027
30395WAT     H291428   3.155   2.286   1.026
30396WAT      O91429   2.968   2.882   5.442
30396WAT     H191430   3.032   2.932   5.500
30396WAT     H291431   2.987   2.903   5.346
30397WAT      O91432   4.012   4.005   0.451
30397WAT     H191433   3.913   4.003   0.440
30397WAT     H291434   4.043   4.099   0.460
30398WAT      O91435   7.766   8.703   2.511
30398WAT     H191436   7.834   8.635   2.485
30398WAT     H291437   7.702   8.663   2.577
30399WAT      O91438   0.918   7.803   5.227
30399WAT     H191439   1.006   7.755   5.234
30399WAT     H291440   0.901   7.828   5.132
30400WAT      O91441   2.244   9.680   4.312
30400WAT     H191442   2.308   9.687   4.236
30400WAT     H291443   2.177   9.608   4.293
30401WAT      O91444   7.557   8.576   7.792
30401WAT     H191445   7.469   8.546   7.828
30401WAT     H291446   7.630   8.521   7.832
30402WAT      O91447   6.284   2.069   2.406
30402WAT     H191448   6.254   2.142   2.468
30402WAT     H291449   6.340   2.108   2.333
30403WAT      O91450   0.901   9.085   5.489
30403WAT     H191451   0.818   9.032   5.476
30403WAT     H291452   0.887   9.152   5.562
30404WAT      O91453   5.486   7.696   0.754
30404WAT     H191454   5.550   7.620   0.743
30404WAT     H291455   5.515   7.772   0.695
30405WAT      O91456   3.145   9.701   5.687
30405WAT     H191457   3.189   9.625   5.639
30405WAT     H291458   3.208   9.740   5.754
30406WAT      O91459   1.104   2.157   6.876
30406WAT     H191460   1.140   2.247   6.852
30406WAT     H291461   1.129   2.091   6.805
30407WAT      O91462   1.436   1.885   6.828
30407WAT     H191463   1.354   1.830   6.811
30407WAT     H291464   1.517   1.833   6.801
30408WAT      O91465   0.025   6.685   9.540
30408WAT     H191466   0.003   6.674   9.637
30408WAT     H291467  -0.048   6.645   9.485
30409WAT      O91468   9.298   2.348   6.345
30409WAT     H191469   9.301   2.286   6.267
30409WAT     H291470   9.230   2.315   6.411
30410WAT      O91471   9.652   3.204   1.558
30410WAT     H191472   9.739   3.174   1.519
30410WAT     H291473   9.622   3.138   1.627
30411WAT      O91474   2.480   0.482   3.461
30411WAT     H191475   2.407   0.531   3.414
30411WAT     H291476   2.440   0.406   3.514
30412WAT      O91477   0.198   7.331   4.633
30412WAT     H191478   0.269   7.394   4.601
30412WAT     H291479   0.212   7.241   4.591
30413WAT      O91480   5.385   1.491   5.834
30413WAT     H191481   5.426   1.582   5.831
30413WAT     H291482   5.326   1.478   5.754
30414WAT      O91483   5.827   4.004   2.685
30414WAT     H191484   5.913   3.985   2.732
30414WAT     H291485   5.821   3.950   2.602
30415WAT      O91486   5.133   1.482   4.585
30415WAT     H191487   5.216   1.438   4.620
30415WAT     H291488   5.127   1.575   4.622
30416WAT      O91489   4.779   4.493   9.392
30416WAT     H191490   4.759   4.470   9.297
30416WAT     H291491   4.693   4.511   9.441
30417WAT      O91492   7.308   5.243   3.318
30417WAT     H191493   7.379   5.256   3.387
30417WAT     H291494   7.313   5.149   3.282
30418WAT      O91495   6.206   0.185   4.211
30418WAT     H191496   6.241   0.204   4.119
30418WAT     H291497   6.282   0.165   4.273
30419WAT      O91498   2.789   4.691   4.714
30419WAT     H191499   2.807   4.618   4.780
30419WAT     H291500   2.840   4.673   4.630
30420WAT      O91501   4.661   1.497   1.185
30420WAT     H191502   4.751   1.459   1.165
30420WAT     H291503   4.594   1.423   1.190
30421WAT      O91504   2.774   2.156   2.265
30421WAT     H191505   2.808   2.095   2.337
30421WAT     H291506   2.830   2.144   2.183
30422WAT      O91507   7.727   4.446   9.291
30422WAT     H191508   7.812   4.407   9.329
30422WAT     H291509   7.740   4.544   9.276
30423WAT      O91510   2.870   8.002   5.383
30423WAT     H191511   2.933   8.065   5.337
30423WAT     H291512   2.806   7.965   5.315
30424WAT      O91513   6.293   1.584   1.820
30424WAT     H191514   6.215   1.538   1.779
30424WAT     H291515   6.365   1.517   1.839
30425WAT      O91516   7.077   1.218   8.217
30425WAT     H191517   7.005   1.228   8.285
30425WAT     H291518   7.081   1.300   8.160
30426WAT      O91519   1.351   2.206   5.207
30426WAT     H191520   1.383   2.231   5.115
30426WAT     H291521   1.424   2.222   5.273
30427WAT      O91522   7.504   8.178   6.877
30427WAT     H191523   7.497   8.245   6.950
30427WAT     H291524   7.599   8.153   6.862
30428WAT      O91525   2.309   9.169   2.166
30428WAT     H191526   2.302   9.202   2.072
30428WAT     H291527   2.302   9.069   2.167
30429WAT      O91528   2.253   6.878   7.509
30429WAT     H191529   2.244   6.899   7.606
30429WAT     H291530   2.264   6.963   7.457
30430WAT      O91531   3.165   8.150   3.498
30430WAT     H191532   3.253   8.135   3.543
30430WAT     H291533   3.175   8.136   3.399
30431WAT      O91534   5.130   2.360   0.427
30431WAT     H191535   5.054   2.354   0.493
30431WAT     H291536   5.215   2.333   0.472
30432WAT      O91537   0.779   3.715   5.175
30432WAT     H191538   0.867   3.671   5.160
30432WAT     H291539   0.742   3.687   5.264
30433WAT      O91540   4.375   7.799   1.560
30433WAT     H191541   4.391   7.809   1.462
30433WAT     H291542   4.345   7.887   1.598
30434WAT      O91543   9.501   9.588   7.844
30434WAT     H191544   9.504   9.686   7.825
30434WAT     H291545   9.544   9.570   7.932
30435WAT      O91546   2.416   1.867   1.893
30435WAT     H191547   2.502   1.902   1.858
30435WAT     H291548   2.357   1.840   1.817
30436WAT      O91549   1.362   1.554   7.915
30436WAT     H191550   1.389   1.489   7.843
30436WAT     H291551   1.364   1.647   7.878
30437WAT      O91552   1.465   3.402   3.873
30437WAT     H191553   1.526   3.337   3.920
30437WAT     H291554   1.520   3.462   3.814
30438WAT      O91555   5.068   8.993   4.751
30438WAT     H191556   5.143   8.929   4.764
30438WAT     H291557   5.034   9.024   4.840
30439WAT      O91558   1.274   6.881   4.191
30439WAT     H191559   1.299   6.938   4.113
30439WAT     H291560   1.179   6.852   4.182
30440WAT      O91561   4.611   2.027   0.895
30440WAT     H191562   4.556   1.970   0.834
30440WAT     H291563   4.625   1.980   0.982
30441WAT      O91564   5.889   3.814   4.283
30441WAT     H191565   5.851   3.749   4.217
30441WAT     H291566   5.876   3.907   4.249
30442WAT      O91567   7.164   6.905   4.773
30442WAT     H191568   7.206   6.857   4.696
30442WAT     H291569   7.224   6.980   4.802
30443WAT      O91570   5.464   5.116   7.758
30443WAT     H191571   5.512   5.192   7.802
30443WAT     H291572   5.369   5.141   7.743
30444WAT      O91573   7.316   7.609   2.986
30444WAT     H191574   7.304   7.550   2.907
30444WAT     H291575   7.255   7.688   2.979
30445WAT      O91576   6.199   1.163   6.935
30445WAT     H191577   6.123   1.100   6.950
30445WAT     H291578   6.248   1.178   7.021
30446WAT      O91579   9.740   3.924   4.578
30446WAT     H191580   9.773   3.884   4.493
30446WAT     H291581   9.640   3.932   4.575
30447WAT      O91582   0.723   4.291   8.638
30447WAT     H191583   0.799   4.313   8.699
30447WAT     H291584   0.757   4.283   8.544
30448WAT      O91585   4.953   4.021   8.831
30448WAT     H191586   4.915   3.944   8.882
30448WAT     H291587   5.050   4.031   8.852
30449WAT      O91588   0.214   2.670   3.535
30449WAT     H191589   0.253   2.579   3.546
30449WAT     H291590   0.119   2.663   3.506
30450WAT      O91591   0.659   0.251   9.570
30450WAT     H191592   0.589   0.183   9.551
30450WAT     H291593   0.620   0.343   9.565
30451WAT      O91594   5.413   4.716   9.050
30451WAT     H191595   5.382   4.810   9.067
30451WAT     H291596   5.468   4.685   9.127
30452WAT      O91597   5.159   9.158   2.512
30452WAT     H191598   5.078   9.109   2.543
30452WAT     H291599   5.134   9.227   2.445
30453WAT      O91600   4.652   4.219   1.140
30453WAT     H191601   4.669   4.260   1.050
30453WAT     H291602   4.739   4.207   1.187
30454WAT      O91603   2.283   0.493   7.377
30454WAT     H191604   2.205   0.554   7.364
30454WAT     H291605   2.250   0.403   7.406
30455WAT      O91606   4.516   8.764   4.186
30455WAT     H191607   4.531   8.752   4.088
30455WAT     H291608   4.588   8.716   4.237
30456WAT      O91609   4.905   8.744   3.470
30456WAT     H191610   4.808   8.729   3.453
30456WAT     H291611   4.929   8.709   3.560
30457WAT      O91612   6.499   1.844   3.098
30457WAT     H191613   6.578   1.897   3.067
30457WAT     H291614   6.419   1.903   3.104
30458WAT      O91615   7.295   2.026   7.535
30458WAT     H191616   7.250   1.940   7.561
30458WAT     H291617   7.231   2.102   7.546
30459WAT      O91618   1.467   0.027   4.736
30459WAT     H191619   1.448  -0.009   4.828
30459WAT     H291620   1.551  -0.016   4.701
30460WAT      O91621   9.628   1.872   5.108
30460WAT     H191622   9.542   1.883   5.058
30460WAT     H291623   9.680   1.795   5.069
30461WAT      O91624   4.514   9.182   8.157
30461WAT     H191625   4.500   9.281   8.151
30461WAT     H291626   4.539   9.147   8.067
30462WAT      O91627   1.312   4.072   8.628
30462WAT     H191628   1.326   3.997   8.693
30462WAT     H291629   1.352   4.048   8.540
30463WAT      O91630   0.245   3.550   7.610
30463WAT     H191631   0.329   3.576   7.562
30463WAT     H291632   0.210   3.630   7.660
30464WAT      O91633   0.773   5.424   4.987
30464WAT     H191634   0.863   5.468   4.983
30464WAT     H291635   0.713   5.464   4.918
30465WAT      O91636   4.250   1.510   6.100
30465WAT     H191637   4.282   1.541   6.190
30465WAT     H291638   4.320   1.453   6.058
30466WAT      O91639   0.088   0.960   3.800
30466WAT     H191640   0.156   0.891   3.826
30466WAT     H291641   0.026   0.977   3.877
30467WAT      O91642   6.719   5.870   8.079
30467WAT     H191643   6.776   5.833   8.006
30467WAT     H291644   6.660   5.942   8.042
30468WAT      O91645   3.235   3.265   6.315
30468WAT     H191646   3.232   3.333   6.388
30468WAT     H291647   3.213   3.309   6.227
30469WAT      O91648   4.676   2.346   2.395
30469WAT     H191649   4.715   2.353   2.486
30469WAT     H291650   4.726   2.276   2.343
30470WAT      O91651   0.031   0.345   9.528
30470WAT     H191652  -0.000   0.390   9.611
30470WAT     H291653   0.012   0.247   9.534
30471WAT      O91654   6.575   2.097   1.263
30471WAT     H191655   6.597   2.035   1.338
30471WAT     H291656   6.514   2.050   1.199
30472WAT      O91657   8.859   4.880   9.686
30472WAT     H191658   8.853   4.948   9.613
30472WAT     H291659   8.769   4.869   9.728
30473WAT      O91660   5.653   3.463   1.524
30473WAT     H191661   5.606   3.375   1.524
30473WAT     H291662   5.704   3.475   1.609
30474WAT      O91663   0.923   0.058   8.945
30474WAT     H191664   0.982  -0.022   8.953
30474WAT     H291665   0.889   0.084   9.035
30475WAT      O91666   6.693   6.061   1.956
30475WAT     H191667   6.596   6.037   1.954
30475WAT     H291668   6.745   5.998   1.898
30476WAT      O91669   7.817   3.601   4.950
30476WAT     H191670   7.769   3.688   4.938
30476WAT     H291671   7.781   3.533   4.887
30477WAT      O91672   1.480   9.255   7.550
30477WAT     H191673   1.419   9.330   7.522
30477WAT     H291674   1.439   9.168   7.524
30478WAT      O91675   8.742   2.025   7.772
30478WAT     H191676   8.780   1.953   7.829
30478WAT     H291677   8.702   1.985   7.690
30479WAT      O91678   6.793   3.790   9.316
30479WAT     H191679   6.890   3.817   9.321
30479WAT     H291680   6.770   3.736   9.397
30480WAT      O91681   7.542   7.831   8.274
30480WAT     H191682   7.528   7.763   8.346
30480WAT     H291683   7.496   7.916   8.298
30481WAT      O91684   9.880   0.322   6.975
30481WAT     H191685   9.950   0.273   6.922
30481WAT     H291686   9.832   0.386   6.915
30482WAT      O91687   1.581   5.075   8.466
30482WAT     H191688   1.640   4.995   8.450
30482WAT     H291689   1.632   5.145   8.515
30483WAT      O91690   6.254   2.889   1.207
30483WAT     H191691   6.183   2.955   1.180
30483WAT     H291692   6.216   2.825   1.273
30484WAT      O91693   0.172   8.334   3.173
30484WAT     H191694   0.145   8.341   3.077
30484WAT     H291695   0.115   8.266   3.218
30485WAT      O91696   7.369   3.593   9.736
30485WAT     H191697   7.344   3.664   9.669
30485WAT     H291698   7.298   3.589   9.806
30486WAT      O91699   1.619   1.608   3.975
30486WAT     H191700   1.579   1.692   3.938
30486WAT     H291701   1.549   1.558   4.026
30487WAT      O91702   8.356   4.885   2.467
30487WAT     H191703   8.297   4.906   2.390
30487WAT     H291704   8.300   4.858   2.546
30488WAT      O91705   2.891   4.294   7.057
30488WAT     H191706   2.815   4.239   7.091
30488WAT     H291707   2.902   4.375   7.115
30489WAT      O91708   3.285   3.077   9.690
30489WAT     H191709   3.217   3.148   9.708
30489WAT     H291710   3.285   3.056   9.592
30490WAT      O91711   0.157   0.531   6.736
30490WAT     H191712   0.162   0.585   6.651
30490WAT     H291713   0.062   0.511   6.757
30491WAT      O91714   8.850   1.986   4.020
30491WAT     H191715   8.771   2.024   4.069
30491WAT     H291716   8.819   1.937   3.939
30492WAT      O91717   1.038   9.565   6.719
30492WAT     H191718   1.062   9.473   6.689
30492WAT     H291719   0.938   9.576   6.718
30493WAT      O91720   8.878   5.347   5.544
30493WAT     H191721   8.919   5.321   5.457
30493WAT     H291722   8.782   5.368   5.531
30494WAT      O91723   2.151   8.753   7.204
30494WAT     H191724   2.226   8.740   7.140
30494WAT     H291725   2.179   8.723   7.295
30495WAT      O91726   5.611   6.133   9.503
30495WAT     H191727   5.553   6.170   9.575
30495WAT     H291728   5.669   6.060   9.540
30496WAT      O91729   6.433   4.467   6.311
30496WAT     H191730   6.404   4.417   6.230
30496WAT     H291731   6.520   4.513   6.293
30497WAT      O91732   0.912   4.797   1.723
30497WAT     H191733   0.980   4.858   1.765
30497WAT     H291734   0.821   4.825   1.752
30498WAT      O91735   6.138   2.920   8.376
30498WAT     H191736   6.147   2.824   8.351
30498WAT     H291737   6.227   2.965   8.370
30499WAT      O91738   7.693   0.486   8.773
30499WAT     H191739   7.771   0.446   8.821
30499WAT     H291740   7.678   0.579   8.805
30500WAT      O91741   3.726   5.630   0.269
30500WAT     H191742   3.673   5.547   0.284
30500WAT     H291743   3.779   5.651   0.351
30501WAT      O91744   0.170   0.988   5.174
30501WAT     H191745   0.078   0.975   5.138
30501WAT     H291746   0.196   1.084   5.165
30502WAT      O91747   5.639   0.042   4.846
30502WAT     H191748   5.704   0.105   4.887
30502WAT     H291749   5.560   0.093   4.812
30503WAT      O91750   0.773   2.433   1.408
30503WAT     H191751   0.775   2.432   1.308
30503WAT     H291752   0.837   2.364   1.443
30504WAT      O91753   8.946   7.040   8.205
30504WAT     H191754   8.930   7.017   8.300
30504WAT     H291755   9.024   6.988   8.170
30505WAT      O91756   9.870   7.367   2.385
30505WAT     H191757   9.778   7.334   2.409
30505WAT     H291758   9.876   7.465   2.405
30506WAT      O91759   7.793   7.959   0.938
30506WAT     H191760   7.793   8.028   1.010
30506WAT     H291761   7.826   7.872   0.975
30507WAT      O91762   1.744   9.303   9.141
30507WAT     H191763   1.796   9.219   9.125
30507WAT     H291764   1.798   9.364   9.199
30508WAT      O91765   6.042   8.919   9.751
30508WAT     H191766   6.028   8.833   9.800
30508WAT     H291767   6.041   8.995   9.816
30509WAT      O91768   5.805   4.651   5.712
30509WAT     H191769   5.795   4.670   5.614
30509WAT     H291770   5.868   4.717   5.752
30510WAT      O91771   1.946   7.772   7.639
30510WAT     H191772   2.046   7.769   7.634
30510WAT     H291773   1.910   7.678   7.636
30511WAT      O91774   1.505   7.028   8.229
30511WAT     H191775   1.429   7.080   8.268
30511WAT     H291776   1.505   6.936   8.268
30512WAT      O91777   6.535   8.674   7.369
30512WAT     H191778   6.572   8.766   7.378
30512WAT     H291779   6.568   8.634   7.283
30513WAT      O91780   2.909   8.559   2.097
30513WAT     H191781   2.824   8.542   2.046
30513WAT     H291782   2.889   8.611   2.179
30514WAT      O91783   2.077   2.407   4.451
30514WAT     H191784   2.054   2.396   4.548
30514WAT     H291785   2.125   2.493   4.437
30515WAT      O91786   1.177   0.462   0.495
30515WAT     H191787   1.255   0.468   0.433
30515WAT     H291788   1.197   0.396   0.567
30516WAT      O91789   9.555   0.247   1.057
30516WAT     H191790   9.488   0.280   0.990
30516WAT     H291791   9.593   0.160   1.027
30517WAT      O91792   4.920   8.377   5.721
30517WAT     H191793   4.983   8.455   5.715
30517WAT     H291794   4.831   8.408   5.754
30518WAT      O91795   7.297   3.431   0.541
30518WAT     H191796   7.321   3.358   0.606
30518WAT     H291797   7.369   3.441   0.473
30519WAT      O91798   3.750   8.286   5.526
30519WAT     H191799   3.829   8.299   5.586
30519WAT     H291800   3.682   8.356   5.545
30520WAT      O91801   9.179   0.183   6.359
30520WAT     H191802   9.090   0.229   6.355
30520WAT     H291803   9.176   0.111   6.428
30521WAT      O91804   6.442   4.340   7.702
30521WAT     H191805   6.402   4.375   7.786
30521WAT     H291806   6.504   4.408   7.663
30522WAT      O91807   2.763   1.839   4.535
30522WAT     H191808   2.718   1.752   4.556
30522WAT     H291809   2.808   1.874   4.617
30523WAT      O91810   7.692   1.036   0.530
30523WAT     H191811   7.770   1.021   0.469
30523WAT     H291812   7.634   1.108   0.492
30524WAT      O91813   6.506   9.086   9.727
30524WAT     H191814   6.479   8.990   9.730
30524WAT     H291815   6.468   9.134   9.807
30525WAT      O91816   7.518   5.297   5.382
30525WAT     H191817   7.506   5.289   5.481
30525WAT     H291818   7.517   5.394   5.356
30526WAT      O91819   7.150   6.208   1.389
30526WAT     H191820   7.207   6.127   1.378
30526WAT     H291821   7.057   6.189   1.357
30527WAT      O91822   7.936   2.292   7.467
30527WAT     H191823   7.947   2.251   7.558
30527WAT     H291824   7.925   2.220   7.399
30528WAT      O91825   0.213   6.645   3.730
30528WAT     H191826   0.133   6.604   3.686
30528WAT     H291827   0.184   6.722   3.787
30529WAT      O91828   2.102   7.758   5.087
30529WAT     H191829   2.078   7.717   5.175
30529WAT     H291830   2.096   7.689   5.015
30530WAT      O91831   2.084   9.738   2.612
30530WAT     H191832   2.037   9.826   2.624
30530WAT     H291833   2.132   9.714   2.697
30531WAT      O91834   7.438   1.840   7.340
30531WAT     H191835   7.353   1.881   7.308
30531WAT     H291836   7.430   1.818   7.437
30532WAT      O91837   0.186   3.251   8.798
30532WAT     H191838   0.140   3.163   8.800
30532WAT     H291839   0.274   3.244   8.846
30533WAT      O91840   5.702   4.670   6.648
30533WAT     H191841   5.758   4.644   6.727
30533WAT     H291842   5.637   4.740   6.676
30534WAT      O91843   8.992   1.104   2.527
30534WAT     H191844   8.929   1.145   2.460
30534WAT     H291845   9.006   1.168   2.602
30535WAT      O91846   4.540   4.152   7.956
30535WAT     H191847   4.608   4.215   7.920
30535WAT     H291848   4.586   4.073   7.996
30536WAT      O91849   3.716   9.297   1.189
30536WAT     H191850   3.705   9.388   1.150
30536WAT     H291851   3.628   9.266   1.226
30537WAT      O91852   9.806   6.731   4.220
30537WAT     H191853   9.837   6.636   4.223
30537WAT     H291854   9.717   6.739   4.264
30538WAT      O91855   1.428   9.147   3.895
30538WAT     H191856   1.517   9.191   3.903
30538WAT     H291857   1.440   9.047   3.898
30539WAT      O91858   5.711   5.537   2.381
30539WAT     H191859   5.728   5.541   2.283
30539WAT     H291860   5.680   5.445   2.406
30540WAT      O91861   3.330   1.115   8.198
30540WAT     H191862   3.314   1.089   8.293
30540WAT     H291863   3.412   1.171   8.191
30541WAT      O91864   4.825   2.303   6.605
30541WAT     H191865   4.752   2.236   6.621
30541WAT     H291866   4.785   2.386   6.565
30542WAT      O91867   4.304   5.281   3.948
30542WAT     H191868   4.305   5.357   3.884
30542WAT     H291869   4.265   5.200   3.903
30543WAT      O91870   0.520   3.215   9.720
30543WAT     H191871   0.544   3.311   9.735
30543WAT     H291872   0.565   3.182   9.637
30544WAT      O91873   6.728   9.547   7.774
30544WAT     H191874   6.666   9.625   7.765
30544WAT     H291875   6.695   9.487   7.847
30545WAT      O91876   4.771   8.898   0.644
30545WAT     H191877   4.815   8.810   0.666
30545WAT     H291878   4.838   8.958   0.599
30546WAT      O91879   7.625   8.956   4.732
30546WAT     H191880   7.624   8.871   4.783
30546WAT     H291881   7.558   9.020   4.770
30547WAT      O91882   3.207   1.868   0.828
30547WAT     H191883   3.273   1.804   0.789
30547WAT     H291884   3.248   1.915   0.906
30548WAT      O91885   8.165   8.812   8.252
30548WAT     H191886   8.169   8.771   8.161
30548WAT     H291887   8.224   8.892   8.255
30549WAT      O91888   4.232   0.215   1.268
30549WAT     H191889   4.235   0.208   1.169
30549WAT     H291890   4.252   0.309   1.296
30550WAT      O91891   3.621   2.440   7.122
30550WAT     H191892   3.579   2.528   7.100
30550WAT     H291893   3.637   2.434   7.221
30551WAT      O91894   2.312   6.967   6.626
30551WAT     H191895   2.363   6.923   6.701
30551WAT     H291896   2.368   6.965   6.543
30552WAT      O91897   9.724   7.063   1.417
30552WAT     H191898   9.685   6.985   1.368
30552WAT     H291899   9.677   7.074   1.505
30553WAT      O91900   7.685   6.151   1.730
30553WAT     H191901   7.758   6.164   1.662
30553WAT     H291902   7.716   6.183   1.819
30554WAT      O91903   6.823   0.268   4.221
30554WAT     H191904   6.871   0.205   4.283
30554WAT     H291905   6.825   0.360   4.260
30555WAT      O91906   7.611   3.893   2.826
30555WAT     H191907   7.707   3.887   2.854
30555WAT     H291908   7.565   3.963   2.881
30556WAT      O91909   1.095   0.557   8.720
30556WAT     H191910   1.089   0.655   8.703
30556WAT     H291911   1.008   0.513   8.696
30557WAT      O91912   2.623   1.577   5.161
30557WAT     H191913   2.692   1.564   5.232
30557WAT     H291914   2.665   1.566   5.071
30558WAT      O91915   9.640   7.932   6.821
30558WAT     H191916   9.617   7.901   6.729
30558WAT     H291917   9.728   7.979   6.820
30559WAT      O91918   3.976   4.310   4.470
30559WAT     H191919   3.962   4.225   4.521
30559WAT     H291920   4.023   4.376   4.529
30560WAT      O91921   0.841   0.362   4.903
30560WAT     H191922   0.824   0.359   5.002
30560WAT     H291923   0.939   0.372   4.887
30561WAT      O91924   1.281   1.935   8.503
30561WAT     H191925   1.252   1.860   8.444
30561WAT     H291926   1.381   1.941   8.503
30562WAT      O91927   7.584   6.047   4.577
30562WAT     H191928   7.642   6.128   4.586
30562WAT     H291929   7.626   5.971   4.627
30563WAT      O91930   2.867   9.815   6.029
30563WAT     H191931   2.896   9.910   6.037
30563WAT     H291932   2.777   9.810   5.986
30564WAT      O91933   2.013   7.913   0.502
30564WAT     H191934   2.088   7.980   0.509
30564WAT     H291935   1.928   7.961   0.482
30565WAT      O91936   7.121   5.186   7.299
30565WAT     H191937   7.037   5.232   7.270
30565WAT     H291938   7.098   5.110   7.359
30566WAT      O91939   3.829   6.000   6.447
30566WAT     H191940   3.831   6.014   6.547
30566WAT     H291941   3.755   6.055   6.408
30567WAT      O91942   8.968   8.955   8.949
30567WAT     H191943   9.032   9.031   8.966
30567WAT     H291944   8.964   8.936   8.851
30568WAT      O91945   5.902   2.298   5.150
30568WAT     H191946   5.882   2.391   5.180
30568WAT     H291947   5.985   2.297   5.095
30569WAT      O91948   4.413   3.521   6.991
30569WAT     H191949   4.507   3.541   7.017
30569WAT     H291950   4.361   3.606   6.986
30570WAT      O91951   5.147   3.167   0.695
30570WAT     H191952   5.195   3.105   0.756
30570WAT     H291953   5.109   3.115   0.618
30571WAT      O91954   9.709   4.775   0.828
30571WAT     H191955   9.715   4.861   0.776
30571WAT     H291956   9.786   4.717   0.803
30572WAT      O91957   4.495   8.630   7.931
30572WAT     H191958   4.471   8.560   7.864
30572WAT     H291959   4.413   8.681   7.958
30573WAT      O91960   6.111   4.579   1.833
30573WAT     H191961   6.163   4.643   1.776
30573WAT     H291962   6.025   4.556   1.786
30574WAT      O91963   2.538   1.542   2.887
30574WAT     H191964   2.542   1.625   2.943
30574WAT     H291965   2.556   1.462   2.944
30575WAT      O91966   2.980   6.220   9.261
30575WAT     H191967   2.905   6.230   9.196
30575WAT     H291968   3.043   6.149   9.229
30576WAT      O91969   5.786   1.911   2.368
30576WAT     H191970   5.784   2.011   2.366
30576WAT     H291971   5.867   1.880   2.418
30577WAT      O91972   6.698   3.049   6.660
30577WAT     H191973   6.635   3.036   6.584
30577WAT     H291974   6.726   3.145   6.664
30578WAT      O91975   0.528   2.107   0.872
30578WAT     H191976   0.458   2.118   0.802
30578WAT     H291977   0.526   2.013   0.907
30579WAT      O91978   1.353   6.386   8.508
30579WAT     H191979   1.341   6.294   8.470
30579WAT     H291980   1.345   6.453   8.435
30580WAT      O91981   8.168   6.651   8.925
30580WAT     H191982   8.158   6.743   8.961
30580WAT     H291983   8.105   6.589   8.971
30581WAT      O91984   3.381   9.650   3.243
30581WAT     H191985   3.305   9.671   3.182
30581WAT     H291986   3.383   9.551   3.259
30582WAT      O91987   3.403   8.769   0.285
30582WAT     H191988   3.421   8.745   0.189
30582WAT     H291989   3.476   8.732   0.342
30583WAT      O91990   6.850   6.890   8.194
30583WAT     H191991   6.892   6.969   8.148
30583WAT     H291992   6.778   6.852   8.136
30584WAT      O91993   2.554   8.011   9.863
30584WAT     H191994   2.535   8.036   9.958
30584WAT     H291995   2.526   7.916   9.847
30585WAT      O91996   9.440   7.637   3.412
30585WAT     H191997   9.383   7.556   3.426
30585WAT     H291998   9.493   7.627   3.328
30586WAT      O91999   4.092   6.899   5.448
30586WAT     H192000   4.177   6.933   5.488
30586WAT     H292001   4.113   6.838   5.371
30587WAT      O92002   0.850   3.544   2.245
30587WAT     H192003   0.806   3.565   2.158
30587WAT     H292004   0.838   3.622   2.307
30588WAT      O92005   5.087   7.780   3.462
30588WAT     H192006   5.116   7.874   3.480
30588WAT     H292007   5.074   7.733   3.550
30589WAT      O92008   2.587   3.211   0.885
30589WAT     H192009   2.526   3.149   0.935
30589WAT     H292010   2.584   3.302   0.927
30590WAT      O92011   5.982   6.560   4.061
30590WAT     H192012   6.050   6.494   4.092
30590WAT     H292013   5.909   6.511   4.012
30591WAT      O92014   7.601   2.872   8.620
30591WAT     H192015   7.601   2.912   8.711
30591WAT     H292016   7.564   2.780   8.623
30592WAT      O92017   8.224   7.304   6.773
30592WAT     H192018   8.158   7.261   6.711
30592WAT     H292019   8.206   7.274   6.867
30593WAT      O92020   5.388   5.954   4.794
30593WAT     H192021   5.325   5.961   4.717
30593WAT     H292022   5.469   5.902   4.766
30594WAT      O92023   1.775   6.808   9.426
30594WAT     H192024   1.808   6.760   9.507
30594WAT     H292025   1.741   6.743   9.359
30595WAT      O92026   0.602   9.594   4.103
30595WAT     H192027   0.552   9.654   4.040
30595WAT     H292028   0.698   9.590   4.077
30596WAT      O92029   0.705   6.747   2.292
30596WAT     H192030   0.680   6.661   2.337
30596WAT     H292031   0.732   6.814   2.362
30597WAT      O92032   7.244   4.031   7.754
30597WAT     H192033   7.158   3.996   7.717
30597WAT     H292034   7.263   3.986   7.842
30598WAT      O92035   0.914   8.384   3.415
30598WAT     H192036   0.885   8.307   3.472
30598WAT     H292037   0.871   8.468   3.448
30599WAT      O92038   7.488   4.864   7.385
30599WAT     H192039   7.577   4.825   7.407
30599WAT     H292040   7.497   4.928   7.309
30600WAT      O92041   8.324   7.945   7.702
30600WAT     H192042   8.335   7.856   7.658
30600WAT     H292043   8.398   7.960   7.768
30601WAT      O92044   1.361   0.110   3.383
30601WAT     H192045   1.292   0.174   3.417
30601WAT     H292046   1.445   0.121   3.436
30602WAT      O92047   0.473   5.063   9.039
30602WAT     H192048   0.450   5.045   8.944
30602WAT     H292049   0.533   5.144   9.044
30603WAT      O92050   2.217   4.725   0.414
30603WAT     H192051   2.155   4.738   0.491
30603WAT     H292052   2.291   4.792   0.418
30604WAT      O92053   1.073   2.133   5.753
30604WAT     H192054   1.122   2.128   5.666
30604WAT     H292055   1.138   2.140   5.828
30605WAT      O92056   1.186   3.125   4.405
30605WAT     H192057   1.203   3.183   4.485
30605WAT     H292058   1.180   3.183   4.323
30606WAT      O92059   2.551   1.588   2.457
30606WAT     H192060   2.469   1.645   2.454
30606WAT     H292061   2.577   1.561   2.365
30607WAT      O92062   1.484   4.165   5.358
30607WAT     H192063   1.457   4.261   5.359
30607WAT     H292064   1.412   4.111   5.315
30608WAT      O92065   3.955   6.682   0.265
30608WAT     H192066   4.051   6.658   0.248
30608WAT     H292067   3.896   6.623   0.210
30609WAT      O92068   0.964   1.904   5.549
30609WAT     H192069   0.973   1.835   5.478
30609WAT     H292070   1.048   1.957   5.555
30610WAT      O92071   6.582   4.310   5.887
30610WAT     H192072   6.673   4.339   5.916
30610WAT     H292073   6.513   4.356   5.942
30611WAT      O92074   2.508   3.280   4.110
30611WAT     H192075   2.597   3.320   4.089
30611WAT     H292076   2.437   3.351   4.103
30612WAT      O92077   2.021   7.535   8.000
30612WAT     H192078   1.982   7.466   8.060
30612WAT     H292079   1.957   7.612   7.992
30613WAT      O92080   5.552   9.749   0.129
30613WAT     H192081   5.587   9.706   0.212
30613WAT     H292082   5.616   9.733   0.053
30614WAT      O92083   2.452   8.029   2.164
30614WAT     H192084   2.395   8.049   2.244
30614WAT     H292085   2.476   7.932   2.163
30615WAT      O92086   2.417   5.655   1.221
30615WAT     H192087   2.482   5.705   1.278
30615WAT     H292088   2.348   5.718   1.186
30616WAT      O92089   3.261   1.300   9.383
30616WAT     H192090   3.268   1.274   9.287
30616WAT     H292091   3.176   1.264   9.421
30617WAT      O92092   3.513   0.069   9.684
30617WAT     H192093   3.611   0.088   9.683
30617WAT     H292094   3.497  -0.024   9.651
30618WAT      O92095   7.032   8.784   2.839
30618WAT     H192096   7.063   8.755   2.929
30618WAT     H292097   7.108   8.830   2.791
30619WAT      O92098   8.311   1.207   0.018
30619WAT     H192099   8.277   1.285   0.070
30619WAT     H292100   8.306   1.227  -0.080
30620WAT      O92101   8.053   3.496   5.118
30620WAT     H192102   7.988   3.529   5.050
30620WAT     H292103   8.019   3.410   5.157
30621WAT      O92104   5.990   4.782   5.354
30621WAT     H192105   6.024   4.699   5.401
30621WAT     H292106   6.022   4.863   5.403
30622WAT      O92107   1.397   3.003   9.692
30622WAT     H192108   1.427   3.091   9.729
30622WAT     H292109   1.372   3.014   9.596
30623WAT      O92110   5.700   4.494   4.344
30623WAT     H192111   5.622   4.440   4.377
30623WAT     H292112   5.672   4.590   4.336
30624WAT      O92113   6.797   8.255   8.414
30624WAT     H192114   6.806   8.303   8.326
30624WAT     H292115   6.843   8.309   8.485
30625WAT      O92116   0.378   7.336   7.557
30625WAT     H192117   0.294   7.294   7.522
30625WAT     H292118   0.411   7.282   7.635
30626WAT      O92119   8.494   8.887   8.457
30626WAT     H192120   8.434   8.953   8.411
30626WAT     H292121   8.487   8.799   8.411
30627WAT      O92122   9.531   2.995   7.593
30627WAT     H192123   9.543   3.083   7.639
30627WAT     H292124   9.620   2.963   7.557
30628WAT      O92125   2.761   2.146   7.319
30628WAT     H192126   2.674   2.136   7.271
30628WAT     H292127   2.834   2.164   7.252
30629WAT      O92128   6.063   7.929   3.071
30629WAT     H192129   6.052   7.908   2.974
30629WAT     H292130   5.983   7.979   3.104
30630WAT      O92131   0.198   5.191   9.207
30630WAT     H192132   0.204   5.169   9.110
30630WAT     H292133   0.274   5.149   9.256
30631WAT      O92134   1.721   5.680   7.823
30631WAT     H192135   1.774   5.680   7.738
30631WAT     H292136   1.662   5.760   7.825
30632WAT      O92137   2.168   7.074   1.408
30632WAT     H192138   2.164   7.141   1.334
30632WAT     H292139   2.096   7.006   1.396
30633WAT      O92140   8.100   8.765   0.691
30633WAT     H192141   8.150   8.689   0.650
30633WAT     H292142   8.130   8.778   0.785
30634WAT      O92143   9.181   7.213   7.716
30634WAT     H192144   9.098   7.167   7.749
30634WAT     H292145   9.258   7.149   7.722
30635WAT      O92146   3.214   0.175   1.059
30635WAT     H192147   3.161   0.256   1.034
30635WAT     H292148   3.301   0.175   1.008
30636WAT      O92149   3.578   4.826   9.156
30636WAT     H192150   3.520   4.858   9.082
30636WAT     H292151   3.589   4.898   9.224
30637WAT      O92152   4.302   9.178   0.810
30637WAT     H192153   4.373   9.179   0.881
30637WAT     H292154   4.213   9.196   0.852
30638WAT      O92155   1.138   0.358   9.065
30638WAT     H192156   1.073   0.434   9.070
30638WAT     H292157   1.089   0.275   9.038
30639WAT      O92158   6.704   1.196   5.416
30639WAT     H192159   6.738   1.109   5.452
30639WAT     H292160   6.776   1.241   5.363
30640WAT      O92161   2.200   6.951   8.263
30640WAT     H192162   2.155   7.001   8.189
30640WAT     H292163   2.186   6.853   8.250
30641WAT      O92164   9.536   4.935   2.860
30641WAT     H192165   9.597   4.914   2.784
30641WAT     H292166   9.565   4.886   2.942
30642WAT      O92167   1.298   4.879   3.237
30642WAT     H192168   1.273   4.794   3.191
30642WAT     H292169   1.228   4.948   3.221
30643WAT      O92170   7.487   2.707   3.884
30643WAT     H192171   7.538   2.660   3.812
30643WAT     H292172   7.389   2.694   3.869
30644WAT      O92173   4.569   3.375   0.075
30644WAT     H192174   4.479   3.395   0.038
30644WAT     H292175   4.638   3.427   0.025
30645WAT      O92176   5.961   0.425   2.620
30645WAT     H192177   5.932   0.358   2.551
30645WAT     H292178   5.930   0.516   2.594
30646WAT      O92179   8.760   7.201   3.421
30646WAT     H192180   8.855   7.216   3.396
30646WAT     H292181   8.708   7.171   3.341
30647WAT      O92182   5.363   7.425   6.739
30647WAT     H192183   5.267   7.422   6.710
30647WAT     H292184   5.420   7.376   6.674
30648WAT      O92185   1.799   3.516   8.581
30648WAT     H192186   1.898   3.534   8.581
30648WAT     H292187   1.767   3.508   8.486
30649WAT      O92188   6.707   9.580   5.329
30649WAT     H192189   6.777   9.613   5.393
30649WAT     H292190   6.660   9.658   5.288
30650WAT      O92191   8.529   3.898   2.372
30650WAT     H192192   8.598   3.828   2.389
30650WAT     H292193   8.439   3.865   2.401
30651WAT      O92194   7.599   4.790   1.540
30651WAT     H192195   7.596   4.695   1.509
30651WAT     H292196   7.583   4.794   1.638
30652WAT      O92197   4.201   5.920   8.470
30652WAT     H192198   4.139   5.949   8.397
30652WAT     H292199   4.246   6.000   8.509
30653WAT      O92200   1.421   0.976   6.208
30653WAT     H192201   1.360   1.046   6.170
30653WAT     H292202   1.496   1.021   6.256
30654WAT      O92203   4.362   4.188   1.738
30654WAT     H192204   4.415   4.145   1.811
30654WAT     H292205   4.305   4.261   1.776
30655WAT      O92206   7.698   2.475   8.504
30655WAT     H192207   7.689   2.410   8.579
30655WAT     H292208   7.792   2.509   8.500
30656WAT      O92209   5.077   1.806   1.003
30656WAT     H192210   5.103   1.897   1.034
30656WAT     H292211   4.978   1.801   0.993
30657WAT      O92212   2.690   7.477   0.466
30657WAT     H192213   2.601   7.518   0.449
30657WAT     H292214   2.698   7.390   0.417
30658WAT      O92215   0.850   3.802   6.317
30658WAT     H192216   0.931   3.745   6.310
30658WAT     H292217   0.786   3.761   6.383
30659WAT      O92218   7.164   1.049   1.208
30659WAT     H192219   7.192   1.101   1.128
30659WAT     H292220   7.153   0.952   1.184
30660WAT      O92221   4.268   1.372   1.358
30660WAT     H192222   4.315   1.379   1.446
30660WAT     H292223   4.334   1.352   1.286
30661WAT      O92224   3.662   8.640   4.563
30661WAT     H192225   3.660   8.667   4.660
30661WAT     H292226   3.740   8.684   4.518
30662WAT      O92227   9.326   3.129   5.396
30662WAT     H192228   9.249   3.121   5.332
30662WAT     H292229   9.409   3.097   5.352
30663WAT      O92230   6.989   2.033   9.376
30663WAT     H192231   6.957   1.975   9.301
30663WAT     H292232   7.069   2.086   9.345
30664WAT      O92233   4.551   8.566   9.305
30664WAT     H192234   4.589   8.494   9.247
30664WAT     H292235   4.451   8.567   9.297
30665WAT      O92236   8.728   9.757   1.644
30665WAT     H192237   8.806   9.820   1.650
30665WAT     H292238   8.650   9.797   1.691
30666WAT      O92239   6.835   5.096   9.131
30666WAT     H192240   6.795   5.016   9.175
30666WAT     H292241   6.933   5.081   9.119
30667WAT      O92242   7.740   6.541   7.765
30667WAT     H192243   7.699   6.470   7.823
30667WAT     H292244   7.678   6.564   7.691
30668WAT      O92245   1.083   1.978   0.208
30668WAT     H192246   1.145   1.915   0.255
30668WAT     H292247   1.132   2.024   0.134
30669WAT      O92248   4.720   2.821   6.592
30669WAT     H192249   4.729   2.916   6.621
30669WAT     H292250   4.802   2.794   6.542
30670WAT      O92251   2.531   8.274   7.132
30670WAT     H192252   2.488   8.329   7.204
30670WAT     H292253   2.568   8.334   7.062
30671WAT      O92254   7.032   3.783   8.308
30671WAT     H192255   6.995   3.874   8.287
30671WAT     H292256   7.131   3.790   8.322
30672WAT      O92257   4.735   3.695   0.540
30672WAT     H192258   4.668   3.653   0.601
30672WAT     H292259   4.710   3.790   0.522
30673WAT      O92260   3.261   3.493   4.615
30673WAT     H192261   3.181   3.551   4.633
30673WAT     H292262   3.230   3.404   4.580
30674WAT      O92263   4.491   8.103   3.710
30674WAT     H192264   4.578   8.054   3.705
30674WAT     H292265   4.441   8.075   3.791
30675WAT      O92266   9.592   0.043   1.967
30675WAT     H192267   9.644   0.116   2.010
30675WAT     H292268   9.566   0.070   1.874
30676WAT      O92269   0.181   8.950   5.724
30676WAT     H192270   0.208   8.968   5.630
30676WAT     H292271   0.136   9.030   5.763
30677WAT      O92272   7.803   2.616   4.274
30677WAT     H192273   7.735   2.660   4.334
30677WAT     H292274   7.873   2.683   4.250
30678WAT      O92275   8.762   8.552   9.406
30678WAT     H192276   8.775   8.453   9.405
30678WAT     H292277   8.691   8.576   9.339
30679WAT      O92278   8.349   4.225   3.067
30679WAT     H192279   8.338   4.264   2.975
30679WAT     H292280   8.401   4.288   3.124
30680WAT      O92281   2.646   3.817   0.075
30680WAT     H192282   2.604   3.902   0.042
30680WAT     H292283   2.677   3.763  -0.003
30681WAT      O92284   5.694   7.543   0.980
30681WAT     H192285   5.763   7.613   0.996
30681WAT     H292286   5.688   7.524   0.882
30682WAT      O92287   1.177   5.930   2.567
30682WAT     H192288   1.113   5.928   2.644
30682WAT     H292289   1.264   5.970   2.597
30683WAT      O92290   5.137   8.913   7.657
30683WAT     H192291   5.051   8.868   7.632
30683WAT     H292292   5.198   8.848   7.702
30684WAT      O92293   8.367   4.950   2.053
30684WAT     H192294   8.447   4.943   1.993
30684WAT     H292295   8.289   4.904   2.011
30685WAT      O92296   5.331   6.193   7.349
30685WAT     H192297   5.268   6.136   7.297
30685WAT     H292298   5.279   6.254   7.410
30686WAT      O92299   6.050   8.499   2.392
30686WAT     H192300   6.097   8.416   2.423
30686WAT     H292301   6.083   8.525   2.301
30687WAT      O92302   7.076   3.385   9.711
30687WAT     H192303   6.982   3.399   9.742
30687WAT     H292304   7.087   3.423   9.619
30688WAT      O92305   6.850   8.410   5.130
30688WAT     H192306   6.789   8.373   5.200
30688WAT     H292307   6.887   8.336   5.075
30689WAT      O92308   8.388   2.425   6.275
30689WAT     H192309   8.422   2.459   6.362
30689WAT     H292310   8.455   2.445   6.203
30690WAT      O92311   7.225   1.717   3.077
30690WAT     H192312   7.224   1.620   3.103
30690WAT     H292313   7.221   1.725   2.977
30691WAT      O92314   8.922   6.740   6.999
30691WAT     H192315   8.852   6.799   6.958
30691WAT     H292316   8.886   6.699   7.083
30692WAT      O92317   3.425   8.051   5.103
30692WAT     H192318   3.414   7.960   5.143
30692WAT     H292319   3.515   8.058   5.060
30693WAT      O92320   9.317   2.620   0.827
30693WAT     H192321   9.234   2.641   0.878
30693WAT     H292322   9.324   2.521   0.812
30694WAT      O92323   6.907   3.926   6.376
30694WAT     H192324   6.830   3.979   6.412
30694WAT     H292325   6.923   3.952   6.281
30695WAT      O92326   2.766   8.916   2.583
30695WAT     H192327   2.818   8.844   2.630
30695WAT     H292328   2.815   8.943   2.500
30696WAT      O92329   2.776   8.492   0.447
30696WAT     H192330   2.819   8.453   0.529
30696WAT     H292331   2.835   8.477   0.368
30697WAT      O92332   5.462   2.365   6.852
30697WAT     H192333   5.522   2.386   6.929
30697WAT     H292334   5.484   2.275   6.816
30698WAT      O92335   8.053   7.941   6.508
30698WAT     H192336   7.961   7.906   6.527
30698WAT     H292337   8.075   7.925   6.412
30699WAT      O92338   0.133   4.584   2.535
30699WAT     H192339   0.196   4.647   2.490
30699WAT     H292340   0.056   4.635   2.574
30700WAT      O92341   8.498   6.261   0.780
30700WAT     H192342   8.547   6.349   0.776
30700WAT     H292343   8.425   6.261   0.713
30701WAT      O92344   8.389   5.430   0.825
30701WAT     H192345   8.391   5.518   0.874
30701WAT     H292346   8.341   5.362   0.881
30702WAT      O92347   7.425   0.907   7.635
30702WAT     H192348   7.409   0.816   7.675
30702WAT     H292349   7.337   0.953   7.623
30703WAT      O92350   4.482   5.994   7.282
30703WAT     H192351   4.558   5.955   7.229
30703WAT     H292352   4.439   6.067   7.228
30704WAT      O92353   9.419   1.997   4.379
30704WAT     H192354   9.350   2.065   4.405
30704WAT     H292355   9.422   1.989   4.279
30705WAT      O92356   6.563   8.987   4.032
30705WAT     H192357   6.637   9.009   3.969
30705WAT     H292358   6.574   9.040   4.116
30706WAT      O92359   7.084   2.400   0.885
30706WAT     H192360   7.127   2.310   0.876
30706WAT     H292361   7.062   2.417   0.981
30707WAT      O92362   1.918   9.126   8.430
30707WAT     H192363   1.979   9.175   8.493
30707WAT     H292364   1.847   9.188   8.398
30708WAT      O92365   7.766   8.290   6.763
30708WAT     H192366   7.769   8.200   6.719
30708WAT     H292367   7.849   8.303   6.817
30709WAT      O92368   8.564   8.668   0.869
30709WAT     H192369   8.509   8.751   0.860
30709WAT     H292370   8.629   8.679   0.944
30710WAT      O92371   1.003   8.769   5.523
30710WAT     H192372   1.028   8.690   5.467
30710WAT     H292373   0.979   8.846   5.463
30711WAT      O92374   3.838   3.501   3.031
30711WAT     H192375   3.753   3.453   3.011
30711WAT     H292376   3.873   3.471   3.119
30712WAT      O92377   5.035   2.515   0.755
30712WAT     H192378   4.973   2.456   0.703
30712WAT     H292379   5.040   2.604   0.711
30713WAT      O92380   2.483   7.285   0.860
30713WAT     H192381   2.455   7.279   0.765
30713WAT     H292382   2.566   7.339   0.867
30714WAT      O92383   0.640   6.946   4.513
30714WAT     H192384   0.619   6.880   4.585
30714WAT     H292385   0.560   7.005   4.497
30715WAT      O92386   0.185   7.456   9.647
30715WAT     H192387   0.165   7.501   9.560
30715WAT     H292388   0.198   7.358   9.633
30716WAT      O92389   8.022   8.830   6.377
30716WAT     H192390   8.039   8.780   6.292
30716WAT     H292391   8.108   8.858   6.418
30717WAT      O92392   5.824   5.721   1.293
30717WAT     H192393   5.856   5.672   1.373
30717WAT     H292394   5.803   5.657   1.220
30718WAT      O92395   9.539   2.997   9.260
30718WAT     H192396   9.535   3.065   9.187
30718WAT     H292397   9.454   2.943   9.260
30719WAT      O92398   7.596   1.456   9.872
30719WAT     H192399   7.668   1.470   9.940
30719WAT     H292400   7.634   1.411   9.792
30720WAT      O92401   9.354   5.161   1.487
30720WAT     H192402   9.447   5.179   1.517
30720WAT     H292403   9.355   5.088   1.418
30721WAT      O92404   3.206   5.780   0.498
30721WAT     H192405   3.251   5.691   0.485
30721WAT     H292406   3.246   5.847   0.436
30722WAT      O92407   2.851   3.704   7.993
30722WAT     H192408   2.860   3.803   7.986
30722WAT     H292409   2.786   3.671   7.925
30723WAT      O92410   8.355   3.408   5.055
30723WAT     H192411   8.255   3.407   5.057
30723WAT     H292412   8.390   3.466   5.129
30724WAT      O92413   6.659   4.979   6.695
30724WAT     H192414   6.754   4.995   6.670
30724WAT     H292415   6.609   5.066   6.694
30725WAT      O92416   1.070   1.820   7.975
30725WAT     H192417   1.148   1.827   7.913
30725WAT     H292418   1.061   1.726   8.008
30726WAT      O92419   4.625   1.225   3.126
30726WAT     H192420   4.608   1.312   3.079
30726WAT     H292421   4.724   1.212   3.136
30727WAT      O92422   4.254   4.969   2.121
30727WAT     H192423   4.332   4.908   2.134
30727WAT     H292424   4.171   4.923   2.153
30728WAT      O92425   7.215   4.219   2.870
30728WAT     H192426   7.193   4.208   2.773
30728WAT     H292427   7.138   4.262   2.916
30729WAT      O92428   2.281   4.646   2.897
30729WAT     H192429   2.306   4.551   2.916
30729WAT     H292430   2.233   4.652   2.809
30730WAT      O92431   3.833   3.106   7.559
30730WAT     H192432   3.861   3.095   7.464
30730WAT     H292433   3.907   3.150   7.610
30731WAT      O92434   0.197   9.729   1.807
30731WAT     H192435   0.106   9.702   1.837
30731WAT     H292436   0.190   9.806   1.744
30732WAT      O92437   6.477   7.690   4.518
30732WAT     H192438   6.498   7.606   4.468
30732WAT     H292439   6.546   7.705   4.589
30733WAT      O92440   3.484   4.885   4.060
30733WAT     H192441   3.388   4.912   4.061
30733WAT     H292442   3.497   4.809   4.124
30734WAT      O92443   0.641   5.283   9.014
30734WAT     H192444   0.602   5.361   9.062
30734WAT     H292445   0.740   5.297   9.003
30735WAT      O92446   3.580   1.659   3.954
30735WAT     H192447   3.629   1.589   4.005
30735WAT     H292448   3.620   1.749   3.974
30736WAT      O92449   2.349   3.892   9.488
30736WAT     H192450   2.389   3.980   9.463
30736WAT     H292451   2.276   3.906   9.554
30737WAT      O92452   7.843   1.857   3.208
30737WAT     H192453   7.904   1.926   3.247
30737WAT     H292454   7.749   1.891   3.211
30738WAT      O92455   4.201   2.286   7.249
30738WAT     H192456   4.271   2.348   7.283
30738WAT     H292457   4.242   2.198   7.226
30739WAT      O92458   8.841   2.656   7.651
30739WAT     H192459   8.768   2.640   7.585
30739WAT     H292460   8.890   2.739   7.627
30740WAT      O92461   8.456   2.417   4.719
30740WAT     H192462   8.434   2.395   4.814
30740WAT     H292463   8.532   2.482   4.717
30741WAT      O92464   9.406   7.784   0.815
30741WAT     H192465   9.397   7.729   0.733
30741WAT     H292466   9.339   7.754   0.883
30742WAT      O92467   7.421   5.521   5.821
30742WAT     H192468   7.382   5.609   5.794
30742WAT     H292469   7.349   5.461   5.855
30743WAT      O92470   1.211   5.999   5.005
30743WAT     H192471   1.306   5.968   5.002
30743WAT     H292472   1.205   6.080   5.063
30744WAT      O92473   6.855   3.491   1.577
30744WAT     H192474   6.887   3.584   1.559
30744WAT     H292475   6.755   3.490   1.581
30745WAT      O92476   5.636   3.711   1.032
30745WAT     H192477   5.651   3.741   1.127
30745WAT     H292478   5.576   3.776   0.987
30746WAT      O92479   7.171   0.354   9.127
30746WAT     H192480   7.174   0.445   9.170
30746WAT     H292481   7.150   0.364   9.030
30747WAT      O92482   5.586   3.302   6.730
30747WAT     H192483   5.515   3.328   6.795
30747WAT     H292484   5.664   3.263   6.779
30748WAT      O92485   9.144   4.587   3.527
30748WAT     H192486   9.221   4.642   3.494
30748WAT     H292487   9.073   4.648   3.564
30749WAT      O92488   2.268   9.317   4.303
30749WAT     H192489   2.251   9.338   4.399
30749WAT     H292490   2.359   9.351   4.277
30750WAT      O92491   4.047   6.009   8.257
30750WAT     H192492   3.956   5.970   8.273
30750WAT     H292493   4.075   5.988   8.163
30751WAT      O92494   2.383   4.910   8.344
30751WAT     H192495   2.351   4.994   8.300
30751WAT     H292496   2.305   4.849   8.361
30752WAT      O92497   2.439   0.235   3.773
30752WAT     H192498   2.512   0.168   3.764
30752WAT     H292499   2.392   0.245   3.684
30753WAT      O92500   7.033   5.892   9.567
30753WAT     H192501   6.976   5.815   9.538
30753WAT     H292502   7.016   5.912   9.663
30754WAT      O92503   1.115   2.561   4.357
30754WAT     H192504   1.116   2.632   4.427
30754WAT     H292505   1.203   2.561   4.310
30755WAT      O92506   0.287   4.846   7.570
30755WAT     H192507   0.199   4.881   7.539
30755WAT     H292508   0.282   4.822   7.667
30756WAT      O92509   0.549   4.986   6.708
30756WAT     H192510   0.581   4.953   6.797
30756WAT     H292511   0.510   4.910   6.656
30757WAT      O92512   9.659   6.085   2.901
30757WAT     H192513   9.604   6.143   2.962
30757WAT     H292514   9.751   6.077   2.938
30758WAT      O92515   8.213   2.831   7.881
30758WAT     H192516   8.228   2.867   7.973
30758WAT     H292517   8.117   2.843   7.856
30759WAT      O92518   8.840   3.776   9.345
30759WAT     H192519   8.867   3.679   9.345
30759WAT     H292520   8.741   3.783   9.356
30760WAT      O92521   2.000   3.863   7.497
30760WAT     H192522   1.990   3.783   7.439
30760WAT     H292523   1.972   3.945   7.447
30761WAT      O92524   3.994   8.733   3.979
30761WAT     H192525   4.034   8.648   4.014
30761WAT     H292526   3.930   8.712   3.906
30762WAT      O92527   6.372   8.109   5.820
30762WAT     H192528   6.422   8.181   5.771
30762WAT     H292529   6.432   8.066   5.887
30763WAT      O92530   5.415   0.688   2.141
30763WAT     H192531   5.496   0.727   2.097
30763WAT     H292532   5.369   0.626   2.076
30764WAT      O92533   0.549   0.795   8.161
30764WAT     H192534   0.642   0.789   8.126
30764WAT     H292535   0.548   0.772   8.259
30765WAT      O92536   2.478   1.253   8.046
30765WAT     H192537   2.401   1.268   8.108
30765WAT     H292538   2.447   1.264   7.951
30766WAT      O92539   5.641   9.778   9.352
30766WAT     H192540   5.648   9.799   9.255
30766WAT     H292541   5.684   9.690   9.370
30767WAT      O92542   7.975   4.213   4.488
30767WAT     H192543   8.019   4.232   4.400
30767WAT     H292544   8.003   4.123   4.521
30768WAT      O92545   3.069   5.683   6.470
30768WAT     H192546   2.972   5.685   6.493
30768WAT     H292547   3.117   5.756   6.519
30769WAT      O92548   8.017   9.052   3.201
30769WAT     H192549   7.960   9.018   3.126
30769WAT     H292550   7.970   9.037   3.288
30770WAT      O92551   6.928   4.078   9.388
30770WAT     H192552   6.967   3.997   9.344
30770WAT     H292553   6.844   4.054   9.435
30771WAT      O92554   3.581   7.021   2.271
30771WAT     H192555   3.527   6.962   2.211
30771WAT     H292556   3.520   7.065   2.338
30772WAT      O92557   9.297   8.928   0.475
30772WAT     H192558   9.254   9.005   0.522
30772WAT     H292559   9.380   8.902   0.524
30773WAT      O92560   5.810   9.377   8.984
30773WAT     H192561   5.892   9.320   8.986
30773WAT     H292562   5.836   9.474   8.988
30774WAT      O92563   5.465   4.831   3.427
30774WAT     H192564   5.448   4.733   3.435
30774WAT     H292565   5.399   4.871   3.363
30775WAT      O92566   3.619   4.866   7.253
30775WAT     H192567   3.622   4.787   7.192
30775WAT     H292568   3.710   4.908   7.257
30776WAT      O92569   5.750   9.760   7.685
30776WAT     H192570   5.678   9.724   7.744
30776WAT     H292571   5.754   9.860   7.694
30777WAT      O92572   1.622   6.929   4.133
30777WAT     H192573   1.590   7.020   4.108
30777WAT     H292574   1.557   6.887   4.197
30778WAT      O92575   0.796   9.383   0.911
30778WAT     H192576   0.862   9.370   0.986
30778WAT     H292577   0.736   9.303   0.906
30779WAT      O92578   5.062   1.060   3.862
30779WAT     H192579   5.022   0.984   3.810
30779WAT     H292580   5.007   1.142   3.847
30780WAT      O92581   3.551   7.445   9.549
30780WAT     H192582   3.469   7.414   9.597
30780WAT     H292583   3.531   7.455   9.452
30781WAT      O92584   0.825   0.519   0.229
30781WAT     H192585   0.730   0.502   0.252
30781WAT     H292586   0.883   0.498   0.307
30782WAT      O92587   8.441   2.218   3.683
30782WAT     H192588   8.470   2.257   3.771
30782WAT     H292589   8.465   2.281   3.610
30783WAT      O92590   8.032   9.652   6.449
30783WAT     H192591   8.071   9.744   6.445
30783WAT     H292592   7.936   9.657   6.476
30784WAT      O92593   3.827   3.238   1.116
30784WAT     H192594   3.751   3.302   1.104
30784WAT     H292595   3.896   3.279   1.175
30785WAT      O92596   4.599   0.616   4.196
30785WAT     H192597   4.646   0.528   4.193
30785WAT     H292598   4.567   0.633   4.290
30786WAT      O92599   4.575   5.439   0.510
30786WAT     H192600   4.648   5.499   0.476
30786WAT     H292601   4.561   5.455   0.608
30787WAT      O92602   6.765   3.352   8.661
30787WAT     H192603   6.767   3.256   8.690
30787WAT     H292604   6.858   3.388   8.659
30788WAT      O92605   5.344   8.668   1.543
30788WAT     H192606   5.375   8.700   1.454
30788WAT     H292607   5.249   8.697   1.557
30789WAT      O92608   6.905   0.073   4.416
30789WAT     H192609   6.847  -0.005   4.396
30789WAT     H292610   6.861   0.131   4.485
30790WAT      O92611   9.710   6.109   6.263
30790WAT     H192612   9.720   6.163   6.347
30790WAT     H292613   9.711   6.171   6.184
30791WAT      O92614   2.181   9.219   0.989
30791WAT     H192615   2.151   9.314   0.993
30791WAT     H292616   2.281   9.215   0.992
30792WAT      O92617   2.359   2.019   8.520
30792WAT     H192618   2.453   2.045   8.498
30792WAT     H292619   2.302   2.101   8.524
30793WAT      O92620   9.317   7.725   4.971
30793WAT     H192621   9.380   7.776   4.912
30793WAT     H292622   9.230   7.774   4.978
30794WAT      O92623   0.649   4.677   5.063
30794WAT     H192624   0.747   4.685   5.079
30794WAT     H292625   0.600   4.745   5.117
30795WAT      O92626   0.480   5.240   8.256
30795WAT     H192627   0.470   5.214   8.160
30795WAT     H292628   0.392   5.228   8.303
30796WAT      O92629   5.925   6.165   7.802
30796WAT     H192630   5.856   6.172   7.730
30796WAT     H292631   5.882   6.175   7.892
30797WAT      O92632   5.035   9.511   8.152
30797WAT     H192633   4.939   9.500   8.128
30797WAT     H292634   5.070   9.596   8.112
30798WAT      O92635   4.303   2.611   0.448
30798WAT     H192636   4.380   2.663   0.410
30798WAT     H292637   4.233   2.675   0.481
30799WAT      O92638   8.632   3.230   4.272
30799WAT     H192639   8.538   3.262   4.278
30799WAT     H292640   8.635   3.146   4.218
30800WAT      O92641   4.306   4.687   5.150
30800WAT     H192642   4.400   4.703   5.120
30800WAT     H292643   4.257   4.633   5.081
30801WAT      O92644   2.611   6.918   2.460
30801WAT     H192645   2.702   6.889   2.431
30801WAT     H292646   2.585   6.868   2.543
30802WAT      O92647   0.899   3.278   7.927
30802WAT     H192648   0.965   3.205   7.939
30802WAT     H292649   0.832   3.274   8.002
30803WAT      O92650   5.937   2.149   2.643
30803WAT     H192651   5.924   2.245   2.666
30803WAT     H292652   6.033   2.125   2.651
30804WAT      O92653   9.258   2.359   2.358
30804WAT     H192654   9.230   2.289   2.423
30804WAT     H292655   9.236   2.449   2.395
30805WAT      O92656   5.223   9.195   6.397
30805WAT     H192657   5.248   9.215   6.302
30805WAT     H292658   5.285   9.126   6.434
30806WAT      O92659   9.466   9.237   0.601
30806WAT     H192660   9.373   9.204   0.586
30806WAT     H292661   9.514   9.243   0.514
30807WAT      O92662   3.038   0.028   5.486
30807WAT     H192663   3.003  -0.037   5.418
30807WAT     H292664   3.027  -0.011   5.577
30808WAT      O92665   6.073   2.946   3.446
30808WAT     H192666   6.055   2.858   3.489
30808WAT     H292667   6.170   2.952   3.421
30809WAT      O92668   1.992   4.587   7.144
30809WAT     H192669   1.897   4.618   7.135
30809WAT     H292670   2.033   4.579   7.054
30810WAT      O92671   5.386   7.131   2.575
30810WAT     H192672   5.364   7.080   2.492
30810WAT     H292673   5.302   7.157   2.622
30811WAT      O92674   9.826   6.602   8.927
30811WAT     H192675   9.875   6.681   8.891
30811WAT     H292676   9.821   6.608   9.027
30812WAT      O92677   3.253   6.624   4.346
30812WAT     H192678   3.329   6.637   4.409
30812WAT     H292679   3.193   6.704   4.350
30813WAT      O92680   0.533   5.620   5.943
30813WAT     H192681   0.621   5.667   5.950
30813WAT     H292682   0.497   5.604   6.035
30814WAT      O92683   8.064   9.431   9.363
30814WAT     H192684   8.122   9.359   9.402
30814WAT     H292685   8.021   9.398   9.279
30815WAT      O92686   5.121   5.644   5.822
30815WAT     H192687   5.097   5.607   5.732
30815WAT     H292688   5.147   5.569   5.883
30816WAT      O92689   5.544   8.081   4.557
30816WAT     H192690   5.492   8.002   4.525
30816WAT     H292691   5.632   8.051   4.593
30817WAT      O92692   7.645   4.874   6.366
30817WAT     H192693   7.656   4.775   6.377
30817WAT     H292694   7.725   4.911   6.318
30818WAT      O92695   9.746   7.902   0.289
30818WAT     H192696   9.800   7.967   0.236
30818WAT     H292697   9.802   7.867   0.365
30819WAT      O92698   7.976   3.225   4.869
30819WAT     H192699   7.888   3.264   4.843
30819WAT     H292700   7.979   3.215   4.969
30820WAT      O92701   5.629   0.533   5.162
30820WAT     H192702   5.553   0.598   5.154
30820WAT     H292703   5.660   0.507   5.070
30821WAT      O92704   7.720   2.510   5.684
30821WAT     H192705   7.705   2.592   5.629
30821WAT     H292706   7.668   2.434   5.645
30822WAT      O92707   5.312   9.322   3.947
30822WAT     H192708   5.353   9.409   3.974
30822WAT     H292709   5.230   9.305   4.002
30823WAT      O92710   6.872   6.207   8.991
30823WAT     H192711   6.915   6.195   9.081
30823WAT     H292712   6.833   6.120   8.961
30824WAT      O92713   3.133   9.340   5.406
30824WAT     H192714   3.170   9.393   5.330
30824WAT     H292715   3.079   9.264   5.370
30825WAT      O92716   6.317   0.095   5.780
30825WAT     H192717   6.326   0.131   5.873
30825WAT     H292718   6.225   0.114   5.746
30826WAT      O92719   3.097   7.092   3.736
30826WAT     H192720   3.124   7.046   3.652
30826WAT     H292721   3.050   7.027   3.796
30827WAT      O92722   5.029   6.433   0.056
30827WAT     H192723   5.061   6.416   0.149
30827WAT     H292724   5.035   6.349   0.003
30828WAT      O92725   6.019   1.770   2.481
30828WAT     H192726   6.088   1.771   2.408
30828WAT     H292727   5.959   1.691   2.468
30829WAT      O92728   4.507   7.306   7.442
30829WAT     H192729   4.564   7.347   7.514
30829WAT     H292730   4.563   7.246   7.385
30830WAT      O92731   6.015   7.837   5.831
30830WAT     H192732   5.961   7.915   5.860
30830WAT     H292733   6.057   7.856   5.742
30831WAT      O92734   8.530   9.607   9.367
30831WAT     H192735   8.476   9.579   9.447
30831WAT     H292736   8.527   9.706   9.359
30832WAT      O92737   1.375   7.217   4.597
30832WAT     H192738   1.416   7.280   4.663
30832WAT     H292739   1.424   7.222   4.511
30833WAT      O92740   7.428   7.064   1.196
30833WAT     H192741   7.486   7.143   1.175
30833WAT     H292742   7.337   7.078   1.158
30834WAT      O92743   4.955   0.764   8.807
30834WAT     H192744   4.951   0.792   8.711
30834WAT     H292745   4.894   0.822   8.862
30835WAT      O92746   2.903   3.178   1.564
30835WAT     H192747   2.856   3.260   1.534
30835WAT     H292748   2.935   3.126   1.484
30836WAT      O92749   0.089   3.056   2.478
30836WAT     H192750   0.106   2.988   2.549
30836WAT     H292751   0.045   3.012   2.400
30837WAT      O92752   2.130   6.175   0.676
30837WAT     H192753   2.033   6.200   0.675
30837WAT     H292754   2.184   6.246   0.632
30838WAT      O92755   5.600   9.162   6.034
30838WAT     H192756   5.568   9.240   6.088
30838WAT     H292757   5.586   9.077   6.085
30839WAT      O92758   5.988   8.916   1.895
30839WAT     H192759   6.015   8.837   1.951
30839WAT     H292760   5.892   8.938   1.912
30840WAT      O92761   7.478   9.746   9.549
30840WAT     H192762   7.483   9.646   9.555
30840WAT     H292763   7.469   9.784   9.641
30841WAT      O92764   0.374   7.224   2.510
30841WAT     H192765   0.461   7.265   2.484
30841WAT     H292766   0.377   7.126   2.492
30842WAT      O92767   6.300   6.777   0.653
30842WAT     H192768   6.338   6.738   0.569
30842WAT     H292769   6.225   6.838   0.631
30843WAT      O92770   3.564   4.372   3.971
30843WAT     H192771   3.497   4.410   4.036
30843WAT     H292772   3.522   4.297   3.921
30844WAT      O92773   0.594   2.721   6.231
30844WAT     H192774   0.516   2.750   6.177
30844WAT     H292775   0.660   2.797   6.237
30845WAT      O92776   7.165   0.826   8.039
30845WAT     H192777   7.131   0.915   8.007
30845WAT     H292778   7.103   0.789   8.108
30846WAT      O92779   1.740   1.750   0.624
30846WAT     H192780   1.675   1.786   0.691
30846WAT     H292781   1.706   1.769   0.532
30847WAT      O92782   3.264   6.478   6.920
30847WAT     H192783   3.229   6.384   6.916
30847WAT     H292784   3.292   6.499   7.014
30848WAT      O92785   8.571   4.225   6.489
30848WAT     H192786   8.614   4.283   6.559
30848WAT     H292787   8.486   4.187   6.525
30849WAT      O92788   9.554   1.564   7.369
30849WAT     H192789   9.590   1.624   7.439
30849WAT     H292790   9.532   1.475   7.409
30850WAT      O92791   2.390   8.041   7.038
30850WAT     H192792   2.345   8.022   7.125
30850WAT     H292793   2.461   8.110   7.052
30851WAT      O92794   4.936   8.072   6.723
30851WAT     H192795   4.908   8.047   6.631
30851WAT     H292796   4.906   8.166   6.743
30852WAT      O92797   7.060   0.106   3.188
30852WAT     H192798   7.104   0.063   3.109
30852WAT     H292799   6.976   0.152   3.158
30853WAT      O92800   2.420   3.424   6.565
30853WAT     H192801   2.450   3.498   6.505
30853WAT     H292802   2.495   3.360   6.580
30854WAT      O92803   3.036   7.264   9.509
30854WAT     H192804   3.002   7.329   9.441
30854WAT     H292805   3.008   7.294   9.600
30855WAT      O92806   5.201   0.558   3.061
30855WAT     H192807   5.249   0.597   3.140
30855WAT     H292808   5.196   0.459   3.070
30856WAT      O92809   8.025   2.585   1.909
30856WAT     H192810   8.109   2.594   1.855
30856WAT     H292811   8.037   2.515   1.979
30857WAT      O92812   8.296   7.253   8.602
30857WAT     H192813   8.387   7.221   8.574
30857WAT     H292814   8.264   7.198   8.679
30858WAT      O92815   2.792   2.990   4.698
30858WAT     H192816   2.799   2.978   4.797
30858WAT     H292817   2.880   2.972   4.656
30859WAT      O92818   6.243   4.657   0.177
30859WAT     H192819   6.301   4.683   0.101
30859WAT     H292820   6.286   4.583   0.229
30860WAT      O92821   4.725   1.620   0.593
30860WAT     H192822   4.754   1.665   0.677
30860WAT     H292823   4.627   1.602   0.597
30861WAT      O92824   1.412   6.000   5.564
30861WAT     H192825   1.497   6.053   5.569
30861WAT     H292826   1.335   6.057   5.592
30862WAT      O92827   6.896   6.787   6.739
30862WAT     H192828   6.892   6.704   6.683
30862WAT     H292829   6.804   6.814   6.766
30863WAT      O92830   7.659   7.915   8.810
30863WAT     H192831   7.741   7.862   8.831
30863WAT     H292832   7.683   7.992   8.751
30864WAT      O92833   6.312   7.891   2.690
30864WAT     H192834   6.360   7.978   2.697
30864WAT     H292835   6.308   7.863   2.594
30865WAT      O92836   1.945   1.448   9.497
30865WAT     H192837   1.928   1.520   9.563
30865WAT     H292838   1.928   1.359   9.539
30866WAT      O92839   5.212   5.830   1.172
30866WAT     H192840   5.258   5.777   1.243
30866WAT     H292841   5.179   5.769   1.101
30867WAT      O92842   7.113   8.892   3.625
30867WAT     H192843   7.084   8.906   3.720
30867WAT     H292844   7.100   8.796   3.600
30868WAT      O92845   3.633   3.634   5.827
30868WAT     H192846   3.590   3.675   5.908
30868WAT     H292847   3.656   3.706   5.762
30869WAT      O92848   3.512   4.435   6.782
30869WAT     H192849   3.568   4.434   6.699
30869WAT     H292850   3.480   4.528   6.800
30870WAT      O92851   4.536   2.285   9.830
30870WAT     H192852   4.483   2.235   9.897
30870WAT     H292853   4.633   2.282   9.855
30871WAT      O92854   6.884   9.363   2.376
30871WAT     H192855   6.967   9.308   2.363
30871WAT     H292856   6.829   9.323   2.450
30872WAT      O92857   4.536   4.390   9.536
30872WAT     H192858   4.519   4.300   9.575
30872WAT     H292859   4.472   4.407   9.461
30873WAT      O92860   3.628   6.620   9.359
30873WAT     H192861   3.567   6.695   9.382
30873WAT     H292862   3.599   6.536   9.405
30874WAT      O92863   0.007   7.992   5.419
30874WAT     H192864  -0.065   7.922   5.422
30874WAT     H292865   0.092   7.951   5.386
30875WAT      O92866   1.459   0.186   2.756
30875WAT     H192867   1.392   0.112   2.751
30875WAT     H292868   1.414   0.274   2.738
30876WAT      O92869   4.774   0.066   1.861
30876WAT     H192870   4.696   0.124   1.840
30876WAT     H292871   4.852   0.124   1.887
30877WAT      O92872   4.455   1.629   1.832
30877WAT     H192873   4.489   1.547   1.877
30877WAT     H292874   4.385   1.603   1.764
30878WAT      O92875   5.321   0.448   9.474
30878WAT     H192876   5.378   0.511   9.422
30878WAT     H292877   5.378   0.394   9.536
30879WAT      O92878   7.213   9.253   6.913
30879WAT     H192879   7.313   9.258   6.913
30879WAT     H292880   7.183   9.188   6.982
30880WAT      O92881   3.047   2.448   1.450
30880WAT     H192882   3.104   2.496   1.384
30880WAT     H292883   3.041   2.501   1.535
30881WAT      O92884   2.409   4.827   5.476
30881WAT     H192885   2.403   4.853   5.573
30881WAT     H292886   2.440   4.905   5.422
30882WAT      O92887   9.093   7.956   4.044
30882WAT     H192888   9.016   7.973   3.983
30882WAT     H292889   9.121   8.042   4.087
30883WAT      O92890   5.548   6.059   6.889
30883WAT     H192891   5.485   6.129   6.923
30883WAT     H292892   5.641   6.095   6.886
30884WAT      O92893   6.554   6.471   0.035
30884WAT     H192894   6.631   6.418   0.071
30884WAT     H292895   6.575   6.568   0.038
30885WAT      O92896   5.667   6.375   1.358
30885WAT     H192897   5.672   6.303   1.289
30885WAT     H292898   5.572   6.404   1.368
30886WAT      O92899   9.758   0.580   1.401
30886WAT     H192900   9.848   0.537   1.394
30886WAT     H292901   9.688   0.517   1.367
30887WAT      O92902   8.706   2.002   0.507
30887WAT     H192903   8.688   1.950   0.590
30887WAT     H292904   8.658   2.090   0.511
30888WAT      O92905   0.443   2.672   1.602
30888WAT     H192906   0.426   2.675   1.700
30888WAT     H292907   0.358   2.691   1.553
30889WAT      O92908   5.236   3.968   5.262
30889WAT     H192909   5.137   3.967   5.244
30889WAT     H292910   5.259   4.050   5.314
30890WAT      O92911   6.403   9.704   4.535
30890WAT     H192912   6.424   9.697   4.632
30890WAT     H292913   6.395   9.613   4.496
30891WAT      O92914   3.738   6.776   3.277
30891WAT     H192915   3.642   6.766   3.249
30891WAT     H292916   3.744   6.842   3.351
30892WAT      O92917   7.592   3.591   4.500
30892WAT     H192918   7.663   3.659   4.518
30892WAT     H292919   7.632   3.500   4.499
30893WAT      O92920   7.166   4.431   5.079
30893WAT     H192921   7.099   4.472   5.140
30893WAT     H292922   7.227   4.371   5.132
30894WAT      O92923   3.103   8.257   6.842
30894WAT     H192924   3.133   8.176   6.893
30894WAT     H292925   3.003   8.259   6.840
30895WAT      O92926   2.820   2.161   9.592
30895WAT     H192927   2.815   2.209   9.505
30895WAT     H292928   2.728   2.131   9.618
30896WAT      O92929   0.968   5.290   0.610
30896WAT     H192930   0.937   5.302   0.704
30896WAT     H292931   0.940   5.369   0.555
30897WAT      O92932   2.872   9.165   7.948
30897WAT     H192933   2.791   9.119   7.984
30897WAT     H292934   2.897   9.125   7.860
30898WAT      O92935   7.128   7.267   4.380
30898WAT     H192936   7.171   7.355   4.400
30898WAT     H292937   7.052   7.251   4.443
30899WAT      O92938   6.926   1.655   8.199
30899WAT     H192939   6.935   1.755   8.195
30899WAT     H292940   6.986   1.613   8.132
30900WAT      O92941   7.905   8.533   9.153
30900WAT     H192942   7.904   8.516   9.055
30900WAT     H292943   7.822   8.494   9.194
30901WAT      O92944   1.369   6.104   1.061
30901WAT     H192945   1.358   6.185   1.002
30901WAT     H292946   1.344   6.022   1.010
30902WAT      O92947   5.057   1.459   4.162
30902WAT     H192948   5.064   1.410   4.249
30902WAT     H292949   5.043   1.556   4.180
30903WAT      O92950   3.875   3.612   1.110
30903WAT     H192951   3.845   3.693   1.159
30903WAT     H292952   3.796   3.555   1.088
30904WAT      O92953   7.606   1.523   3.392
30904WAT     H192954   7.685   1.500   3.449
30904WAT     H292955   7.600   1.622   3.381
30905WAT      O92956   1.442   2.450   7.438
30905WAT     H192957   1.474   2.521   7.501
30905WAT     H292958   1.443   2.485   7.345
30906WAT      O92959   3.259   7.003   1.732
30906WAT     H192960   3.294   7.041   1.818
30906WAT     H292961   3.169   7.042   1.713
30907WAT      O92962   8.932   6.293   9.029
30907WAT     H192963   8.839   6.327   9.043
30907WAT     H292964   8.929   6.211   8.972
30908WAT      O92965   4.291   5.046   7.213
30908WAT     H192966   4.193   5.043   7.191
30908WAT     H292967   4.327   4.953   7.216
30909WAT      O92968   3.396   3.245   1.011
30909WAT     H192969   3.413   3.338   0.978
30909WAT     H292970   3.367   3.248   1.106
30910WAT      O92971   3.236   5.175   8.365
30910WAT     H192972   3.170   5.235   8.410
30910WAT     H292973   3.257   5.210   8.274
30911WAT      O92974   6.536   1.112   4.156
30911WAT     H192975   6.542   1.012   4.159
30911WAT     H292976   6.485   1.140   4.075
30912WAT      O92977   2.944   6.361   5.205
30912WAT     H192978   2.923   6.390   5.111
30912WAT     H292979   2.859   6.338   5.252
30913WAT      O92980   2.700   3.232   2.548
30913WAT     H192981   2.703   3.276   2.458
30913WAT     H292982   2.656   3.143   2.541
30914WAT      O92983   2.236   6.614   9.760
30914WAT     H192984   2.316   6.674   9.760
30914WAT     H292985   2.264   6.521   9.781
30915WAT      O92986   2.314   1.357   0.786
30915WAT     H192987   2.408   1.341   0.756
30915WAT     H292988   2.292   1.454   0.776
30916WAT      O92989   2.012   0.493   2.960
30916WAT     H192990   1.948   0.541   2.900
30916WAT     H292991   2.094   0.467   2.908
30917WAT      O92992   7.110   3.815   0.810
30917WAT     H192993   7.138   3.719   0.812
30917WAT     H292994   7.082   3.840   0.718
30918WAT      O92995   5.515   3.090   0.168
30918WAT     H192996   5.542   3.011   0.112
30918WAT     H292997   5.423   3.075   0.203
30919WAT      O92998   0.630   5.417   3.750
30919WAT     H192999   0.671   5.345   3.694
30919WAT     H293000   0.699   5.456   3.811
30920WAT      O93001   8.001   5.607   0.865
30920WAT     H193002   8.068   5.661   0.917
30920WAT     H293003   7.937   5.668   0.819
30921WAT      O93004   0.147   8.201   5.516
30921WAT     H193005   0.094   8.134   5.465
30921WAT     H293006   0.145   8.180   5.613
30922WAT      O93007   7.643   8.558   3.501
30922WAT     H193008   7.721   8.605   3.461
30922WAT     H293009   7.653   8.554   3.600
30923WAT      O93010   5.809   7.158   8.548
30923WAT     H193011   5.882   7.178   8.613
30923WAT     H293012   5.793   7.059   8.545
30924WAT      O93013   6.436   1.472   6.650
30924WAT     H193014   6.494   1.391   6.648
30924WAT     H293015   6.359   1.457   6.711
30925WAT      O93016   5.590   2.189   2.187
30925WAT     H193017   5.649   2.172   2.266
30925WAT     H293018   5.602   2.116   2.120
30926WAT      O93019   2.788   9.346   9.114
30926WAT     H193020   2.828   9.280   9.050
30926WAT     H293021   2.800   9.313   9.207
30927WAT      O93022   5.453   3.099   7.837
30927WAT     H193023   5.469   3.005   7.806
30927WAT     H293024   5.538   3.136   7.875
30928WAT      O93025   0.815   9.762   9.669
30928WAT     H193026   0.884   9.814   9.720
30928WAT     H293027   0.725   9.778   9.710
30929WAT      O93028   6.785   8.171   8.744
30929WAT     H193029   6.770   8.084   8.697
30929WAT     H293030   6.711   8.185   8.810
30930WAT      O93031   1.892   1.370   1.164
30930WAT     H193032   1.926   1.411   1.078
30930WAT     H293033   1.850   1.282   1.144
30931WAT      O93034   2.092   4.155   5.209
30931WAT     H193035   2.023   4.197   5.150
30931WAT     H293036   2.179   4.151   5.160
30932WAT      O93037   9.032   2.160   8.598
30932WAT     H193038   9.003   2.233   8.537
30932WAT     H293039   8.980   2.077   8.579
30933WAT      O93040   5.354   2.512   0.099
30933WAT     H193041   5.301   2.581   0.049
30933WAT     H293042   5.319   2.421   0.077
30934WAT      O93043   5.289   0.066   6.469
30934WAT     H193044   5.220   0.084   6.539
30934WAT     H293045   5.249   0.080   6.379
30935WAT      O93046   8.102   0.264   6.258
30935WAT     H193047   8.012   0.244   6.297
30935WAT     H293048   8.093   0.329   6.183
30936WAT      O93049   7.526   1.084   4.180
30936WAT     H193050   7.445   1.027   4.166
30936WAT     H293051   7.588   1.038   4.243
30937WAT      O93052   1.488   1.070   4.699
30937WAT     H193053   1.472   1.148   4.760
30937WAT     H293054   1.401   1.025   4.678
30938WAT      O93055   9.729   2.866   5.208
30938WAT     H193056   9.759   2.853   5.302
30938WAT     H293057   9.757   2.788   5.152
30939WAT      O93058   7.510   7.772   0.391
30939WAT     H193059   7.486   7.677   0.373
30939WAT     H293060   7.571   7.805   0.319
30940WAT      O93061   1.633   4.524   9.736
30940WAT     H193062   1.644   4.441   9.681
30940WAT     H293063   1.647   4.604   9.679
30941WAT      O93064   0.093   4.373   4.631
30941WAT     H193065   0.192   4.382   4.643
30941WAT     H293066   0.061   4.293   4.681
30942WAT      O93067   3.842   0.847   2.604
30942WAT     H193068   3.901   0.829   2.525
30942WAT     H293069   3.801   0.761   2.635
30943WAT      O93070   2.005   3.012   8.144
30943WAT     H193071   1.980   2.916   8.134
30943WAT     H293072   1.927   3.064   8.177
30944WAT      O93073   2.081   4.041   6.822
30944WAT     H193074   2.054   3.947   6.843
30944WAT     H293075   2.028   4.104   6.879
30945WAT      O93076   0.581   0.153   5.879
30945WAT     H193077   0.657   0.177   5.818
30945WAT     H293078   0.581   0.216   5.958
30946WAT      O93079   6.426   0.396   0.153
30946WAT     H193080   6.521   0.377   0.128
30946WAT     H293081   6.413   0.381   0.251
30947WAT      O93082   4.370   4.608   4.347
30947WAT     H193083   4.380   4.565   4.258
30947WAT     H293084   4.355   4.538   4.417
30948WAT      O93085   5.722   9.717   4.202
30948WAT     H193086   5.748   9.709   4.106
30948WAT     H293087   5.803   9.703   4.259
30949WAT      O93088   0.018   8.750   3.286
30949WAT     H193089  -0.062   8.704   3.323
30949WAT     H293090   0.085   8.683   3.255
30950WAT      O93091   5.826   1.151   8.276
30950WAT     H193092   5.807   1.082   8.206
30950WAT     H293093   5.820   1.242   8.235
30951WAT      O93094   4.978   9.637   3.599
30951WAT     H193095   5.012   9.546   3.621
30951WAT     H293096   4.982   9.695   3.680
30952WAT      O93097   1.784   3.718   8.922
30952WAT     H193098   1.782   3.789   8.991
30952WAT     H293099   1.864   3.731   8.863
30953WAT      O93100   8.700   1.775   6.998
30953WAT     H193101   8.633   1.780   7.073
30953WAT     H293102   8.653   1.792   6.911
30954WAT      O93103   1.000   3.576   3.484
30954WAT     H193104   1.038   3.612   3.569
30954WAT     H293105   1.066   3.590   3.409
30955WAT      O93106   1.626   6.856   2.841
30955WAT     H193107   1.653   6.943   2.800
30955WAT     H293108   1.595   6.794   2.768
30956WAT      O93109   1.299   6.814   6.611
30956WAT     H193110   1.241   6.735   6.629
30956WAT     H293111   1.350   6.799   6.526
30957WAT      O93112   5.573   8.497   5.682
30957WAT     H193113   5.610   8.489   5.589
30957WAT     H293114   5.482   8.455   5.685
30958WAT      O93115   1.923   0.617   5.632
30958WAT     H193116   1.983   0.538   5.650
30958WAT     H293117   1.900   0.620   5.535
30959WAT      O93118   1.844   6.690   7.333
30959WAT     H193119   1.829   6.744   7.416
30959WAT     H293120   1.918   6.624   7.349
30960WAT      O93121   5.212   2.653   9.817
30960WAT     H193122   5.119   2.656   9.780
30960WAT     H293123   5.278   2.669   9.744
30961WAT      O93124   7.368   0.052   0.485
30961WAT     H193125   7.387   0.148   0.506
30961WAT     H293126   7.322   0.045   0.397
30962WAT      O93127   0.266   3.908   9.172
30962WAT     H193128   0.192   3.974   9.184
30962WAT     H293129   0.237   3.819   9.206
30963WAT      O93130   7.049   7.585   8.805
30963WAT     H193131   7.010   7.676   8.795
30963WAT     H293132   7.078   7.551   8.716
30964WAT      O93133   7.162   7.477   2.191
30964WAT     H193134   7.158   7.529   2.276
30964WAT     H293135   7.125   7.385   2.206
30965WAT      O93136   4.164   2.427   3.379
30965WAT     H193137   4.064   2.429   3.378
30965WAT     H293138   4.198   2.509   3.425
30966WAT      O93139   2.756   0.972   1.862
30966WAT     H193140   2.715   0.902   1.803
30966WAT     H293141   2.685   1.035   1.893
30967WAT      O93142   6.628   2.731   6.908
30967WAT     H193143   6.696   2.723   6.836
30967WAT     H293144   6.674   2.743   6.996
30968WAT      O93145   8.244   3.793   6.898
30968WAT     H193146   8.329   3.753   6.934
30968WAT     H293147   8.165   3.744   6.936
30969WAT      O93148   2.440   5.279   4.934
30969WAT     H193149   2.382   5.200   4.955
30969WAT     H293150   2.524   5.274   4.988
30970WAT      O93151   4.049   4.063   9.661
30970WAT     H193152   4.112   4.033   9.732
30970WAT     H293153   4.007   4.150   9.687
30971WAT      O93154   6.711   0.278   1.725
30971WAT     H193155   6.785   0.282   1.793
30971WAT     H293156   6.629   0.322   1.763
30972WAT      O93157   2.413   8.784   9.342
30972WAT     H193158   2.447   8.848   9.411
30972WAT     H293159   2.491   8.742   9.295
30973WAT      O93160   8.678   7.698   2.837
30973WAT     H193161   8.766   7.651   2.834
30973WAT     H293162   8.661   7.731   2.930
30974WAT      O93163   8.490   8.732   1.670
30974WAT     H193164   8.545   8.727   1.586
30974WAT     H293165   8.520   8.810   1.725
30975WAT      O93166   0.991   7.727   9.648
30975WAT     H193167   0.939   7.643   9.659
30975WAT     H293168   1.046   7.744   9.730
30976WAT      O93169   6.137   8.486   3.531
30976WAT     H193170   6.087   8.399   3.526
30976WAT     H293171   6.232   8.468   3.558
30977WAT      O93172   3.648   3.452   1.098
30977WAT     H193173   3.619   3.435   1.192
30977WAT     H293174   3.573   3.492   1.046
30978WAT      O93175   8.411   2.987   2.308
30978WAT     H193176   8.412   2.904   2.363
30978WAT     H293177   8.492   2.989   2.249
30979WAT      O93178   8.165   0.369   1.573
30979WAT     H193179   8.108   0.408   1.501
30979WAT     H293180   8.254   0.415   1.574
30980WAT      O93181   6.758   0.038   0.138
30980WAT     H193182   6.818   0.032   0.058
30980WAT     H293183   6.671  -0.006   0.117
30981WAT      O93184   1.500   8.784   9.225
30981WAT     H193185   1.531   8.705   9.172
30981WAT     H293186   1.509   8.867   9.169
30982WAT      O93187   1.319   8.353   7.030
30982WAT     H193188   1.293   8.266   7.072
30982WAT     H293189   1.405   8.385   7.070
30983WAT      O93190   8.086   4.849   4.916
30983WAT     H193191   8.098   4.936   4.963
30983WAT     H293192   8.175   4.806   4.903
30984WAT      O93193   0.928   9.345   8.219
30984WAT     H193194   0.882   9.256   8.216
30984WAT     H293195   0.940   9.379   8.125
30985WAT      O93196   5.159   9.302   4.161
30985WAT     H193197   5.073   9.344   4.189
30985WAT     H293198   5.196   9.246   4.235
30986WAT      O93199   0.597   5.360   7.800
30986WAT     H193200   0.507   5.400   7.816
30986WAT     H293201   0.587   5.263   7.777
30987WAT      O93202   4.191   3.341   0.894
30987WAT     H193203   4.212   3.332   0.796
30987WAT     H293204   4.163   3.252   0.929
30988WAT      O93205   7.799   1.857   5.078
30988WAT     H193206   7.710   1.842   5.035
30988WAT     H293207   7.850   1.771   5.081
30989WAT      O93208   5.528   8.104   2.950
30989WAT     H193209   5.461   8.117   2.876
30989WAT     H293210   5.617   8.136   2.919
30990WAT      O93211   2.541   5.527   0.618
30990WAT     H193212   2.543   5.469   0.537
30990WAT     H293213   2.460   5.505   0.673
30991WAT      O93214   8.174   6.333   5.827
30991WAT     H193215   8.148   6.426   5.854
30991WAT     H293216   8.097   6.271   5.843
30992WAT      O93217   1.661   5.182   5.997
30992WAT     H193218   1.571   5.146   5.973
30992WAT     H293219   1.731   5.118   5.967
30993WAT      O93220   3.965   2.667   7.858
30993WAT     H193221   3.869   2.673   7.832
30993WAT     H293222   3.972   2.639   7.954
30994WAT      O93223   1.413   7.679   7.741
30994WAT     H193224   1.355   7.654   7.663
30994WAT     H293225   1.508   7.686   7.710
30995WAT      O93226   2.778   7.304   3.837
30995WAT     H193227   2.721   7.278   3.914
30995WAT     H293228   2.754   7.249   3.757
30996WAT      O93229   4.894   9.022   8.464
30996WAT     H193230   4.916   9.042   8.369
30996WAT     H293231   4.959   8.955   8.501
30997WAT      O93232   9.393   6.392   4.937
30997WAT     H193233   9.389   6.459   4.863
30997WAT     H293234   9.369   6.435   5.024
30998WAT      O93235   1.828   6.446   8.375
30998WAT     H193236   1.750   6.411   8.322
30998WAT     H293237   1.797   6.468   8.468
30999WAT      O93238   0.116   9.544   8.590
30999WAT     H193239   0.158   9.634   8.594
30999WAT     H293240   0.046   9.542   8.519
31000WAT      O93241   7.513   9.430   3.292
31000WAT     H193242   7.487   9.521   3.257
31000WAT     H293243   7.526   9.435   3.391
31001WAT      O93244   8.934   3.517   4.342
31001WAT     H193245   8.937   3.604   4.391
31001WAT     H293246   8.895   3.532   4.251
31002WAT      O93247   5.067   5.084   1.135
31002WAT     H193248   5.138   5.117   1.073
31002WAT     H293249   5.106   5.018   1.199
31003WAT      O93250   0.550   3.139   0.862
31003WAT     H193251   0.645   3.119   0.839
31003WAT     H293252   0.492   3.066   0.827
31004WAT      O93253   4.057   8.018   3.598
31004WAT     H193254   4.041   8.080   3.522
31004WAT     H293255   3.983   7.950   3.603
31005WAT      O93256   4.373   7.154   1.149
31005WAT     H193257   4.357   7.197   1.238
31005WAT     H293258   4.390   7.056   1.162
31006WAT      O93259   2.412   7.671   3.461
31006WAT     H193260   2.491   7.713   3.416
31006WAT     H293261   2.405   7.704   3.555
31007WAT      O93262   9.353   8.641   6.406
31007WAT     H193263   9.442   8.597   6.397
31007WAT     H293264   9.282   8.581   6.370
31008WAT      O93265   6.387   1.716   4.922
31008WAT     H193266   6.436   1.641   4.967
31008WAT     H293267   6.448   1.793   4.908
31009WAT      O93268   8.815   5.973   1.396
31009WAT     H193269   8.751   5.912   1.350
31009WAT     H293270   8.894   5.920   1.429
31010WAT      O93271   7.208   6.383   5.108
31010WAT     H193272   7.266   6.449   5.155
31010WAT     H293273   7.127   6.428   5.074
31011WAT      O93274   0.166   7.591   7.511
31011WAT     H193275   0.093   7.641   7.557
31011WAT     H293276   0.128   7.509   7.468
31012WAT      O93277   7.801   0.601   7.453
31012WAT     H193278   7.875   0.535   7.442
31012WAT     H293279   7.767   0.597   7.547
31013WAT      O93280   9.137   8.005   3.317
31013WAT     H193281   9.102   8.054   3.238
31013WAT     H293282   9.066   8.000   3.388
31014WAT      O93283   8.911   1.251   4.180
31014WAT     H193284   8.812   1.254   4.165
31014WAT     H293285   8.946   1.344   4.190
31015WAT      O93286   6.492   8.427   5.895
31015WAT     H193287   6.578   8.464   5.929
31015WAT     H293288   6.416   8.465   5.949
31016WAT      O93289   4.894   0.973   7.913
31016WAT     H193290   4.823   0.904   7.924
31016WAT     H293291   4.907   1.022   7.999
31017WAT      O93292   9.785   2.266   1.719
31017WAT     H193293   9.772   2.174   1.755
31017WAT     H293294   9.754   2.333   1.787
31018WAT      O93295   9.360   3.597   1.129
31018WAT     H193296   9.381   3.693   1.148
31018WAT     H293297   9.403   3.571   1.043
31019WAT      O93298   9.726   7.528   0.082
31019WAT     H193299   9.781   7.578   0.149
31019WAT     H293300   9.654   7.587   0.047
31020WAT      O93301   4.021   7.536   3.041
31020WAT     H193302   4.061   7.469   3.104
31020WAT     H293303   4.017   7.496   2.949
31021WAT      O93304   2.314   2.157   1.434
31021WAT     H193305   2.242   2.104   1.391
31021WAT     H293306   2.366   2.205   1.363
31022WAT      O93307   9.716   2.642   8.388
31022WAT     H193308   9.786   2.607   8.451
31022WAT     H293309   9.652   2.701   8.437
31023WAT      O93310   7.194   2.527   8.550
31023WAT     H193311   7.164   2.511   8.644
31023WAT     H293312   7.291   2.501   8.542
31024WAT      O93313   4.544   7.216   5.542
31024WAT     H193314   4.548   7.286   5.471
31024WAT     H293315   4.468   7.237   5.605
31025WAT      O93316   7.350   0.349   1.689
31025WAT     H193317   7.258   0.378   1.665
31025WAT     H293318   7.399   0.425   1.732
31026WAT      O93319   3.074   3.388   5.601
31026WAT     H193320   3.085   3.319   5.530
31026WAT     H293321   3.142   3.460   5.590
31027WAT      O93322   3.568   5.586   6.968
31027WAT     H193323   3.636   5.634   6.912
31027WAT     H293324   3.609   5.504   7.007
31028WAT      O93325   7.335   5.878   3.690
31028WAT     H193326   7.334   5.785   3.652
31028WAT     H293327   7.244   5.919   3.681
31029WAT      O93328   8.776   4.083   1.797
31029WAT     H193329   8.863   4.048   1.760
31029WAT     H293330   8.772   4.182   1.786
31030WAT      O93331   9.857   9.489   4.685
31030WAT     H193332   9.829   9.485   4.781
31030WAT     H293333   9.956   9.498   4.679
31031WAT      O93334   8.180   7.220   7.028
31031WAT     H193335   8.106   7.156   7.046
31031WAT     H293336   8.186   7.286   7.103
31032WAT      O93337   1.270   1.816   6.360
31032WAT     H193338   1.295   1.875   6.437
31032WAT     H293339   1.194   1.757   6.387
31033WAT      O93340   5.672   4.574   8.685
31033WAT     H193341   5.721   4.569   8.598
31033WAT     H293342   5.649   4.482   8.716
31034WAT      O93343   7.587   9.503   2.781
31034WAT     H193344   7.539   9.425   2.740
31034WAT     H293345   7.651   9.541   2.714
31035WAT      O93346   4.685   1.066   4.300
31035WAT     H193347   4.710   1.140   4.237
31035WAT     H293348   4.766   1.012   4.321
31036WAT      O93349   2.070   7.587   8.983
31036WAT     H193350   2.013   7.507   8.997
31036WAT     H293351   2.067   7.613   8.886
31037WAT      O93352   9.372   8.647   0.609
31037WAT     H193353   9.434   8.722   0.634
31037WAT     H293354   9.277   8.678   0.618
31038WAT      O93355   0.973   6.859   9.761
31038WAT     H193356   0.879   6.827   9.750
31038WAT     H293357   1.015   6.869   9.671
31039WAT      O93358   7.651   1.290   9.656
31039WAT     H193359   7.629   1.320   9.563
31039WAT     H293360   7.572   1.244   9.696
31040WAT      O93361   3.293   5.242   7.467
31040WAT     H193362   3.350   5.164   7.443
31040WAT     H293363   3.199   5.225   7.439
31041WAT      O93364   0.734   1.275   4.116
31041WAT     H193365   0.665   1.291   4.187
31041WAT     H293366   0.711   1.192   4.066
31042WAT      O93367   1.722   9.801   7.177
31042WAT     H193368   1.630   9.838   7.171
31042WAT     H293369   1.718   9.706   7.207
31043WAT      O93370   3.984   2.582   9.607
31043WAT     H193371   3.920   2.627   9.669
31043WAT     H293372   4.044   2.522   9.660
31044WAT      O93373   5.187   9.760   3.185
31044WAT     H193374   5.113   9.762   3.252
31044WAT     H293375   5.274   9.773   3.232
31045WAT      O93376   4.498   4.785   3.160
31045WAT     H193377   4.448   4.731   3.228
31045WAT     H293378   4.505   4.880   3.191
31046WAT      O93379   8.848   5.246   2.886
31046WAT     H193380   8.940   5.217   2.859
31046WAT     H293381   8.793   5.166   2.908
31047WAT      O93382   1.915   1.265   3.854
31047WAT     H193383   1.991   1.204   3.834
31047WAT     H293384   1.890   1.256   3.950
31048WAT      O93385   1.855   0.772   3.448
31048WAT     H193386   1.803   0.723   3.378
31048WAT     H293387   1.812   0.758   3.537
31049WAT      O93388   1.910   4.191   9.427
31049WAT     H193389   1.855   4.108   9.423
31049WAT     H293390   2.007   4.167   9.416
31050WAT      O93391   3.701   5.571   3.218
31050WAT     H193392   3.681   5.550   3.314
31050WAT     H293393   3.701   5.670   3.205
31051WAT      O93394   3.679   2.693   5.042
31051WAT     H193395   3.635   2.739   4.966
31051WAT     H293396   3.627   2.610   5.065
31052WAT      O93397   5.255   1.206   3.589
31052WAT     H193398   5.229   1.255   3.506
31052WAT     H293399   5.188   1.226   3.661
31053WAT      O93400   4.687   7.408   3.829
31053WAT     H193401   4.683   7.368   3.737
31053WAT     H293402   4.660   7.504   3.825
31054WAT      O93403   9.767   0.140   9.698
31054WAT     H193404   9.809   0.110   9.783
31054WAT     H293405   9.805   0.088   9.621
31055WAT      O93406   9.237   3.019   3.513
31055WAT     H193407   9.210   3.072   3.433
31055WAT     H293408   9.163   3.023   3.582
31056WAT      O93409   2.940   2.494   6.786
31056WAT     H193410   3.016   2.463   6.842
31056WAT     H293411   2.894   2.416   6.744
31057WAT      O93412   5.952   6.801   9.290
31057WAT     H193413   5.982   6.868   9.222
31057WAT     H293414   5.971   6.836   9.382
31058WAT      O93415   7.793   5.205   7.900
31058WAT     H193416   7.793   5.105   7.907
31058WAT     H293417   7.722   5.233   7.836
31059WAT      O93418   4.910   0.786   3.069
31059WAT     H193419   4.846   0.716   3.037
31059WAT     H293420   5.004   0.756   3.054
31060WAT      O93421   6.925   2.369   3.015
31060WAT     H193422   6.968   2.279   3.010
31060WAT     H293423   6.935   2.406   3.107
31061WAT      O93424   0.155   2.317   9.673
31061WAT     H193425   0.201   2.250   9.731
31061WAT     H293426   0.065   2.337   9.710
31062WAT      O93427   4.136   8.836   7.629
31062WAT     H193428   4.094   8.919   7.593
31062WAT     H293429   4.080   8.799   7.703
31063WAT      O93430   6.603   9.454   3.683
31063WAT     H193431   6.659   9.492   3.757
31063WAT     H293432   6.520   9.509   3.672
31064WAT      O93433   5.779   7.577   8.525
31064WAT     H193434   5.693   7.563   8.476
31064WAT     H293435   5.843   7.504   8.501
31065WAT      O93436   7.468   8.835   9.228
31065WAT     H193437   7.502   8.927   9.207
31065WAT     H293438   7.372   8.829   9.202
31066WAT      O93439   2.915   5.563   3.302
31066WAT     H193440   2.950   5.652   3.333
31066WAT     H293441   2.879   5.571   3.210
31067WAT      O93442   7.533   5.556   5.312
31067WAT     H193443   7.460   5.603   5.264
31067WAT     H293444   7.579   5.494   5.249
31068WAT      O93445   4.464   5.600   1.028
31068WAT     H193446   4.380   5.652   1.012
31068WAT     H293447   4.493   5.558   0.942
31069WAT      O93448   4.527   3.718   3.756
31069WAT     H193449   4.585   3.798   3.750
31069WAT     H293450   4.507   3.697   3.852
31070WAT      O93451   2.282   4.470   4.654
31070WAT     H193452   2.320   4.499   4.566
31070WAT     H293453   2.350   4.482   4.726
31071WAT      O93454   5.488   1.913   7.924
31071WAT     H193455   5.470   1.993   7.981
31071WAT     H293456   5.551   1.851   7.971
31072WAT      O93457   3.182   9.151   5.665
31072WAT     H193458   3.273   9.113   5.679
31072WAT     H293459   3.175   9.189   5.573
31073WAT      O93460   4.280   4.258   2.549
31073WAT     H193461   4.324   4.230   2.464
31073WAT     H293462   4.281   4.358   2.556
31074WAT      O93463   7.431   7.510   0.348
31074WAT     H193464   7.369   7.469   0.416
31074WAT     H293465   7.479   7.437   0.299
31075WAT      O93466   5.002   8.734   8.110
31075WAT     H193467   4.921   8.791   8.120
31075WAT     H293468   4.992   8.652   8.166
31076WAT      O93469   9.153   9.795   6.499
31076WAT     H193470   9.202   9.724   6.549
31076WAT     H293471   9.122   9.758   6.411
31077WAT      O93472   7.667   8.823   8.193
31077WAT     H193473   7.708   8.732   8.201
31077WAT     H293474   7.627   8.834   8.102
31078WAT      O93475   1.810   9.836   9.030
31078WAT     H193476   1.871   9.757   9.032
31078WAT     H293477   1.863   9.920   9.019
31079WAT      O93478   2.800   2.710   7.979
31079WAT     H193479   2.806   2.690   7.881
31079WAT     H293480   2.762   2.802   7.992
31080WAT      O93481   9.337   2.300   7.701
31080WAT     H193482   9.277   2.221   7.688
31080WAT     H293483   9.295   2.363   7.766
31081WAT      O93484   0.132   5.580   3.028
31081WAT     H193485   0.217   5.623   2.997
31081WAT     H293486   0.085   5.641   3.092
31082WAT      O93487   4.664   1.761   8.572
31082WAT     H193488   4.618   1.674   8.590
31082WAT     H293489   4.737   1.775   8.639
31083WAT      O93490   5.201   6.082   5.047
31083WAT     H193491   5.184   6.130   5.133
31083WAT     H293492   5.294   6.047   5.046
31084WAT      O93493   6.694   2.408   0.571
31084WAT     H193494   6.599   2.437   0.583
31084WAT     H293495   6.699   2.337   0.501
31085WAT      O93496   7.832   8.626   9.856
31085WAT     H193497   7.845   8.724   9.865
31085WAT     H293498   7.873   8.595   9.770
31086WAT      O93499   9.011   6.901   1.219
31086WAT     H193500   9.026   6.864   1.127
31086WAT     H293501   8.915   6.929   1.227
31087WAT      O93502   9.470   5.505   4.523
31087WAT     H193503   9.462   5.578   4.590
31087WAT     H293504   9.485   5.544   4.432
31088WAT      O93505   5.794   6.157   6.579
31088WAT     H193506   5.739   6.145   6.497
31088WAT     H293507   5.776   6.083   6.643
31089WAT      O93508   8.764   0.392   2.663
31089WAT     H193509   8.677   0.424   2.627
31089WAT     H293510   8.833   0.394   2.590
31090WAT      O93511   5.035   0.547   2.859
31090WAT     H193512   5.086   0.559   2.944
31090WAT     H293513   5.032   0.634   2.809
31091WAT      O93514   0.146   6.958   7.579
31091WAT     H193515   0.163   6.897   7.656
31091WAT     H293516   0.225   6.955   7.517
31092WAT      O93517   7.393   4.205   4.968
31092WAT     H193518   7.367   4.198   5.065
31092WAT     H293519   7.367   4.121   4.921
31093WAT      O93520   8.486   6.635   7.076
31093WAT     H193521   8.556   6.632   7.006
31093WAT     H293522   8.517   6.691   7.153
31094WAT      O93523   7.041   5.833   3.681
31094WAT     H193524   6.969   5.769   3.653
31094WAT     H293525   7.029   5.856   3.778
31095WAT      O93526   3.982   2.906   1.185
31095WAT     H193527   4.046   2.982   1.170
31095WAT     H293528   4.034   2.821   1.194
31096WAT      O93529   3.506   9.050   3.632
31096WAT     H193530   3.481   9.036   3.536
31096WAT     H293531   3.474   9.140   3.661
31097WAT      O93532   2.084   4.217   8.484
31097WAT     H193533   2.138   4.298   8.461
31097WAT     H293534   2.050   4.225   8.578
31098WAT      O93535   5.691   1.012   1.079
31098WAT     H193536   5.704   1.063   0.993
31098WAT     H293537   5.609   1.046   1.125
31099WAT      O93538   5.309   4.025   7.548
31099WAT     H193539   5.227   3.984   7.587
31099WAT     H293540   5.289   4.059   7.457
31100WAT      O93541   7.820   4.744   3.691
31100WAT     H193542   7.907   4.714   3.731
31100WAT     H293543   7.830   4.837   3.656
31101WAT      O93544   6.621   7.000   6.175
31101WAT     H193545   6.649   7.074   6.114
31101WAT     H293546   6.689   6.988   6.247
31102WAT      O93547   8.372   5.880   8.464
31102WAT     H193548   8.278   5.856   8.487
31102WAT     H293549   8.433   5.859   8.540
31103WAT      O93550   5.291   7.840   7.213
31103WAT     H193551   5.307   7.797   7.124
31103WAT     H293552   5.269   7.937   7.199
31104WAT      O93553   5.903   1.874   4.510
31104WAT     H193554   5.851   1.958   4.496
31104WAT     H293555   5.892   1.845   4.605
31105WAT      O93556   8.498   1.924   0.301
31105WAT     H193557   8.412   1.875   0.293
31105WAT     H293558   8.573   1.859   0.316
31106WAT      O93559   7.941   0.721   6.453
31106WAT     H193560   7.941   0.808   6.503
31106WAT     H293561   7.865   0.720   6.388
31107WAT      O93562   4.927   1.409   3.505
31107WAT     H193563   4.861   1.364   3.444
31107WAT     H293564   5.011   1.429   3.454
31108WAT      O93565   2.043   6.122   6.534
31108WAT     H193566   2.095   6.120   6.620
31108WAT     H293567   2.002   6.032   6.518
31109WAT      O93568   6.668   2.755   2.996
31109WAT     H193569   6.625   2.715   3.077
31109WAT     H293570   6.737   2.692   2.960
31110WAT      O93571   4.669   6.900   8.843
31110WAT     H193572   4.696   6.847   8.763
31110WAT     H293573   4.733   6.976   8.855
31111WAT      O93574   4.208   4.075   1.422
31111WAT     H193575   4.303   4.098   1.441
31111WAT     H293576   4.148   4.147   1.455
31112WAT      O93577   6.527   4.041   2.195
31112WAT     H193578   6.440   4.083   2.170
31112WAT     H293579   6.519   3.942   2.189
31113WAT      O93580   0.299   1.967   0.526
31113WAT     H193581   0.332   1.873   0.534
31113WAT     H293582   0.279   1.987   0.430
31114WAT      O93583   9.775   1.539   7.180
31114WAT     H193584   9.693   1.488   7.154
31114WAT     H293585   9.750   1.612   7.244
31115WAT      O93586   3.126   7.995   8.000
31115WAT     H193587   3.042   7.941   8.008
31115WAT     H293588   3.171   7.975   7.913
31116WAT      O93589   5.048   1.858   7.464
31116WAT     H193590   4.971   1.879   7.403
31116WAT     H293591   5.038   1.765   7.499
31117WAT      O93592   2.502   5.715   5.653
31117WAT     H193593   2.507   5.738   5.556
31117WAT     H293594   2.564   5.774   5.705
31118WAT      O93595   2.577   6.572   8.858
31118WAT     H193596   2.603   6.612   8.770
31118WAT     H293597   2.535   6.642   8.915
31119WAT      O93598   3.805   3.600   0.764
31119WAT     H193599   3.880   3.574   0.825
31119WAT     H293600   3.776   3.694   0.786
31120WAT      O93601   0.808   3.678   1.384
31120WAT     H193602   0.835   3.748   1.319
31120WAT     H293603   0.879   3.670   1.455
31121WAT      O93604   1.008   6.029   7.040
31121WAT     H193605   0.920   5.997   7.076
31121WAT     H293606   1.049   6.092   7.106
31122WAT      O93607   4.128   9.420   7.348
31122WAT     H193608   4.221   9.384   7.354
31122WAT     H293609   4.119   9.499   7.409
31123WAT      O93610   4.229   3.964   9.874
31123WAT     H193611   4.203   3.927   9.963
31123WAT     H293612   4.281   4.049   9.888
31124WAT      O93613   7.788   5.817   6.809
31124WAT     H193614   7.827   5.897   6.855
31124WAT     H293615   7.765   5.840   6.715
31125WAT      O93616   1.357   7.094   6.664
31125WAT     H193617   1.444   7.102   6.616
31125WAT     H293618   1.315   7.006   6.642
31126WAT      O93619   4.807   1.195   2.719
31126WAT     H193620   4.758   1.115   2.685
31126WAT     H293621   4.879   1.166   2.782
31127WAT      O93622   1.315   0.826   5.634
31127WAT     H193623   1.270   0.912   5.609
31127WAT     H293624   1.293   0.804   5.729
31128WAT      O93625   1.588   1.346   5.216
31128WAT     H193626   1.677   1.309   5.240
31128WAT     H293627   1.582   1.358   5.117
31129WAT      O93628   7.294   0.940   4.172
31129WAT     H193629   7.220   0.955   4.238
31129WAT     H293630   7.279   0.853   4.125
31130WAT      O93631   0.470   0.241   7.091
31130WAT     H193632   0.406   0.247   7.015
31130WAT     H293633   0.491   0.333   7.124
31131WAT      O93634   8.662   4.322   8.974
31131WAT     H193635   8.583   4.341   9.032
31131WAT     H293636   8.728   4.396   8.982
31132WAT      O93637   7.376   0.150   6.834
31132WAT     H193638   7.399   0.247   6.823
31132WAT     H293639   7.451   0.103   6.880
31133WAT      O93640   9.443   3.045   9.669
31133WAT     H193641   9.392   3.131   9.667
31133WAT     H293642   9.541   3.064   9.662
31134WAT      O93643   3.201   5.067   0.073
31134WAT     H193644   3.169   4.989   0.127
31134WAT     H293645   3.131   5.139   0.076
31135WAT      O93646   5.696   8.315   2.315
31135WAT     H193647   5.597   8.327   2.310
31135WAT     H293648   5.740   8.402   2.337
31136WAT      O93649   9.698   8.070   3.781
31136WAT     H193650   9.623   8.031   3.728
31136WAT     H293651   9.669   8.083   3.876
31137WAT      O93652   4.325   2.445   7.653
31137WAT     H193653   4.417   2.483   7.639
31137WAT     H293654   4.321   2.353   7.614
31138WAT      O93655   6.931   7.190   4.540
31138WAT     H193656   6.887   7.220   4.625
31138WAT     H293657   6.875   7.120   4.497
31139WAT      O93658   3.731   4.598   4.790
31139WAT     H193659   3.670   4.674   4.769
31139WAT     H293660   3.738   4.538   4.710
31140WAT      O93661   0.396   1.601   6.989
31140WAT     H193662   0.463   1.608   6.915
31140WAT     H293663   0.426   1.532   7.054
31141WAT      O93664   0.535   0.337   8.352
31141WAT     H193665   0.455   0.294   8.312
31141WAT     H293666   0.606   0.347   8.283
31142WAT      O93667   8.420   4.950   1.041
31142WAT     H193668   8.447   5.046   1.045
31142WAT     H293669   8.483   4.900   0.982
31143WAT      O93670   1.661   2.751   2.096
31143WAT     H193671   1.593   2.700   2.148
31143WAT     H293672   1.740   2.772   2.154
31144WAT      O93673   7.575   7.376   5.059
31144WAT     H193674   7.559   7.309   5.131
31144WAT     H293675   7.669   7.367   5.025
31145WAT      O93676   2.990   9.113   7.015
31145WAT     H193677   3.020   9.188   7.074
31145WAT     H293678   3.040   9.030   7.040
31146WAT      O93679   0.389   6.236   0.739
31146WAT     H193680   0.382   6.333   0.763
31146WAT     H293681   0.311   6.187   0.776
31147WAT      O93682   9.782   6.124   3.923
31147WAT     H193683   9.687   6.095   3.912
31147WAT     H293684   9.785   6.213   3.967
31148WAT      O93685   3.662   4.789   3.390
31148WAT     H193686   3.662   4.889   3.389
31148WAT     H293687   3.668   4.757   3.484
31149WAT      O93688   7.405   5.832   6.073
31149WAT     H193689   7.408   5.833   5.973
31149WAT     H293690   7.487   5.787   6.108
31150WAT      O93691   5.015   0.794   5.923
31150WAT     H193692   4.952   0.759   5.854
31150WAT     H293693   5.107   0.802   5.884
31151WAT      O93694   6.443   7.964   6.466
31151WAT     H193695   6.352   7.998   6.445
31151WAT     H293696   6.465   7.982   6.562
31152WAT      O93697   5.937   5.717   2.213
31152WAT     H193698   5.885   5.639   2.178
31152WAT     H293699   5.935   5.717   2.313
31153WAT      O93700   5.016   4.634   8.322
31153WAT     H193701   4.940   4.683   8.281
31153WAT     H293702   4.981   4.559   8.379
31154WAT      O93703   2.208   7.760   3.267
31154WAT     H193704   2.217   7.832   3.198
31154WAT     H293705   2.298   7.724   3.291
31155WAT      O93706   1.793   6.908   4.455
31155WAT     H193707   1.810   6.836   4.388
31155WAT     H293708   1.742   6.871   4.533
31156WAT      O93709   9.176   7.842   4.531
31156WAT     H193710   9.257   7.789   4.506
31156WAT     H293711   9.120   7.789   4.595
31157WAT      O93712   8.158   5.309   8.647
31157WAT     H193713   8.107   5.224   8.662
31157WAT     H293714   8.179   5.351   8.735
31158WAT      O93715   8.505   1.386   2.248
31158WAT     H193716   8.438   1.461   2.252
31158WAT     H293717   8.556   1.384   2.334
31159WAT      O93718   9.343   5.108   2.771
31159WAT     H193719   9.405   5.045   2.818
31159WAT     H293720   9.354   5.100   2.672
31160WAT      O93721   6.161   2.518   6.841
31160WAT     H193722   6.095   2.507   6.916
31160WAT     H293723   6.186   2.614   6.833
31161WAT      O93724   8.624   9.675   1.249
31161WAT     H193725   8.706   9.678   1.192
31161WAT     H293726   8.542   9.682   1.192
31162WAT      O93727   8.542   7.687   3.451
31162WAT     H193728   8.552   7.782   3.421
31162WAT     H293729   8.576   7.678   3.545
31163WAT      O93730   2.871   1.111   2.116
31163WAT     H193731   2.839   1.087   2.025
31163WAT     H293732   2.933   1.040   2.150
31164WAT      O93733   4.827   3.014   0.344
31164WAT     H193734   4.889   3.019   0.265
31164WAT     H293735   4.767   3.094   0.345
31165WAT      O93736   1.085   3.815   4.788
31165WAT     H193737   0.994   3.834   4.751
31165WAT     H293738   1.116   3.726   4.756
31166WAT      O93739   9.425   4.438   6.472
31166WAT     H193740   9.394   4.371   6.539
31166WAT     H293741   9.503   4.400   6.421
31167WAT      O93742   1.748   5.299   4.106
31167WAT     H193743   1.701   5.255   4.030
31167WAT     H293744   1.846   5.305   4.087
31168WAT      O93745   4.470   6.994   4.255
31168WAT     H193746   4.388   7.033   4.214
31168WAT     H293747   4.495   6.910   4.207
31169WAT      O93748   0.806   9.629   2.734
31169WAT     H193749   0.890   9.575   2.737
31169WAT     H293750   0.778   9.652   2.827
31170WAT      O93751   3.949   0.499   2.504
31170WAT     H193752   3.888   0.538   2.435
31170WAT     H293753   4.044   0.509   2.474
31171WAT      O93754   3.997   7.750   4.397
31171WAT     H193755   4.087   7.791   4.388
31171WAT     H293756   3.974   7.742   4.495
31172WAT      O93757   4.326   4.726   1.875
31172WAT     H193758   4.380   4.681   1.947
31172WAT     H293759   4.243   4.672   1.857
31173WAT      O93760   5.800   7.625   5.481
31173WAT     H193761   5.798   7.691   5.406
31173WAT     H293762   5.717   7.570   5.480
31174WAT      O93763   0.082   4.132   2.858
31174WAT     H193764   0.066   4.073   2.779
31174WAT     H293765   0.174   4.116   2.894
31175WAT      O93766   8.990   2.469   1.156
31175WAT     H193767   9.006   2.537   1.227
31175WAT     H293768   8.898   2.481   1.118
31176WAT      O93769   5.009   0.507   1.522
31176WAT     H193770   4.985   0.553   1.436
31176WAT     H293771   5.011   0.409   1.507
31177WAT      O93772   6.280   9.133   6.101
31177WAT     H193773   6.374   9.163   6.115
31177WAT     H293774   6.219   9.212   6.106
31178WAT      O93775   4.102   8.267   8.116
31178WAT     H193776   4.138   8.196   8.177
31178WAT     H293777   4.053   8.335   8.170
31179WAT      O93778   1.664   3.615   9.817
31179WAT     H193779   1.621   3.545   9.875
31179WAT     H293780   1.710   3.682   9.875
31180WAT      O93781   9.178   3.503   1.558
31180WAT     H193782   9.251   3.569   1.540
31180WAT     H293783   9.125   3.490   1.474
31181WAT      O93784   8.708   8.438   1.692
31181WAT     H193785   8.756   8.484   1.767
31181WAT     H293786   8.629   8.389   1.728
31182WAT      O93787   4.415   1.821   6.192
31182WAT     H193788   4.385   1.765   6.268
31182WAT     H293789   4.338   1.841   6.132
31183WAT      O93790   7.799   4.930   4.551
31183WAT     H193791   7.845   4.884   4.476
31183WAT     H293792   7.710   4.964   4.521
31184WAT      O93793   2.620   6.416   9.275
31184WAT     H193794   2.684   6.493   9.275
31184WAT     H293795   2.526   6.451   9.272
31185WAT      O93796   6.169   4.469   4.582
31185WAT     H193797   6.098   4.474   4.511
31185WAT     H293798   6.228   4.390   4.564
31186WAT      O93799   5.846   9.241   2.378
31186WAT     H193800   5.908   9.315   2.404
31186WAT     H293801   5.754   9.279   2.361
31187WAT      O93802   8.396   0.307   2.556
31187WAT     H193803   8.423   0.221   2.512
31187WAT     H293804   8.357   0.288   2.646
31188WAT      O93805   9.583   9.280   3.183
31188WAT     H193806   9.540   9.370   3.182
31188WAT     H293807   9.598   9.250   3.089
31189WAT      O93808   6.609   7.459   8.699
31189WAT     H193809   6.661   7.375   8.714
31189WAT     H293810   6.553   7.479   8.779
31190WAT      O93811   1.089   3.394   7.188
31190WAT     H193812   1.182   3.358   7.177
31190WAT     H293813   1.058   3.380   7.282
31191WAT      O93814   9.875   4.355   0.042
31191WAT     H193815   9.918   4.326   0.128
31191WAT     H293816   9.796   4.298   0.023
31192WAT      O93817   1.181   3.596   4.671
31192WAT     H193818   1.125   3.538   4.612
31192WAT     H293819   1.277   3.576   4.656
31193WAT      O93820   6.817   1.109   0.728
31193WAT     H193821   6.898   1.158   0.760
31193WAT     H293822   6.818   1.016   0.764
31194WAT      O93823   4.504   4.915   8.186
31194WAT     H193824   4.547   4.897   8.274
31194WAT     H293825   4.571   4.901   8.113
31195WAT      O93826   3.466   8.009   6.411
31195WAT     H193827   3.477   8.013   6.510
31195WAT     H293828   3.507   7.926   6.375
31196WAT      O93829   0.423   9.332   7.357
31196WAT     H193830   0.436   9.401   7.428
31196WAT     H293831   0.409   9.242   7.400
31197WAT      O93832   5.266   2.023   3.103
31197WAT     H193833   5.201   1.948   3.094
31197WAT     H293834   5.359   1.987   3.105
31198WAT      O93835   5.707   8.154   5.561
31198WAT     H193836   5.608   8.160   5.578
31198WAT     H293837   5.756   8.203   5.633
31199WAT      O93838   2.801   9.562   4.607
31199WAT     H193839   2.833   9.657   4.599
31199WAT     H293840   2.811   9.517   4.519
31200WAT      O93841   9.673   4.988   0.665
31200WAT     H193842   9.669   5.014   0.569
31200WAT     H293843   9.631   5.061   0.720
31201WAT      O93844   8.968   9.626   3.358
31201WAT     H193845   8.983   9.605   3.455
31201WAT     H293846   8.951   9.541   3.308
31202WAT      O93847   8.872   8.105   1.901
31202WAT     H193848   8.800   8.132   1.837
31202WAT     H293849   8.900   8.184   1.955
31203WAT      O93850   8.314   5.382   4.304
31203WAT     H193851   8.218   5.407   4.286
31203WAT     H293852   8.323   5.349   4.397
31204WAT      O93853   8.567   7.698   6.221
31204WAT     H193854   8.512   7.780   6.236
31204WAT     H293855   8.509   7.617   6.227
31205WAT      O93856   0.309   8.068   0.837
31205WAT     H193857   0.355   8.156   0.830
31205WAT     H293858   0.376   7.995   0.853
31206WAT      O93859   1.008   7.358   7.151
31206WAT     H193860   1.027   7.320   7.061
31206WAT     H293861   1.091   7.358   7.206
31207WAT      O93862   2.714   6.901   7.256
31207WAT     H193863   2.665   6.907   7.343
31207WAT     H293864   2.810   6.878   7.273
31208WAT      O93865   0.894   7.837   4.354
31208WAT     H193866   0.925   7.886   4.273
31208WAT     H293867   0.795   7.844   4.363
31209WAT      O93868   1.058   1.315   9.245
31209WAT     H193869   1.097   1.377   9.177
31209WAT     H293870   1.004   1.368   9.311
31210WAT      O93871   2.053   2.174   8.000
31210WAT     H193872   2.110   2.244   8.045
31210WAT     H293873   2.015   2.212   7.916
31211WAT      O93874   1.064   7.363   2.509
31211WAT     H193875   1.104   7.335   2.422
31211WAT     H293876   1.137   7.391   2.572
31212WAT      O93877   3.226   3.838   3.792
31212WAT     H193878   3.309   3.852   3.846
31212WAT     H293879   3.229   3.747   3.749
31213WAT      O93880   8.607   2.939   1.331
31213WAT     H193881   8.634   2.954   1.236
31213WAT     H293882   8.572   3.024   1.370
31214WAT      O93883   8.950   3.316   5.036
31214WAT     H193884   8.971   3.271   4.949
31214WAT     H293885   9.033   3.324   5.091
31215WAT      O93886   1.473   6.893   5.589
31215WAT     H193887   1.447   6.798   5.602
31215WAT     H293888   1.546   6.918   5.652
31216WAT      O93889   4.602   0.884   4.615
31216WAT     H193890   4.593   0.937   4.531
31216WAT     H293891   4.644   0.796   4.594
31217WAT      O93892   8.764   6.072   3.581
31217WAT     H193893   8.849   6.125   3.572
31217WAT     H293894   8.770   6.014   3.662
31218WAT      O93895   5.104   6.492   0.986
31218WAT     H193896   5.152   6.578   1.002
31218WAT     H293897   5.170   6.417   0.979
31219WAT      O93898   8.625   4.714   3.988
31219WAT     H193899   8.662   4.787   3.930
31219WAT     H293900   8.584   4.755   4.070
31220WAT      O93901   9.062   3.539   1.300
31220WAT     H193902   8.964   3.531   1.282
31220WAT     H293903   9.113   3.496   1.225
31221WAT      O93904   7.911   2.551   7.956
31221WAT     H193905   7.899   2.533   7.858
31221WAT     H293906   7.893   2.466   8.007
31222WAT      O93907   9.426   0.222   7.127
31222WAT     H193908   9.440   0.127   7.099
31222WAT     H293909   9.383   0.273   7.052
31223WAT      O93910   3.580   2.682   9.127
31223WAT     H193911   3.595   2.779   9.147
31223WAT     H293912   3.610   2.662   9.034
31224WAT      O93913   1.644   7.885   7.509
31224WAT     H193914   1.705   7.909   7.433
31224WAT     H293915   1.649   7.786   7.525
31225WAT      O93916   1.444   2.332   8.067
31225WAT     H193917   1.392   2.392   8.006
31225WAT     H293918   1.533   2.373   8.086
31226WAT      O93919   5.575   5.861   5.772
31226WAT     H193920   5.612   5.784   5.719
31226WAT     H293921   5.492   5.831   5.819
31227WAT      O93922   3.714   4.944   1.295
31227WAT     H193923   3.631   4.904   1.256
31227WAT     H293924   3.739   4.893   1.378
31228WAT      O93925   5.850   2.608   9.676
31228WAT     H193926   5.885   2.689   9.629
31228WAT     H293927   5.858   2.529   9.616
31229WAT      O93928   9.430   6.792   2.983
31229WAT     H193929   9.444   6.827   2.890
31229WAT     H293930   9.515   6.801   3.035
31230WAT      O93931   1.156   6.003   4.060
31230WAT     H193932   1.214   6.082   4.041
31230WAT     H293933   1.185   5.961   4.146
31231WAT      O93934   2.326   2.649   8.720
31231WAT     H193935   2.243   2.613   8.763
31231WAT     H293936   2.376   2.575   8.676
31232WAT      O93937   8.337   6.731   5.255
31232WAT     H193938   8.265   6.800   5.269
31232WAT     H293939   8.310   6.646   5.299
31233WAT      O93940   3.829   0.945   6.696
31233WAT     H193941   3.920   0.910   6.718
31233WAT     H293942   3.767   0.930   6.773
31234WAT      O93943   4.598   3.285   9.320
31234WAT     H193944   4.679   3.309   9.267
31234WAT     H293945   4.612   3.312   9.415
31235WAT      O93946   1.735   7.529   6.149
31235WAT     H193947   1.828   7.500   6.127
31235WAT     H293948   1.723   7.531   6.248
31236WAT      O93949   0.651   5.368   6.007
31236WAT     H193950   0.565   5.418   5.994
31236WAT     H293951   0.678   5.370   6.103
31237WAT      O93952   5.239   1.290   5.151
31237WAT     H193953   5.308   1.217   5.150
31237WAT     H293954   5.219   1.319   5.058
31238WAT      O93955   5.635   5.804   1.078
31238WAT     H193956   5.614   5.857   0.996
31238WAT     H293957   5.681   5.719   1.053
31239WAT      O93958   8.483   1.003   6.124
31239WAT     H193959   8.390   1.042   6.125
31239WAT     H293960   8.478   0.904   6.118
31240WAT      O93961   2.128   1.896   7.165
31240WAT     H193962   2.185   1.966   7.122
31240WAT     H293963   2.167   1.871   7.254
31241WAT      O93964   7.852   7.252   5.687
31241WAT     H193965   7.882   7.307   5.609
31241WAT     H293966   7.913   7.173   5.698
31242WAT      O93967   6.286   7.666   7.465
31242WAT     H193968   6.348   7.744   7.479
31242WAT     H293969   6.200   7.683   7.513
31243WAT      O93970   3.429   8.770   1.774
31243WAT     H193971   3.465   8.733   1.860
31243WAT     H293972   3.498   8.762   1.702
31244WAT      O93973   6.396   4.732   9.052
31244WAT     H193974   6.478   4.767   9.096
31244WAT     H293975   6.379   4.639   9.083
31245WAT      O93976   3.498   2.988   0.918
31245WAT     H193977   3.560   2.978   0.995
31245WAT     H293978   3.458   3.079   0.918
31246WAT      O93979   4.071   0.241   8.469
31246WAT     H193980   4.000   0.309   8.489
31246WAT     H293981   4.137   0.239   8.544
31247WAT      O93982   4.928   4.134   4.687
31247WAT     H193983   5.001   4.158   4.751
31247WAT     H293984   4.964   4.076   4.614
31248WAT      O93985   0.509   6.194   6.307
31248WAT     H193986   0.525   6.230   6.399
31248WAT     H293987   0.541   6.261   6.240
31249WAT      O93988   1.278   9.702   8.558
31249WAT     H193989   1.334   9.759   8.618
31249WAT     H293990   1.191   9.747   8.539
31250WAT      O93991   9.192   1.245   6.418
31250WAT     H193992   9.189   1.146   6.406
31250WAT     H293993   9.258   1.284   6.354
31251WAT      O93994   0.746   7.421   1.283
31251WAT     H193995   0.653   7.420   1.247
31251WAT     H293996   0.810   7.400   1.210
31252WAT      O93997   6.251   9.823   1.345
31252WAT     H193998   6.176   9.838   1.409
31252WAT     H293999   6.329   9.880   1.370
31253WAT      O94000   7.084   9.370   8.613
31253WAT     H194001   7.037   9.457   8.599
31253WAT     H294002   7.092   9.351   8.711
31254WAT      O94003   4.556   8.833   0.442
31254WAT     H194004   4.631   8.867   0.498
31254WAT     H294005   4.502   8.766   0.495
31255WAT      O94006   5.546   7.692   8.876
31255WAT     H194007   5.486   7.614   8.893
31255WAT     H294008   5.611   7.701   8.951
31256WAT      O94009   2.917   8.361   8.892
31256WAT     H194010   2.952   8.320   8.808
31256WAT     H294011   2.833   8.315   8.919
31257WAT      O94012   1.021   5.564   4.954
31257WAT     H194013   1.110   5.520   4.968
31257WAT     H294014   1.026   5.626   4.875
31258WAT      O94015   2.093   8.352   9.242
31258WAT     H194016   2.104   8.256   9.268
31258WAT     H294017   2.139   8.411   9.308
31259WAT      O94018   8.295   5.627   4.679
31259WAT     H194019   8.361   5.682   4.730
31259WAT     H294020   8.332   5.535   4.665
31260WAT      O94021   3.766   9.009   9.687
31260WAT     H194022   3.684   9.043   9.733
31260WAT     H294023   3.776   8.911   9.707
31261WAT      O94024   6.423   8.886   5.118
31261WAT     H194025   6.516   8.918   5.138
31261WAT     H294026   6.427   8.809   5.054
31262WAT      O94027   8.064   8.032   3.417
31262WAT     H194028   8.124   7.971   3.365
31262WAT     H294029   8.082   8.020   3.515
31263WAT      O94030   7.429   0.995   1.354
31263WAT     H194031   7.390   1.050   1.280
31263WAT     H294032   7.360   0.982   1.425
31264WAT      O94033   6.386   5.506   8.335
31264WAT     H194034   6.314   5.551   8.388
31264WAT     H294035   6.456   5.573   8.311
31265WAT      O94036   9.119   2.294   9.493
31265WAT     H194037   9.023   2.318   9.503
31265WAT     H294038   9.165   2.361   9.434
31266WAT      O94039   1.747   3.864   2.544
31266WAT     H194040   1.802   3.828   2.469
31266WAT     H294041   1.750   3.964   2.543
31267WAT      O94042   4.956   0.046   7.642
31267WAT     H194043   4.887   0.082   7.705
31267WAT     H294044   4.914   0.032   7.552
31268WAT      O94045   2.488   6.742   0.776
31268WAT     H194046   2.500   6.753   0.677
31268WAT     H294047   2.497   6.831   0.820
31269WAT      O94048   0.042   1.632   9.147
31269WAT     H194049  -0.050   1.661   9.176
31269WAT     H294050   0.049   1.636   9.048
31270WAT      O94051   4.548   2.892   5.285
31270WAT     H194052   4.502   2.927   5.367
31270WAT     H294053   4.640   2.861   5.309
31271WAT      O94054   8.798   0.246   1.562
31271WAT     H194055   8.843   0.200   1.638
31271WAT     H294056   8.788   0.183   1.485
31272WAT      O94057   4.059   8.800   0.416
31272WAT     H194058   4.095   8.894   0.420
31272WAT     H294059   3.959   8.803   0.417
31273WAT      O94060   1.965   0.765   0.674
31273WAT     H194061   1.895   0.819   0.721
31273WAT     H294062   1.920   0.698   0.615
31274WAT      O94063   7.603   9.489   9.406
31274WAT     H194064   7.512   9.461   9.376
31274WAT     H294065   7.623   9.581   9.374
31275WAT      O94066   1.074   8.025   3.625
31275WAT     H194067   1.051   7.964   3.550
31275WAT     H294068   1.162   8.069   3.607
31276WAT      O94069   9.858   5.903   5.731
31276WAT     H194070   9.848   5.979   5.667
31276WAT     H294071   9.857   5.816   5.681
31277WAT      O94072   2.159   0.215   1.914
31277WAT     H194073   2.170   0.130   1.965
31277WAT     H294074   2.215   0.212   1.831
31278WAT      O94075   5.965   1.942   4.036
31278WAT     H194076   5.935   1.870   4.098
31278WAT     H294077   6.029   2.002   4.083
31279WAT      O94078   5.478   7.542   3.288
31279WAT     H194079   5.509   7.570   3.197
31279WAT     H294080   5.425   7.457   3.279
31280WAT      O94081   1.637   8.540   5.953
31280WAT     H194082   1.578   8.621   5.953
31280WAT     H294083   1.597   8.469   5.895
31281WAT      O94084   3.138   3.260   7.687
31281WAT     H194085   3.148   3.264   7.588
31281WAT     H294086   3.146   3.353   7.725
31282WAT      O94087   5.828   6.859   7.316
31282WAT     H194088   5.828   6.815   7.227
31282WAT     H294089   5.834   6.958   7.305
31283WAT      O94090   8.024   1.633   7.565
31283WAT     H194091   8.031   1.595   7.658
31283WAT     H294092   8.111   1.673   7.538
31284WAT      O94093   3.386   4.497   4.348
31284WAT     H194094   3.310   4.543   4.393
31284WAT     H294095   3.470   4.552   4.358
31285WAT      O94096   4.836   2.874   1.094
31285WAT     H194097   4.903   2.949   1.090
31285WAT     H294098   4.855   2.809   1.020
31286WAT      O94099   5.915   5.023   8.005
31286WAT     H194100   5.902   5.078   7.922
31286WAT     H294101   5.833   4.969   8.022
31287WAT      O94102   2.014   0.020   4.568
31287WAT     H194103   2.007  -0.039   4.648
31287WAT     H294104   2.109   0.052   4.559
31288WAT      O94105   6.455   8.723   4.890
31288WAT     H194106   6.436   8.630   4.859
31288WAT     H294107   6.536   8.758   4.844
31289WAT      O94108   6.459   8.866   7.921
31289WAT     H194109   6.452   8.855   7.822
31289WAT     H294110   6.393   8.806   7.966
31290WAT      O94111   5.312   4.891   5.636
31290WAT     H194112   5.266   4.802   5.638
31290WAT     H294113   5.405   4.879   5.600
31291WAT      O94114   5.412   1.060   0.229
31291WAT     H194115   5.393   1.009   0.145
31291WAT     H294116   5.337   1.123   0.247
31292WAT      O94117   3.232   5.391   4.860
31292WAT     H194118   3.246   5.484   4.894
31292WAT     H294119   3.150   5.388   4.804
31293WAT      O94120   7.171   9.526   5.061
31293WAT     H194121   7.242   9.498   4.996
31293WAT     H294122   7.196   9.612   5.104
31294WAT      O94123   1.219   5.135   9.281
31294WAT     H194124   1.278   5.089   9.347
31294WAT     H294125   1.189   5.069   9.211
31295WAT      O94126   1.560   0.492   0.887
31295WAT     H194127   1.553   0.588   0.914
31295WAT     H294128   1.607   0.441   0.959
31296WAT      O94129   9.037   3.404   3.977
31296WAT     H194130   8.946   3.377   3.945
31296WAT     H294131   9.034   3.497   4.012
31297WAT      O94132   6.874   1.732   7.043
31297WAT     H194133   6.927   1.718   7.126
31297WAT     H294134   6.792   1.786   7.065
31298WAT      O94135   9.313   0.264   5.968
31298WAT     H194136   9.262   0.333   5.917
31298WAT     H294137   9.350   0.196   5.905
31299WAT      O94138   5.513   8.300   7.214
31299WAT     H194139   5.531   8.378   7.154
31299WAT     H294140   5.545   8.216   7.170
31300WAT      O94141   5.844   4.896   0.207
31300WAT     H194142   5.847   4.927   0.302
31300WAT     H294143   5.753   4.859   0.187
31301WAT      O94144   8.751   8.946   0.643
31301WAT     H194145   8.685   8.910   0.710
31301WAT     H294146   8.732   9.042   0.625
31302WAT      O94147   9.516   4.228   2.081
31302WAT     H194148   9.422   4.260   2.075
31302WAT     H294149   9.552   4.214   1.988
31303WAT      O94150   7.669   8.585   1.207
31303WAT     H194151   7.724   8.645   1.265
31303WAT     H294152   7.698   8.490   1.219
31304WAT      O94153   4.353   4.169   8.458
31304WAT     H194154   4.430   4.190   8.518
31304WAT     H294155   4.342   4.070   8.451
31305WAT      O94156   0.779   7.277   4.859
31305WAT     H194157   0.698   7.222   4.842
31305WAT     H294158   0.766   7.330   4.943
31306WAT      O94159   9.246   7.928   6.013
31306WAT     H194160   9.276   8.021   6.032
31306WAT     H294161   9.326   7.868   6.006
31307WAT      O94162   7.818   5.100   8.577
31307WAT     H194163   7.900   5.070   8.625
31307WAT     H294164   7.844   5.163   8.504
31308WAT      O94165   6.686   0.095   7.155
31308WAT     H194166   6.690   0.095   7.055
31308WAT     H294167   6.766   0.046   7.192
31309WAT      O94168   8.934   9.736   0.250
31309WAT     H194169   8.892   9.827   0.251
31309WAT     H294170   8.942   9.702   0.343
31310WAT      O94171   7.025   4.925   3.575
31310WAT     H194172   6.985   4.862   3.509
31310WAT     H294173   7.116   4.953   3.543
31311WAT      O94174   0.353   5.008   2.480
31311WAT     H194175   0.285   5.074   2.450
31311WAT     H294176   0.442   5.032   2.440
31312WAT      O94177   2.852   8.155   3.183
31312WAT     H194178   2.847   8.095   3.263
31312WAT     H294179   2.920   8.120   3.119
31313WAT      O94180   3.854   6.762   2.455
31313WAT     H194181   3.878   6.859   2.446
31313WAT     H294182   3.809   6.746   2.543
31314WAT      O94183   1.076   2.258   9.566
31314WAT     H194184   1.055   2.354   9.547
31314WAT     H294185   1.043   2.201   9.491
31315WAT      O94186   2.831   8.855   7.810
31315WAT     H194187   2.914   8.815   7.849
31315WAT     H294188   2.757   8.851   7.877
31316WAT      O94189   6.373   3.169   3.632
31316WAT     H194190   6.383   3.267   3.613
31316WAT     H294191   6.333   3.157   3.723
31317WAT      O94192   6.980   5.721   3.160
31317WAT     H194193   7.045   5.666   3.107
31317WAT     H294194   6.983   5.694   3.256
31318WAT      O94195   4.710   9.152   7.683
31318WAT     H194196   4.728   9.076   7.619
31318WAT     H294197   4.653   9.221   7.637
31319WAT      O94198   1.233   5.069   8.446
31319WAT     H194199   1.149   5.050   8.496
31319WAT     H294200   1.223   5.154   8.393
31320WAT      O94201   7.984   7.923   8.539
31320WAT     H194202   7.934   7.916   8.625
31320WAT     H294203   7.919   7.927   8.463
31321WAT      O94204   9.585   1.734   9.892
31321WAT     H194205   9.529   1.675   9.950
31321WAT     H294206   9.591   1.694   9.800
31322WAT      O94207   3.509   9.741   3.713
31322WAT     H194208   3.528   9.754   3.810
31322WAT     H294209   3.544   9.652   3.684
31323WAT      O94210   5.144   9.580   5.992
31323WAT     H194211   5.110   9.530   6.072
31323WAT     H294212   5.212   9.647   6.021
31324WAT      O94213   1.920   9.289   1.334
31324WAT     H194214   1.917   9.353   1.412
31324WAT     H294215   2.015   9.265   1.315
31325WAT      O94216   8.804   5.282   2.441
31325WAT     H194217   8.821   5.186   2.420
31325WAT     H294218   8.889   5.326   2.468
31326WAT      O94219   9.652   4.510   4.032
31326WAT     H194220   9.643   4.578   3.959
31326WAT     H294221   9.600   4.538   4.112
31327WAT      O94222   3.048   6.162   6.020
31327WAT     H194223   3.010   6.246   6.058
31327WAT     H294224   3.102   6.184   5.938
31328WAT      O94225   5.479   8.274   4.717
31328WAT     H194226   5.521   8.202   4.662
31328WAT     H294227   5.494   8.256   4.814
31329WAT      O94228   9.642   6.544   2.166
31329WAT     H194229   9.723   6.520   2.111
31329WAT     H294230   9.559   6.523   2.113
31330WAT      O94231   7.468   5.467   4.139
31330WAT     H194232   7.389   5.406   4.135
31330WAT     H294233   7.533   5.443   4.068
31331WAT      O94234   1.264   5.793   0.148
31331WAT     H194235   1.268   5.857   0.225
31331WAT     H294236   1.303   5.705   0.177
31332WAT      O94237   1.450   4.737   3.864
31332WAT     H194238   1.363   4.719   3.818
31332WAT     H294239   1.489   4.822   3.829
31333WAT      O94240   5.164   6.711   3.387
31333WAT     H194241   5.191   6.758   3.303
31333WAT     H294242   5.205   6.758   3.465
31334WAT      O94243   6.301   7.453   6.903
31334WAT     H194244   6.255   7.452   6.992
31334WAT     H294245   6.240   7.412   6.834
31335WAT      O94246   8.574   7.433   5.210
31335WAT     H194247   8.639   7.358   5.202
31335WAT     H294248   8.511   7.415   5.286
31336WAT      O94249   3.478   5.262   4.127
31336WAT     H194250   3.571   5.230   4.109
31336WAT     H294251   3.465   5.273   4.226
31337WAT      O94252   3.335   5.652   4.923
31337WAT     H194253   3.336   5.720   4.850
31337WAT     H294254   3.427   5.644   4.962
31338WAT      O94255   3.029   6.501   2.730
31338WAT     H194256   2.955   6.466   2.787
31338WAT     H294257   3.081   6.425   2.691
31339WAT      O94258   6.019   3.084   6.240
31339WAT     H194259   5.983   3.123   6.155
31339WAT     H294260   6.013   2.984   6.236
31340WAT      O94261   6.211   6.488   5.170
31340WAT     H194262   6.118   6.462   5.196
31340WAT     H294263   6.207   6.571   5.114
31341WAT      O94264   1.246   9.268   2.396
31341WAT     H194265   1.172   9.322   2.434
31341WAT     H294266   1.210   9.179   2.366
31342WAT      O94267   1.016   3.803   8.524
31342WAT     H194268   1.057   3.741   8.458
31342WAT     H294269   0.988   3.887   8.478
31343WAT      O94270   1.886   8.075   2.746
31343WAT     H194271   1.981   8.079   2.775
31343WAT     H294272   1.833   8.024   2.814
31344WAT      O94273   3.760   0.597   2.724
31344WAT     H194274   3.767   0.518   2.786
31344WAT     H294275   3.701   0.572   2.646
31345WAT      O94276   5.787   0.004   6.302
31345WAT     H194277   5.772   0.000   6.203
31345WAT     H294278   5.882  -0.022   6.321
31346WAT      O94279   8.969   0.463   9.442
31346WAT     H194280   8.992   0.401   9.368
31346WAT     H294281   9.023   0.439   9.523
31347WAT      O94282   4.864   8.822   9.352
31347WAT     H194283   4.902   8.914   9.352
31347WAT     H294284   4.765   8.827   9.366
31348WAT      O94285   9.846   5.125   5.572
31348WAT     H194286   9.825   5.209   5.523
31348WAT     H294287   9.869   5.145   5.667
31349WAT      O94288   8.489   2.161   1.684
31349WAT     H194289   8.582   2.144   1.650
31349WAT     H294290   8.433   2.197   1.609
31350WAT      O94291   4.271   8.584   8.519
31350WAT     H194292   4.353   8.627   8.480
31350WAT     H294293   4.290   8.553   8.612
31351WAT      O94294   7.751   4.583   4.884
31351WAT     H194295   7.769   4.679   4.862
31351WAT     H294296   7.824   4.547   4.942
31352WAT      O94297   9.014   8.928   0.723
31352WAT     H194298   8.929   8.913   0.672
31352WAT     H294299   9.010   9.017   0.769
31353WAT      O94300   7.106   4.963   8.723
31353WAT     H194301   7.142   4.897   8.657
31353WAT     H294302   7.109   5.055   8.683
31354WAT      O94303   6.538   2.136   3.488
31354WAT     H194304   6.569   2.047   3.455
31354WAT     H294305   6.552   2.142   3.587
31355WAT      O94306   5.767   1.615   0.124
31355WAT     H194307   5.776   1.665   0.210
31355WAT     H294308   5.714   1.670   0.059
31356WAT      O94309   0.904   4.129   1.321
31356WAT     H194310   0.947   4.158   1.235
31356WAT     H294311   0.974   4.123   1.392
31357WAT      O94312   9.518   1.920   6.232
31357WAT     H194313   9.559   1.974   6.158
31357WAT     H294314   9.428   1.957   6.254
31358WAT      O94315   2.517   2.389   8.382
31358WAT     H194316   2.529   2.485   8.360
31358WAT     H294317   2.483   2.340   8.301
31359WAT      O94318   0.189   6.251   0.062
31359WAT     H194319   0.168   6.341   0.101
31359WAT     H294320   0.240   6.197   0.128
31360WAT      O94321   3.051   6.788   2.010
31360WAT     H194322   3.137   6.796   1.960
31360WAT     H294323   3.032   6.691   2.030
31361WAT      O94324   2.310   6.599   7.786
31361WAT     H194325   2.408   6.579   7.785
31361WAT     H294326   2.272   6.587   7.694
31362WAT      O94327   7.262   7.410   8.443
31362WAT     H194328   7.274   7.427   8.345
31362WAT     H294329   7.254   7.496   8.492
31363WAT      O94330   4.214   3.706   2.862
31363WAT     H194331   4.245   3.611   2.857
31363WAT     H294332   4.156   3.718   2.943
31364WAT      O94333   9.311   2.504   4.715
31364WAT     H194334   9.374   2.571   4.753
31364WAT     H294335   9.296   2.430   4.781
31365WAT      O94336   8.659   7.950   5.234
31365WAT     H194337   8.644   7.917   5.327
31365WAT     H294338   8.646   7.874   5.169
31366WAT      O94339   4.282   7.298   3.450
31366WAT     H194340   4.245   7.207   3.467
31366WAT     H294341   4.378   7.291   3.425
31367WAT      O94342   7.016   7.292   9.887
31367WAT     H194343   6.960   7.327   9.812
31367WAT     H294344   7.112   7.290   9.859
31368WAT      O94345   1.226   6.103   1.820
31368WAT     H194346   1.248   6.025   1.762
31368WAT     H294347   1.196   6.180   1.763
31369WAT      O94348   7.629   9.528   4.100
31369WAT     H194349   7.536   9.548   4.133
31369WAT     H294350   7.694   9.590   4.142
31370WAT      O94351   2.451   3.582   6.236
31370WAT     H194352   2.546   3.549   6.243
31370WAT     H294353   2.389   3.504   6.232
31371WAT      O94354   0.740   5.431   1.323
31371WAT     H194355   0.811   5.385   1.376
31371WAT     H294356   0.740   5.529   1.346
31372WAT      O94357   2.686   1.202   0.350
31372WAT     H194358   2.655   1.181   0.257
31372WAT     H294359   2.786   1.203   0.353
31373WAT      O94360   6.630   2.751   5.865
31373WAT     H194361   6.536   2.757   5.898
31373WAT     H294362   6.693   2.772   5.940
31374WAT      O94363   7.249   8.186   2.752
31374WAT     H194364   7.245   8.202   2.653
31374WAT     H294365   7.157   8.177   2.788
31375WAT      O94366   7.222   3.988   0.264
31375WAT     H194367   7.279   3.949   0.337
31375WAT     H294368   7.128   3.995   0.297
31376WAT      O94369   5.038   7.352   5.074
31376WAT     H194370   5.050   7.338   4.976
31376WAT     H294371   5.001   7.269   5.115
31377WAT      O94372   5.039   9.687   1.752
31377WAT     H194373   4.957   9.635   1.726
31377WAT     H294374   5.051   9.684   1.851
31378WAT      O94375   9.881   3.930   1.855
31378WAT     H194376   9.858   3.927   1.952
31378WAT     H294377   9.933   4.013   1.835
31379WAT      O94378   4.458   6.060   1.673
31379WAT     H194379   4.441   6.080   1.576
31379WAT     H294380   4.443   6.143   1.727
31380WAT      O94381   7.332   1.871   3.492
31380WAT     H194382   7.388   1.816   3.553
31380WAT     H294383   7.244   1.890   3.536
31381WAT      O94384   2.850   2.455   7.469
31381WAT     H194385   2.864   2.356   7.465
31381WAT     H294386   2.756   2.476   7.441
31382WAT      O94387   7.589   0.287   6.581
31382WAT     H194388   7.530   0.328   6.651
31382WAT     H294389   7.620   0.359   6.519
31383WAT      O94390   9.206   1.235   9.453
31383WAT     H194391   9.109   1.239   9.432
31383WAT     H294392   9.231   1.141   9.477
31384WAT      O94393   5.366   9.481   8.530
31384WAT     H194394   5.368   9.557   8.465
31384WAT     H294395   5.302   9.411   8.498
31385WAT      O94396   7.921   9.125   5.516
31385WAT     H194397   7.927   9.169   5.426
31385WAT     H294398   7.857   9.176   5.573
31386WAT      O94399   3.486   6.571   7.371
31386WAT     H194400   3.458   6.612   7.457
31386WAT     H294401   3.582   6.592   7.353
31387WAT      O94402   7.865   4.798   5.810
31387WAT     H194403   7.817   4.816   5.724
31387WAT     H294404   7.927   4.721   5.799
31388WAT      O94405   6.089   7.959   8.094
31388WAT     H194406   6.163   8.011   8.136
31388WAT     H294407   6.004   8.012   8.097
31389WAT      O94408   3.989   7.265   9.390
31389WAT     H194409   3.969   7.354   9.348
31389WAT     H294410   3.914   7.202   9.371
31390WAT      O94411   9.778   0.979   5.114
31390WAT     H194412   9.725   1.002   5.032
31390WAT     H294413   9.765   1.051   5.183
31391WAT      O94414   8.543   6.452   4.366
31391WAT     H194415   8.505   6.435   4.276
31391WAT     H294416   8.503   6.388   4.432
31392WAT      O94417   9.080   3.736   7.213
31392WAT     H194418   9.107   3.813   7.155
31392WAT     H294419   9.161   3.688   7.245
31393WAT      O94420   0.823   4.198   7.491
31393WAT     H194421   0.735   4.244   7.501
31393WAT     H294422   0.893   4.265   7.469
31394WAT      O94423   9.292   6.659   1.226
31394WAT     H194424   9.265   6.684   1.133
31394WAT     H294425   9.320   6.563   1.227
31395WAT      O94426   9.611   9.784   8.206
31395WAT     H194427   9.685   9.851   8.200
31395WAT     H294428   9.528   9.829   8.237
31396WAT      O94429   8.434   2.242   3.007
31396WAT     H194430   8.421   2.273   2.912
31396WAT     H294431   8.460   2.146   3.007
31397WAT      O94432   6.177   2.971   1.936
31397WAT     H194433   6.265   3.010   1.961
31397WAT     H294434   6.159   2.890   1.992
31398WAT      O94435   9.455   1.860   8.364
31398WAT     H194436   9.505   1.880   8.280
31398WAT     H294437   9.418   1.767   8.359
31399WAT      O94438   0.832   4.943   9.286
31399WAT     H194439   0.822   5.042   9.284
31399WAT     H294440   0.923   4.920   9.321
31400WAT      O94441   2.045   0.723   4.998
31400WAT     H194442   1.984   0.670   4.939
31400WAT     H294443   1.992   0.768   5.070
31401WAT      O94444   2.400   1.667   8.688
31401WAT     H194445   2.415   1.654   8.590
31401WAT     H294446   2.413   1.579   8.736
31402WAT      O94447   4.188   2.063   2.501
31402WAT     H194448   4.244   2.145   2.486
31402WAT     H294449   4.156   2.062   2.596
31403WAT      O94450   2.793   6.881   3.041
31403WAT     H194451   2.789   6.910   2.945
31403WAT     H294452   2.742   6.945   3.097
31404WAT      O94453   8.344   0.536   2.160
31404WAT     H194454   8.323   0.634   2.161
31404WAT     H294455   8.259   0.484   2.152
31405WAT      O94456   2.537   5.665   7.062
31405WAT     H194457   2.579   5.746   7.021
31405WAT     H294458   2.521   5.682   7.159
31406WAT      O94459   2.088   8.480   7.485
31406WAT     H194460   2.097   8.390   7.526
31406WAT     H294461   2.071   8.548   7.557
31407WAT      O94462   0.426   5.589   6.197
31407WAT     H194463   0.467   5.523   6.260
31407WAT     H294464   0.328   5.598   6.217
31408WAT      O94465   3.468   7.461   1.203
31408WAT     H194466   3.558   7.442   1.166
31408WAT     H294467   3.477   7.500   1.295
31409WAT      O94468   7.805   1.454   0.171
31409WAT     H194469   7.888   1.487   0.126
31409WAT     H294470   7.803   1.487   0.265
31410WAT      O94471   4.557   0.302   3.269
31410WAT     H194472   4.647   0.337   3.297
31410WAT     H294473   4.570   0.231   3.199
31411WAT      O94474   6.619   4.001   9.287
31411WAT     H194475   6.548   3.986   9.355
31411WAT     H294476   6.687   3.927   9.292
31412WAT      O94477   1.697   2.723   0.108
31412WAT     H194478   1.666   2.810   0.069
31412WAT     H294479   1.619   2.661   0.115
31413WAT      O94480   1.526   7.831   0.259
31413WAT     H194481   1.442   7.785   0.290
31413WAT     H294482   1.521   7.928   0.281
31414WAT      O94483   0.270   6.969   5.274
31414WAT     H194484   0.323   6.899   5.321
31414WAT     H294485   0.309   7.059   5.293
31415WAT      O94486   3.299   2.811   0.957
31415WAT     H194487   3.218   2.870   0.949
31415WAT     H294488   3.380   2.861   0.925
31416WAT      O94489   1.501   0.958   3.551
31416WAT     H194490   1.525   0.972   3.455
31416WAT     H294491   1.580   0.980   3.609
31417WAT      O94492   9.262   3.527   7.552
31417WAT     H194493   9.309   3.600   7.503
31417WAT     H294494   9.259   3.548   7.650
31418WAT      O94495   5.115   1.878   2.651
31418WAT     H194496   5.017   1.859   2.644
31418WAT     H294497   5.152   1.833   2.732
31419WAT      O94498   4.782   8.967   0.951
31419WAT     H194499   4.699   8.911   0.953
31419WAT     H294500   4.860   8.910   0.922
31420WAT      O94501   3.710   9.278   7.258
31420WAT     H194502   3.689   9.316   7.349
31420WAT     H294503   3.800   9.310   7.229
31421WAT      O94504   1.458   3.418   6.772
31421WAT     H194505   1.406   3.371   6.700
31421WAT     H294506   1.538   3.364   6.796
31422WAT      O94507   3.012   6.717   1.455
31422WAT     H194508   3.062   6.756   1.377
31422WAT     H294509   2.932   6.772   1.475
31423WAT      O94510   8.173   8.969   7.030
31423WAT     H194511   8.083   8.978   6.987
31423WAT     H294512   8.240   8.942   6.961
31424WAT      O94513   1.565   3.069   6.081
31424WAT     H194514   1.547   3.167   6.073
31424WAT     H294515   1.522   3.034   6.164
31425WAT      O94516   3.010   8.475   3.887
31425WAT     H194517   3.038   8.566   3.918
31425WAT     H294518   3.069   8.446   3.812
31426WAT      O94519   6.918   6.890   8.451
31426WAT     H194520   6.888   6.885   8.355
31426WAT     H294521   6.881   6.812   8.501
31427WAT      O94522   0.025   2.979   1.292
31427WAT     H194523   0.008   2.890   1.250
31427WAT     H294524   0.124   2.995   1.297
31428WAT      O94525   3.252   3.868   4.818
31428WAT     H194526   3.165   3.819   4.814
31428WAT     H294527   3.260   3.930   4.739
31429WAT      O94528   5.639   5.588   9.297
31429WAT     H194529   5.604   5.682   9.304
31429WAT     H294530   5.738   5.589   9.308
31430WAT      O94531   1.500   1.245   9.697
31430WAT     H194532   1.488   1.200   9.785
31430WAT     H294533   1.446   1.199   9.627
31431WAT      O94534   6.469   2.962   4.060
31431WAT     H194535   6.548   2.924   4.012
31431WAT     H294536   6.483   2.956   4.159
31432WAT      O94537   7.147   3.629   4.686
31432WAT     H194538   7.124   3.533   4.673
31432WAT     H294539   7.218   3.655   4.620
31433WAT      O94540   7.319   5.378   7.348
31433WAT     H194541   7.410   5.341   7.330
31433WAT     H294542   7.253   5.302   7.350
31434WAT      O94543   5.319   3.611   5.991
31434WAT     H194544   5.371   3.644   6.069
31434WAT     H294545   5.322   3.679   5.918
31435WAT      O94546   7.653   7.468   4.067
31435WAT     H194547   7.684   7.470   4.162
31435WAT     H294548   7.666   7.376   4.030
31436WAT      O94549   3.582   9.136   2.783
31436WAT     H194550   3.588   9.195   2.702
31436WAT     H294551   3.672   9.097   2.803
31437WAT      O94552   3.452   1.370   6.125
31437WAT     H194553   3.494   1.455   6.092
31437WAT     H294554   3.488   1.293   6.074
31438WAT      O94555   0.432   9.027   9.549
31438WAT     H194556   0.333   9.009   9.552
31438WAT     H294557   0.458   9.054   9.457
31439WAT      O94558   9.125   5.545   4.254
31439WAT     H194559   9.069   5.622   4.283
31439WAT     H294560   9.067   5.468   4.228
31440WAT      O94561   9.525   4.259   0.135
31440WAT     H194562   9.471   4.206   0.200
31440WAT     H294563   9.600   4.202   0.100
31441WAT      O94564   5.865   0.361   1.107
31441WAT     H194565   5.906   0.390   1.020
31441WAT     H294566   5.769   0.337   1.092
31442WAT      O94567   9.850   3.587   0.935
31442WAT     H194568   9.901   3.634   0.863
31442WAT     H294569   9.881   3.492   0.940
31443WAT      O94570   3.950   8.603   3.028
31443WAT     H194571   3.904   8.688   3.005
31443WAT     H294572   3.984   8.560   2.944
31444WAT      O94573   5.079   3.576   9.375
31444WAT     H194574   5.115   3.554   9.465
31444WAT     H294575   5.045   3.670   9.375
31445WAT      O94576   2.779   3.481   7.195
31445WAT     H194577   2.820   3.448   7.111
31445WAT     H294578   2.686   3.514   7.177
31446WAT      O94579   0.880   4.883   1.468
31446WAT     H194580   0.884   4.853   1.563
31446WAT     H294581   0.784   4.893   1.441
31447WAT      O94582   7.108   8.709   4.816
31447WAT     H194583   7.051   8.788   4.838
31447WAT     H294584   7.076   8.668   4.731
31448WAT      O94585   9.261   1.783   4.459
31448WAT     H194586   9.315   1.699   4.462
31448WAT     H294587   9.304   1.847   4.396
31449WAT      O94588   0.781   9.006   7.061
31449WAT     H194589   0.749   9.094   7.028
31449WAT     H294590   0.840   8.964   6.993
31450WAT      O94591   7.080   7.976   0.768
31450WAT     H194592   7.104   8.045   0.700
31450WAT     H294593   7.163   7.938   0.808
31451WAT      O94594   9.104   1.027   6.978
31451WAT     H194595   9.093   0.964   6.901
31451WAT     H294596   9.063   1.115   6.956
31452WAT      O94597   8.714   8.263   6.832
31452WAT     H194598   8.719   8.165   6.848
31452WAT     H294599   8.779   8.289   6.761
31453WAT      O94600   4.445   9.769   1.871
31453WAT     H194601   4.531   9.733   1.835
31453WAT     H294602   4.381   9.694   1.885
31454WAT      O94603   8.362   7.179   9.779
31454WAT     H194604   8.371   7.277   9.763
31454WAT     H294605   8.349   7.162   9.877
31455WAT      O94606   4.574   6.289   1.298
31455WAT     H194607   4.657   6.248   1.260
31455WAT     H294608   4.598   6.370   1.351
31456WAT      O94609   8.241   9.793   4.345
31456WAT     H194610   8.183   9.791   4.264
31456WAT     H294611   8.278   9.886   4.357
31457WAT      O94612   9.291   4.957   5.148
31457WAT     H194613   9.388   4.972   5.134
31457WAT     H294614   9.240   5.038   5.118
31458WAT      O94615   0.159   7.863   7.190
31458WAT     H194616   0.225   7.914   7.135
31458WAT     H294617   0.084   7.924   7.217
31459WAT      O94618   5.080   4.757   4.510
31459WAT     H194619   5.076   4.661   4.483
31459WAT     H294620   5.016   4.774   4.584
31460WAT      O94621   7.656   8.452   5.539
31460WAT     H194622   7.563   8.419   5.554
31460WAT     H294623   7.712   8.378   5.503
31461WAT      O94624   5.677   8.715   8.891
31461WAT     H194625   5.747   8.719   8.963
31461WAT     H294626   5.655   8.808   8.862
31462WAT      O94627   9.658   1.225   7.132
31462WAT     H194628   9.722   1.245   7.058
31462WAT     H294629   9.572   1.274   7.115
31463WAT      O94630   9.209   8.503   0.333
31463WAT     H194631   9.124   8.505   0.385
31463WAT     H294632   9.285   8.481   0.395
31464WAT      O94633   7.271   4.324   5.474
31464WAT     H194634   7.202   4.396   5.484
31464WAT     H294635   7.234   4.237   5.505
31465WAT      O94636   3.944   1.117   1.578
31465WAT     H194637   4.018   1.153   1.521
31465WAT     H294638   3.956   1.150   1.672
31466WAT      O94639   9.265   5.452   5.239
31466WAT     H194640   9.337   5.383   5.249
31466WAT     H294641   9.271   5.494   5.148
31467WAT      O94642   1.763   1.742   6.263
31467WAT     H194643   1.667   1.722   6.244
31467WAT     H294644   1.785   1.835   6.236
31468WAT      O94645   9.427   5.336   7.232
31468WAT     H194646   9.494   5.371   7.297
31468WAT     H294647   9.364   5.410   7.206
31469WAT      O94648   9.143   4.943   9.458
31469WAT     H194649   9.048   4.974   9.455
31469WAT     H294650   9.203   5.020   9.478
31470WAT      O94651   5.438   1.061   8.445
31470WAT     H194652   5.421   1.131   8.514
31470WAT     H294653   5.533   1.031   8.450
31471WAT      O94654   5.754   7.455   2.996
31471WAT     H194655   5.783   7.408   3.080
31471WAT     H294656   5.772   7.395   2.918
31472WAT      O94657   3.947   5.463   6.974
31472WAT     H194658   3.997   5.412   6.904
31472WAT     H294659   3.872   5.406   7.008
31473WAT      O94660   5.003   5.641   4.218
31473WAT     H194661   5.047   5.609   4.134
31473WAT     H294662   4.906   5.616   4.218
31474WAT      O94663   7.309   0.607   5.849
31474WAT     H194664   7.384   0.639   5.791
31474WAT     H294665   7.309   0.659   5.934
31475WAT      O94666   2.708   6.625   3.625
31475WAT     H194667   2.662   6.657   3.709
31475WAT     H294668   2.748   6.535   3.642
31476WAT      O94669   5.987   7.725   4.095
31476WAT     H194670   6.052   7.798   4.115
31476WAT     H294671   5.995   7.653   4.164
31477WAT      O94672   2.058   0.940   8.941
31477WAT     H194673   2.015   1.005   9.004
31477WAT     H294674   2.153   0.924   8.971
31478WAT      O94675   1.650   6.009   8.094
31478WAT     H194676   1.570   6.059   8.064
31478WAT     H294677   1.628   5.955   8.176
31479WAT      O94678   6.749   5.459   9.398
31479WAT     H194679   6.776   5.368   9.430
31479WAT     H294680   6.787   5.475   9.307
31480WAT      O94681   6.938   9.189   6.873
31480WAT     H194682   6.927   9.129   6.793
31480WAT     H294683   7.007   9.258   6.853
31481WAT      O94684   7.335   3.836   9.262
31481WAT     H194685   7.357   3.933   9.248
31481WAT     H294686   7.372   3.782   9.187
31482WAT      O94687   6.055   2.708   3.593
31482WAT     H194688   6.033   2.648   3.516
31482WAT     H294689   6.145   2.683   3.630
31483WAT      O94690   9.860   8.517   1.993
31483WAT     H194691   9.913   8.433   1.983
31483WAT     H294692   9.921   8.596   1.990
31484WAT      O94693   7.792   7.588   9.144
31484WAT     H194694   7.729   7.513   9.126
31484WAT     H294695   7.745   7.675   9.131
31485WAT      O94696   5.326   3.404   9.035
31485WAT     H194697   5.372   3.479   8.987
31485WAT     H294698   5.345   3.318   8.988
31486WAT      O94699   5.449   7.694   4.167
31486WAT     H194700   5.490   7.782   4.142
31486WAT     H294701   5.437   7.690   4.266
31487WAT      O94702   8.006   6.488   9.020
31487WAT     H194703   8.015   6.410   9.082
31487WAT     H294704   7.909   6.507   9.004
31488WAT      O94705   2.641   8.502   5.332
31488WAT     H194706   2.550   8.539   5.351
31488WAT     H294707   2.668   8.441   5.406
31489WAT      O94708   5.639   6.974   5.270
31489WAT     H194709   5.675   6.894   5.317
31489WAT     H294710   5.604   6.947   5.180
31490WAT      O94711   1.392   1.469   6.829
31490WAT     H194712   1.325   1.488   6.757
31490WAT     H294713   1.484   1.468   6.789
31491WAT      O94714   4.767   2.272   4.508
31491WAT     H194715   4.855   2.247   4.468
31491WAT     H294716   4.782   2.327   4.590
31492WAT      O94717   2.501   8.260   3.518
31492WAT     H194718   2.526   8.225   3.608
31492WAT     H294719   2.539   8.352   3.505
31493WAT      O94720   3.524   1.015   0.135
31493WAT     H194721   3.624   1.022   0.142
31493WAT     H294722   3.500   0.965   0.051
31494WAT      O94723   8.014   2.081   0.149
31494WAT     H194724   8.073   2.151   0.187
31494WAT     H294725   7.951   2.048   0.219
31495WAT      O94726   3.462   6.392   9.706
31495WAT     H194727   3.372   6.432   9.688
31495WAT     H294728   3.509   6.374   9.619
31496WAT      O94729   2.100   0.137   5.598
31496WAT     H194730   2.010   0.103   5.626
31496WAT     H294731   2.145   0.067   5.542
31497WAT      O94732   8.373   9.633   7.240
31497WAT     H194733   8.378   9.556   7.176
31497WAT     H294734   8.395   9.718   7.192
31498WAT      O94735   8.743   3.033   3.429
31498WAT     H194736   8.806   2.970   3.474
31498WAT     H294737   8.795   3.098   3.373
31499WAT      O94738   0.528   0.286   9.854
31499WAT     H194739   0.521   0.378   9.815
31499WAT     H294740   0.472   0.222   9.801
31500WAT      O94741   7.361   1.685   1.579
31500WAT     H194742   7.265   1.675   1.605
31500WAT     H294743   7.371   1.667   1.481
31501WAT      O94744   3.620   3.661   1.840
31501WAT     H194745   3.628   3.639   1.937
31501WAT     H294746   3.711   3.667   1.799
31502WAT      O94747   6.479   4.532   5.653
31502WAT     H194748   6.519   4.524   5.744
31502WAT     H294749   6.390   4.578   5.660
31503WAT      O94750   2.415   4.270   5.646
31503WAT     H194751   2.491   4.313   5.596
31503WAT     H294752   2.342   4.247   5.582
31504WAT      O94753   3.697   2.578   3.986
31504WAT     H194754   3.649   2.640   3.924
31504WAT     H294755   3.682   2.608   4.080
31505WAT      O94756   8.722   7.020   1.235
31505WAT     H194757   8.772   7.036   1.320
31505WAT     H294758   8.632   7.065   1.241
31506WAT      O94759   3.606   9.783   4.383
31506WAT     H194760   3.642   9.792   4.476
31506WAT     H294761   3.636   9.861   4.329
31507WAT      O94762   8.306   2.409   5.488
31507WAT     H194763   8.352   2.320   5.483
31507WAT     H294764   8.246   2.420   5.409
31508WAT      O94765   2.630   2.598   0.216
31508WAT     H194766   2.635   2.611   0.117
31508WAT     H294767   2.685   2.668   0.262
31509WAT      O94768   8.906   6.051   8.890
31509WAT     H194769   8.840   6.040   8.815
31509WAT     H294770   8.998   6.055   8.853
31510WAT      O94771   4.985   8.256   1.796
31510WAT     H194772   4.927   8.283   1.720
31510WAT     H294773   4.937   8.190   1.854
31511WAT      O94774   9.560   2.988   1.260
31511WAT     H194775   9.487   2.977   1.327
31511WAT     H294776   9.554   3.080   1.219
31512WAT      O94777   5.944   9.616   9.059
31512WAT     H194778   5.979   9.636   9.151
31512WAT     H294779   6.021   9.605   8.996
31513WAT      O94780   7.640   9.624   7.661
31513WAT     H194781   7.674   9.570   7.738
31513WAT     H294782   7.555   9.669   7.687
31514WAT      O94783   0.127   6.806   5.072
31514WAT     H194784   0.169   6.857   5.147
31514WAT     H294785   0.196   6.789   5.001
31515WAT      O94786   2.220   6.182   6.097
31515WAT     H194787   2.248   6.251   6.030
31515WAT     H294788   2.235   6.218   6.190
31516WAT      O94789   4.907   6.363   3.551
31516WAT     H194790   4.837   6.432   3.529
31516WAT     H294791   4.997   6.399   3.526
31517WAT      O94792   5.114   8.637   5.378
31517WAT     H194793   5.145   8.715   5.433
31517WAT     H294794   5.138   8.552   5.426
31518WAT      O94795   0.271   4.643   7.758
31518WAT     H194796   0.364   4.624   7.790
31518WAT     H294797   0.257   4.599   7.670
31519WAT      O94798   1.798   8.242   6.198
31519WAT     H194799   1.712   8.192   6.192
31519WAT     H294800   1.779   8.340   6.202
31520WAT      O94801   7.313   7.587   6.134
31520WAT     H194802   7.368   7.576   6.051
31520WAT     H294803   7.362   7.645   6.199
31521WAT      O94804   2.666   8.487   5.861
31521WAT     H194805   2.653   8.574   5.814
31521WAT     H294806   2.734   8.499   5.934
31522WAT      O94807   7.325   7.086   2.563
31522WAT     H194808   7.276   7.020   2.506
31522WAT     H294809   7.390   7.038   2.622
31523WAT      O94810   5.898   7.021   1.729
31523WAT     H194811   5.929   7.104   1.774
31523WAT     H294812   5.929   7.020   1.634
31524WAT      O94813   4.553   1.594   7.757
31524WAT     H194814   4.551   1.681   7.807
31524WAT     H294815   4.614   1.530   7.804
31525WAT      O94816   0.511   0.013   8.487
31525WAT     H194817   0.502   0.024   8.586
31525WAT     H294818   0.421   0.022   8.444
31526WAT      O94819   1.056   7.526   5.775
31526WAT     H194820   1.091   7.550   5.866
31526WAT     H294821   1.080   7.431   5.754
31527WAT      O94822   8.525   6.336   7.312
31527WAT     H194823   8.535   6.278   7.231
31527WAT     H294824   8.434   6.378   7.311
31528WAT      O94825   8.240   9.519   6.587
31528WAT     H194826   8.267   9.583   6.659
31528WAT     H294827   8.154   9.550   6.546
31529WAT      O94828   6.007   6.624   1.092
31529WAT     H194829   6.100   6.635   1.128
31529WAT     H294830   5.946   6.595   1.166
31530WAT      O94831   7.324   6.315   6.633
31530WAT     H194832   7.339   6.246   6.563
31530WAT     H294833   7.396   6.307   6.703
31531WAT      O94834   0.171   6.936   9.538
31531WAT     H194835   0.199   6.958   9.444
31531WAT     H294836   0.112   6.856   9.537
31532WAT      O94837   3.056   5.331   8.491
31532WAT     H194838   3.114   5.407   8.521
31532WAT     H294839   3.019   5.284   8.571
31533WAT      O94840   3.860   2.413   8.621
31533WAT     H194841   3.911   2.385   8.702
31533WAT     H294842   3.762   2.405   8.639
31534WAT      O94843   2.871   1.956   4.771
31534WAT     H194844   2.962   1.975   4.735
31534WAT     H294845   2.877   1.940   4.870
31535WAT      O94846   7.569   7.877   1.851
31535WAT     H194847   7.562   7.846   1.946
31535WAT     H294848   7.506   7.825   1.794
31536WAT      O94849   8.007   0.825   3.429
31536WAT     H194850   8.056   0.886   3.492
31536WAT     H294851   8.061   0.743   3.413
31537WAT      O94852   6.963   4.406   2.906
31537WAT     H194853   7.032   4.453   2.852
31537WAT     H294854   6.887   4.469   2.925
31538WAT      O94855   8.326   2.863   8.349
31538WAT     H194856   8.355   2.823   8.435
31538WAT     H294857   8.294   2.791   8.287
31539WAT      O94858   6.040   5.488   4.273
31539WAT     H194859   6.017   5.584   4.254
31539WAT     H294860   6.119   5.483   4.334
31540WAT      O94861   1.826   6.969   6.505
31540WAT     H194862   1.795   7.022   6.426
31540WAT     H294863   1.767   6.988   6.583
31541WAT      O94864   5.470   7.738   8.599
31541WAT     H194865   5.453   7.656   8.544
31541WAT     H294866   5.491   7.711   8.693
31542WAT      O94867   2.324   9.116   6.975
31542WAT     H194868   2.241   9.135   7.028
31542WAT     H294869   2.404   9.133   7.032
31543WAT      O94870   7.014   7.642   5.713
31543WAT     H194871   7.003   7.739   5.737
31543WAT     H294872   7.025   7.633   5.614
31544WAT      O94873   4.636   4.893   0.932
31544WAT     H194874   4.607   4.922   0.841
31544WAT     H294875   4.719   4.943   0.959
31545WAT      O94876   3.928   6.796   0.519
31545WAT     H194877   3.850   6.858   0.523
31545WAT     H294878   3.952   6.780   0.423
31546WAT      O94879   1.841   4.223   1.297
31546WAT     H194880   1.822   4.193   1.204
31546WAT     H294881   1.904   4.158   1.341
31547WAT      O94882   1.598   6.660   2.641
31547WAT     H194883   1.694   6.636   2.658
31547WAT     H294884   1.555   6.588   2.587
31548WAT      O94885   1.540   0.862   7.751
31548WAT     H194886   1.546   0.957   7.783
31548WAT     H294887   1.585   0.802   7.817
31549WAT      O94888   9.878   4.782   8.769
31549WAT     H194889   9.836   4.714   8.830
31549WAT     H294890   9.896   4.866   8.820
31550WAT      O94891   2.740   9.042   5.674
31550WAT     H194892   2.814   9.110   5.669
31550WAT     H294893   2.673   9.070   5.742
31551WAT      O94894   9.562   8.908   8.634
31551WAT     H194895   9.464   8.889   8.643
31551WAT     H294896   9.607   8.832   8.587
31552WAT      O94897   6.299   2.568   3.902
31552WAT     H194898   6.302   2.578   3.803
31552WAT     H294899   6.287   2.657   3.944
31553WAT      O94900   9.782   9.511   0.071
31553WAT     H194901   9.698   9.546   0.031
31553WAT     H294902   9.861   9.554   0.026
31554WAT      O94903   7.801   0.031   8.786
31554WAT     H194904   7.738   0.106   8.766
31554WAT     H294905   7.812   0.022   8.885
31555WAT      O94906   7.345   7.413   1.265
31555WAT     H194907   7.423   7.385   1.209
31555WAT     H294908   7.376   7.431   1.359
31556WAT      O94909   4.997   0.640   7.509
31556WAT     H194910   4.995   0.700   7.588
31556WAT     H294911   5.092   0.612   7.490
31557WAT      O94912   6.824   9.272   9.556
31557WAT     H194913   6.837   9.369   9.578
31557WAT     H294914   6.825   9.219   9.641
31558WAT      O94915   7.290   2.716   2.733
31558WAT     H194916   7.301   2.654   2.811
31558WAT     H294917   7.200   2.702   2.691
31559WAT      O94918   1.435   4.377   7.172
31559WAT     H194919   1.475   4.315   7.105
31559WAT     H294920   1.430   4.331   7.261
31560WAT      O94921   6.015   8.375   1.291
31560WAT     H194922   5.998   8.465   1.251
31560WAT     H294923   5.928   8.332   1.315
31561WAT      O94924   1.193   3.662   9.719
31561WAT     H194925   1.151   3.640   9.631
31561WAT     H294926   1.293   3.659   9.710
31562WAT      O94927   7.421   8.055   8.895
31562WAT     H194928   7.511   8.019   8.874
31562WAT     H294929   7.429   8.151   8.924
31563WAT      O94930   1.733   0.212   0.487
31563WAT     H194931   1.639   0.216   0.520
31563WAT     H294932   1.733   0.181   0.391
31564WAT      O94933   3.269   3.657   7.563
31564WAT     H194934   3.280   3.593   7.486
31564WAT     H294935   3.293   3.749   7.533
31565WAT      O94936   0.455   0.081   4.160
31565WAT     H194937   0.466   0.023   4.079
31565WAT     H294938   0.446   0.176   4.132
31566WAT      O94939   3.138   1.035   0.055
31566WAT     H194940   3.196   1.006   0.131
31566WAT     H294941   3.046   1.054   0.089
31567WAT      O94942   7.946   5.135   8.191
31567WAT     H194943   7.963   5.204   8.260
31567WAT     H294944   8.021   5.134   8.125
31568WAT      O94945   9.651   1.257   4.482
31568WAT     H194946   9.652   1.355   4.464
31568WAT     H294947   9.609   1.209   4.405
31569WAT      O94948   8.531   1.296   0.865
31569WAT     H194949   8.627   1.303   0.890
31569WAT     H294950   8.520   1.231   0.789
31570WAT      O94951   2.127   5.140   1.994
31570WAT     H194952   2.054   5.110   2.056
31570WAT     H294953   2.140   5.072   1.922
31571WAT      O94954   9.659   1.687   9.156
31571WAT     H194955   9.606   1.719   9.077
31571WAT     H294956   9.645   1.589   9.167
31572WAT      O94957   4.570   6.993   9.079
31572WAT     H194958   4.643   7.006   9.145
31572WAT     H294959   4.605   6.941   9.001
31573WAT      O94960   6.858   5.953   9.813
31573WAT     H194961   6.818   6.037   9.776
31573WAT     H294962   6.851   5.954   9.913
31574WAT      O94963   5.492   0.846   9.603
31574WAT     H194964   5.451   0.875   9.516
31574WAT     H294965   5.565   0.909   9.629
31575WAT      O94966   1.751   8.917   3.368
31575WAT     H194967   1.678   8.966   3.416
31575WAT     H294968   1.765   8.959   3.278
31576WAT      O94969   9.527   2.128   1.961
31576WAT     H194970   9.492   2.092   2.047
31576WAT     H294971   9.619   2.093   1.944
31577WAT      O94972   7.354   7.083   4.820
31577WAT     H194973   7.364   7.149   4.746
31577WAT     H294974   7.429   7.017   4.817
31578WAT      O94975   5.544   9.831   8.242
31578WAT     H194976   5.582   9.913   8.200
31578WAT     H294977   5.600   9.752   8.217
31579WAT      O94978   0.241   3.162   5.900
31579WAT     H194979   0.230   3.237   5.835
31579WAT     H294980   0.279   3.082   5.853
31580WAT      O94981   7.802   3.861   1.716
31580WAT     H194982   7.788   3.790   1.786
31580WAT     H294983   7.771   3.827   1.628
31581WAT      O94984   4.078   8.804   8.853
31581WAT     H194985   4.038   8.714   8.835
31581WAT     H294986   4.022   8.875   8.811
31582WAT      O94987   7.960   0.977   6.120
31582WAT     H194988   7.934   1.074   6.126
31582WAT     H294989   7.884   0.925   6.081
31583WAT      O94990   2.102   5.784   6.357
31583WAT     H194991   2.019   5.822   6.400
31583WAT     H294992   2.165   5.754   6.429
31584WAT      O94993   3.680   9.643   2.515
31584WAT     H194994   3.721   9.707   2.580
31584WAT     H294995   3.747   9.622   2.443
31585WAT      O94996   5.898   8.759   8.698
31585WAT     H194997   5.845   8.722   8.774
31585WAT     H294998   5.892   8.859   8.697
31586WAT      O94999   2.056   7.121   0.198
31586WAT     H195000   2.045   7.053   0.126
31586WAT     H295001   1.967   7.162   0.219
31587WAT      O95002   5.151   3.510   8.337
31587WAT     H195003   5.101   3.522   8.251
31587WAT     H295004   5.121   3.425   8.380
31588WAT      O95005   8.231   4.982   5.149
31588WAT     H195006   8.278   5.049   5.206
31588WAT     H295007   8.279   4.894   5.154
31589WAT      O95008   8.823   3.634   8.806
31589WAT     H195009   8.764   3.704   8.768
31589WAT     H295010   8.814   3.632   8.906
31590WAT      O95011   8.249   8.093   2.255
31590WAT     H195012   8.180   8.138   2.311
31590WAT     H295013   8.216   8.088   2.160
31591WAT      O95014   6.366   0.252   3.466
31591WAT     H195015   6.414   0.334   3.497
31591WAT     H295016   6.325   0.269   3.377
31592WAT      O95017   7.820   6.782   7.043
31592WAT     H195018   7.774   6.759   6.957
31592WAT     H295019   7.862   6.700   7.081
31593WAT      O95020   8.575   6.768   6.256
31593WAT     H195021   8.560   6.687   6.200
31593WAT     H295022   8.655   6.818   6.223
31594WAT      O95023   1.712   9.757   4.987
31594WAT     H195024   1.635   9.698   5.014
31594WAT     H295025   1.796   9.724   5.030
31595WAT      O95026   1.887   7.505   1.477
31595WAT     H195027   1.956   7.577   1.490
31595WAT     H295028   1.926   7.417   1.503
31596WAT      O95029   8.592   8.952   1.757
31596WAT     H195030   8.523   9.020   1.782
31596WAT     H295031   8.677   8.971   1.805
31597WAT      O95032   4.464   0.265   6.132
31597WAT     H195033   4.434   0.224   6.218
31597WAT     H295034   4.460   0.365   6.139
31598WAT      O95035   2.807   9.568   3.610
31598WAT     H195036   2.728   9.545   3.553
31598WAT     H295037   2.776   9.610   3.695
31599WAT      O95038   6.328   6.202   3.525
31599WAT     H195039   6.422   6.236   3.516
31599WAT     H295040   6.264   6.276   3.505
31600WAT      O95041   0.867   8.291   0.193
31600WAT     H195042   0.823   8.381   0.199
31600WAT     H295043   0.897   8.276   0.099
31601WAT      O95044   8.473   2.917   7.411
31601WAT     H195045   8.396   2.943   7.469
31601WAT     H295046   8.440   2.897   7.319
31602WAT      O95047   0.703   9.554   1.751
31602WAT     H195048   0.740   9.553   1.844
31602WAT     H295049   0.644   9.474   1.738
31603WAT      O95050   9.084   3.660   0.104
31603WAT     H195051   9.069   3.565   0.129
31603WAT     H295052   9.093   3.668   0.005
31604WAT      O95053   3.574   8.897   1.416
31604WAT     H195054   3.483   8.932   1.438
31604WAT     H295055   3.603   8.831   1.487
31605WAT      O95056   7.816   6.765   9.519
31605WAT     H195057   7.869   6.804   9.443
31605WAT     H295058   7.878   6.725   9.586
31606WAT      O95059   5.769   9.607   7.061
31606WAT     H195060   5.750   9.661   6.979
31606WAT     H295061   5.753   9.664   7.142
31607WAT      O95062   1.979   4.995   4.707
31607WAT     H195063   1.897   4.982   4.762
31607WAT     H295064   1.971   4.940   4.623
31608WAT      O95065   3.690   8.886   1.178
31608WAT     H195066   3.612   8.874   1.116
31608WAT     H295067   3.657   8.921   1.266
31609WAT      O95068   7.861   8.573   7.209
31609WAT     H195069   7.911   8.575   7.122
31609WAT     H295070   7.873   8.660   7.256
31610WAT      O95071   3.795   8.012   9.003
31610WAT     H195072   3.718   8.064   8.967
31610WAT     H295073   3.857   8.073   9.053
31611WAT      O95074   7.114   1.890   0.650
31611WAT     H195075   7.068   1.855   0.568
31611WAT     H295076   7.057   1.872   0.730
31612WAT      O95077   5.456   3.189   3.900
31612WAT     H195078   5.441   3.263   3.966
31612WAT     H295079   5.554   3.180   3.883
31613WAT      O95080   8.507   2.560   4.364
31613WAT     H195081   8.470   2.561   4.271
31613WAT     H295082   8.465   2.633   4.417
31614WAT      O95083   9.364   2.886   3.197
31614WAT     H195084   9.379   2.851   3.289
31614WAT     H295085   9.447   2.874   3.142
31615WAT      O95086   8.985   6.055   4.584
31615WAT     H195087   8.890   6.059   4.614
31615WAT     H295088   9.029   5.976   4.626
31616WAT      O95089   2.124   9.423   7.106
31616WAT     H195090   2.066   9.502   7.123
31616WAT     H295091   2.220   9.447   7.121
31617WAT      O95092   9.591   9.552   3.557
31617WAT     H195093   9.672   9.610   3.557
31617WAT     H295094   9.579   9.511   3.648
31618WAT      O95095   1.466   1.703   0.182
31618WAT     H195096   1.502   1.696   0.089
31618WAT     H295097   1.461   1.613   0.223
31619WAT      O95098   5.332   3.096   4.501
31619WAT     H195099   5.267   3.114   4.574
31619WAT     H295100   5.316   3.160   4.425
31620WAT      O95101   0.546   4.581   7.564
31620WAT     H195102   0.609   4.612   7.492
31620WAT     H295103   0.533   4.655   7.630
31621WAT      O95104   2.601   0.388   3.922
31621WAT     H195105   2.528   0.340   3.873
31621WAT     H295106   2.646   0.325   3.985
31622WAT      O95107   6.058   1.811   0.064
31622WAT     H195108   6.043   1.772   0.154
31622WAT     H295109   5.992   1.885   0.048
31623WAT      O95110   4.870   7.931   9.446
31623WAT     H195111   4.862   8.027   9.419
31623WAT     H295112   4.959   7.915   9.488
31624WAT      O95113   7.720   5.806   8.873
31624WAT     H195114   7.678   5.729   8.920
31624WAT     H295115   7.659   5.840   8.802
31625WAT      O95116   3.019   1.959   8.032
31625WAT     H195117   3.068   1.927   8.113
31625WAT     H295118   3.085   1.984   7.961
31626WAT      O95119   3.776   6.062   8.201
31626WAT     H195120   3.818   6.146   8.236
31626WAT     H295121   3.777   5.992   8.272
31627WAT      O95122   8.409   4.889   3.278
31627WAT     H195123   8.439   4.815   3.218
31627WAT     H295124   8.329   4.934   3.237
31628WAT      O95125   1.300   2.334   2.805
31628WAT     H195126   1.366   2.357   2.877
31628WAT     H295127   1.326   2.248   2.762
31629WAT      O95128   0.624   7.363   5.066
31629WAT     H195129   0.533   7.323   5.053
31629WAT     H295130   0.616   7.445   5.123
31630WAT      O95131   2.367   6.102   7.393
31630WAT     H195132   2.355   6.150   7.479
31630WAT     H295133   2.300   6.135   7.327
31631WAT      O95134   1.542   7.253   4.366
31631WAT     H195135   1.642   7.257   4.372
31631WAT     H295136   1.514   7.250   4.271
31632WAT      O95137   3.750   6.635   7.320
31632WAT     H195138   3.842   6.665   7.345
31632WAT     H295139   3.725   6.675   7.232
31633WAT      O95140   7.887   6.777   5.038
31633WAT     H195141   7.901   6.876   5.050
31633WAT     H295142   7.952   6.742   4.971
31634WAT      O95143   7.601   4.188   1.490
31634WAT     H195144   7.539   4.110   1.485
31634WAT     H295145   7.694   4.156   1.510
31635WAT      O95146   1.235   7.219   5.255
31635WAT     H195147   1.314   7.172   5.217
31635WAT     H295148   1.215   7.300   5.200
31636WAT      O95149   2.114   4.933   5.276
31636WAT     H195150   2.057   4.949   5.196
31636WAT     H295151   2.142   4.837   5.279
31637WAT      O95152   2.766   9.657   1.005
31637WAT     H195153   2.765   9.576   1.064
31637WAT     H295154   2.856   9.700   1.008
31638WAT      O95155   9.288   2.154   9.639
31638WAT     H195156   9.289   2.169   9.738
31638WAT     H295157   9.221   2.216   9.596
31639WAT      O95158   5.498   7.335   3.518
31639WAT     H195159   5.511   7.238   3.495
31639WAT     H295160   5.432   7.375   3.455
31640WAT      O95161   2.339   9.787   7.025
31640WAT     H195162   2.411   9.814   6.960
31640WAT     H295163   2.370   9.806   7.118
31641WAT      O95164   8.194   4.771   1.936
31641WAT     H195165   8.115   4.785   1.878
31641WAT     H295166   8.165   4.762   2.032
31642WAT      O95167   5.972   8.284   8.256
31642WAT     H195168   5.916   8.213   8.212
31642WAT     H295169   5.943   8.374   8.223
31643WAT      O95170   0.070   8.777   2.997
31643WAT     H195171   0.137   8.798   2.926
31643WAT     H295172   0.104   8.702   3.054
31644WAT      O95173   0.872   5.126   1.143
31644WAT     H195174   0.883   5.156   1.238
31644WAT     H295175   0.951   5.070   1.116
31645WAT      O95176   6.015   5.174   7.359
31645WAT     H195177   6.001   5.271   7.336
31645WAT     H295178   6.091   5.166   7.424
31646WAT      O95179   4.059   7.624   4.129
31646WAT     H195180   4.123   7.553   4.159
31646WAT     H295181   4.011   7.660   4.209
31647WAT      O95182   6.155   9.366   6.185
31647WAT     H195183   6.212   9.415   6.251
31647WAT     H295184   6.169   9.404   6.094
31648WAT      O95185   6.371   3.674   7.542
31648WAT     H195186   6.328   3.756   7.577
31648WAT     H295187   6.320   3.640   7.462
31649WAT      O95188   7.593   4.255   0.334
31649WAT     H195189   7.619   4.352   0.336
31649WAT     H295190   7.605   4.219   0.241
31650WAT      O95191   9.233   7.108   1.532
31650WAT     H195192   9.190   7.071   1.615
31650WAT     H295193   9.231   7.038   1.460
31651WAT      O95194   7.164   9.616   7.474
31651WAT     H195195   7.099   9.632   7.400
31651WAT     H295196   7.117   9.624   7.562
31652WAT      O95197   5.231   0.244   1.177
31652WAT     H195198   5.308   0.307   1.168
31652WAT     H295199   5.226   0.212   1.272
31653WAT      O95200   7.577   6.479   8.771
31653WAT     H195201   7.600   6.382   8.768
31653WAT     H295202   7.641   6.526   8.831
31654WAT      O95203   9.345   5.428   1.626
31654WAT     H195204   9.320   5.336   1.596
31654WAT     H295205   9.421   5.462   1.570
31655WAT      O95206   2.494   8.903   6.052
31655WAT     H195207   2.437   8.925   6.131
31655WAT     H295208   2.590   8.917   6.075
31656WAT      O95209   9.345   5.476   1.079
31656WAT     H195210   9.260   5.525   1.100
31656WAT     H295211   9.403   5.474   1.160
31657WAT      O95212   1.912   9.829   7.551
31657WAT     H195213   1.941   9.831   7.647
31657WAT     H295214   1.974   9.771   7.498
31658WAT      O95215   4.387   2.033   8.532
31658WAT     H195216   4.429   2.050   8.621
31658WAT     H295217   4.354   2.119   8.493
31659WAT      O95218   8.542   4.584   8.792
31659WAT     H195219   8.599   4.537   8.725
31659WAT     H295220   8.484   4.519   8.840
31660WAT      O95221   1.599   2.733   1.843
31660WAT     H195222   1.673   2.781   1.797
31660WAT     H295223   1.622   2.721   1.940
31661WAT      O95224   2.321   3.832   9.123
31661WAT     H195225   2.359   3.924   9.120
31661WAT     H295226   2.235   3.832   9.174
31662WAT      O95227   7.228   5.225   5.006
31662WAT     H195228   7.272   5.308   4.973
31662WAT     H295229   7.257   5.206   5.099
31663WAT      O95230   7.657   5.657   5.900
31663WAT     H195231   7.704   5.614   5.823
31663WAT     H295232   7.567   5.615   5.913
31664WAT      O95233   8.257   2.687   4.878
31664WAT     H195234   8.338   2.742   4.861
31664WAT     H295235   8.227   2.643   4.793
31665WAT      O95236   9.277   3.459   9.548
31665WAT     H195237   9.323   3.467   9.460
31665WAT     H295238   9.312   3.378   9.597
31666WAT      O95239   4.365   6.037   5.956
31666WAT     H195240   4.283   6.061   5.904
31666WAT     H295241   4.342   5.971   6.027
31667WAT      O95242   2.162   9.195   1.259
31667WAT     H195243   2.194   9.114   1.309
31667WAT     H295244   2.186   9.186   1.162
31668WAT      O95245   6.454   4.589   7.073
31668WAT     H195246   6.521   4.516   7.070
31668WAT     H295247   6.482   4.658   7.140
31669WAT      O95248   3.465   6.148   7.170
31669WAT     H195249   3.418   6.062   7.189
31669WAT     H295250   3.462   6.206   7.252
31670WAT      O95251   5.031   2.789   0.222
31670WAT     H195252   5.087   2.862   0.182
31670WAT     H295253   4.985   2.739   0.149
31671WAT      O95254   1.294   8.289   6.270
31671WAT     H195255   1.349   8.219   6.315
31671WAT     H295256   1.271   8.258   6.177
31672WAT      O95257   7.171   3.041   8.948
31672WAT     H195258   7.137   2.973   9.013
31672WAT     H295259   7.266   3.021   8.925
31673WAT      O95260   6.138   0.053   3.306
31673WAT     H195261   6.218   0.081   3.254
31673WAT     H295262   6.060   0.110   3.280
31674WAT      O95263   7.659   8.445   6.243
31674WAT     H195264   7.592   8.475   6.310
31674WAT     H295265   7.718   8.522   6.218
31675WAT      O95266   0.524   6.459   6.193
31675WAT     H195267   0.581   6.470   6.111
31675WAT     H295268   0.452   6.528   6.193
31676WAT      O95269   6.924   2.813   6.391
31676WAT     H195270   6.872   2.888   6.349
31676WAT     H295271   6.878   2.726   6.373
31677WAT      O95272   0.722   0.273   6.331
31677WAT     H195273   0.816   0.252   6.304
31677WAT     H295274   0.719   0.361   6.377
31678WAT      O95275   1.013   3.635   9.133
31678WAT     H195276   0.951   3.595   9.065
31678WAT     H295277   0.976   3.723   9.163
31679WAT      O95278   8.285   1.386   4.014
31679WAT     H195279   8.244   1.364   3.925
31679WAT     H295280   8.385   1.388   4.005
31680WAT      O95281   1.585   2.245   4.736
31680WAT     H195282   1.487   2.255   4.714
31680WAT     H295283   1.637   2.235   4.651
31681WAT      O95284   9.560   6.683   5.708
31681WAT     H195285   9.541   6.774   5.671
31681WAT     H295286   9.490   6.619   5.676
31682WAT      O95287   2.399   0.174   8.030
31682WAT     H195288   2.354   0.262   8.013
31682WAT     H295289   2.498   0.188   8.034
31683WAT      O95290   7.209   3.213   0.721
31683WAT     H195291   7.227   3.147   0.649
31683WAT     H295292   7.267   3.194   0.800
31684WAT      O95293   8.264   4.282   6.323
31684WAT     H195294   8.272   4.237   6.412
31684WAT     H295295   8.279   4.215   6.251
31685WAT      O95296   0.893   0.575   9.456
31685WAT     H195297   0.985   0.615   9.456
31685WAT     H295298   0.899   0.476   9.446
31686WAT      O95299   3.385   3.311   1.988
31686WAT     H195300   3.365   3.406   1.964
31686WAT     H295301   3.349   3.291   2.079
31687WAT      O95302   8.401   4.943   7.357
31687WAT     H195303   8.490   4.972   7.322
31687WAT     H295304   8.408   4.848   7.390
31688WAT      O95305   6.507   2.858   8.778
31688WAT     H195306   6.531   2.909   8.861
31688WAT     H295307   6.501   2.761   8.798
31689WAT      O95308   9.260   7.786   7.450
31689WAT     H195309   9.161   7.798   7.463
31689WAT     H295310   9.297   7.734   7.527
31690WAT      O95311   8.625   5.562   3.824
31690WAT     H195312   8.716   5.530   3.799
31690WAT     H295313   8.558   5.491   3.801
31691WAT      O95314   9.875   7.165   4.456
31691WAT     H195315   9.858   7.091   4.390
31691WAT     H295316   9.900   7.126   4.544
31692WAT      O95317   9.290   3.703   8.511
31692WAT     H195318   9.223   3.713   8.585
31692WAT     H295319   9.360   3.774   8.521
31693WAT      O95320   0.537   6.571   8.520
31693WAT     H195321   0.538   6.575   8.620
31693WAT     H295322   0.613   6.625   8.484
31694WAT      O95323   6.053   6.312   4.929
31694WAT     H195324   5.985   6.375   4.966
31694WAT     H295325   6.053   6.319   4.829
31695WAT      O95326   5.664   8.960   8.746
31695WAT     H195327   5.626   9.039   8.793
31695WAT     H295328   5.728   8.990   8.675
31696WAT      O95329   6.388   7.104   2.367
31696WAT     H195330   6.316   7.172   2.378
31696WAT     H295331   6.463   7.123   2.430
31697WAT      O95332   7.897   1.665   4.010
31697WAT     H195333   7.934   1.726   3.939
31697WAT     H295334   7.840   1.595   3.968
31698WAT      O95335   4.127   5.916   5.221
31698WAT     H195336   4.038   5.882   5.188
31698WAT     H295337   4.133   6.014   5.204
31699WAT      O95338   9.623   7.207   7.808
31699WAT     H195339   9.556   7.158   7.753
31699WAT     H295340   9.715   7.178   7.781
31700WAT      O95341   0.850   8.175   3.579
31700WAT     H195342   0.915   8.120   3.631
31700WAT     H295343   0.759   8.133   3.584
31701WAT      O95344   5.501   4.501   7.866
31701WAT     H195345   5.470   4.595   7.856
31701WAT     H295346   5.507   4.458   7.776
31702WAT      O95347   5.132   9.152   5.535
31702WAT     H195348   5.117   9.239   5.489
31702WAT     H295349   5.220   9.155   5.584
31703WAT      O95350   8.069   9.522   4.211
31703WAT     H195351   8.166   9.547   4.204
31703WAT     H295352   8.019   9.595   4.257
31704WAT      O95353   6.719   6.314   7.260
31704WAT     H195354   6.808   6.294   7.301
31704WAT     H295355   6.651   6.249   7.294
31705WAT      O95356   4.730   6.272   0.233
31705WAT     H195357   4.672   6.193   0.254
31705WAT     H295358   4.779   6.256   0.147
31706WAT      O95359   1.609   5.464   1.630
31706WAT     H195360   1.548   5.428   1.701
31706WAT     H295361   1.617   5.563   1.641
31707WAT      O95362   5.065   9.583   7.429
31707WAT     H195363   5.141   9.522   7.452
31707WAT     H295364   5.099   9.657   7.371
31708WAT      O95365   8.265   5.582   3.363
31708WAT     H195366   8.262   5.623   3.272
31708WAT     H295367   8.235   5.487   3.358
31709WAT      O95368   8.684   4.042   4.391
31709WAT     H195369   8.709   4.063   4.485
31709WAT     H295370   8.716   4.115   4.331
31710WAT      O95371   0.903   3.793   1.752
31710WAT     H195372   0.945   3.757   1.835
31710WAT     H295373   0.926   3.890   1.741
31711WAT      O95374   4.344   8.573   2.885
31711WAT     H195375   4.395   8.493   2.914
31711WAT     H295376   4.356   8.646   2.952
31712WAT      O95377   0.471   1.383   1.283
31712WAT     H195378   0.442   1.290   1.262
31712WAT     H295379   0.518   1.422   1.204
31713WAT      O95380   7.712   3.085   0.110
31713WAT     H195381   7.751   3.078   0.018
31713WAT     H295382   7.614   3.063   0.106
31714WAT      O95383   9.478   4.567   4.629
31714WAT     H195384   9.387   4.578   4.668
31714WAT     H295385   9.501   4.648   4.574
31715WAT      O95386   6.488   8.675   5.769
31715WAT     H195387   6.392   8.691   5.791
31715WAT     H295388   6.508   8.577   5.775
31716WAT      O95389   8.303   3.432   7.032
31716WAT     H195390   8.355   3.368   7.089
31716WAT     H295391   8.207   3.403   7.028
31717WAT      O95392   7.586   2.470   5.305
31717WAT     H195393   7.595   2.556   5.355
31717WAT     H295394   7.501   2.424   5.332
31718WAT      O95395   9.602   5.093   9.499
31718WAT     H195396   9.614   5.033   9.578
31718WAT     H295397   9.677   5.079   9.434
31719WAT      O95398   4.824   1.539   0.125
31719WAT     H195399   4.773   1.454   0.140
31719WAT     H295400   4.838   1.586   0.211
31720WAT      O95401   0.604   2.226   7.110
31720WAT     H195402   0.624   2.318   7.076
31720WAT     H295403   0.684   2.168   7.099
31721WAT      O95404   3.552   8.753   5.539
31721WAT     H195405   3.636   8.701   5.521
31721WAT     H295406   3.553   8.785   5.634
31722WAT      O95407   8.580   5.868   0.114
31722WAT     H195408   8.527   5.785   0.096
31722WAT     H295409   8.668   5.843   0.155
31723WAT      O95410   4.354   7.209   4.605
31723WAT     H195411   4.448   7.245   4.602
31723WAT     H295412   4.324   7.202   4.700
31724WAT      O95413   9.764   1.971   0.691
31724WAT     H195414   9.774   2.017   0.603
31724WAT     H295415   9.745   2.038   0.762
31725WAT      O95416   2.142   4.460   2.283
31725WAT     H195417   2.158   4.369   2.321
31725WAT     H295418   2.110   4.452   2.189
31726WAT      O95419   5.554   1.128   9.662
31726WAT     H195420   5.507   1.187   9.596
31726WAT     H295421   5.487   1.084   9.721
31727WAT      O95422   3.837   9.108   5.567
31727WAT     H195423   3.886   9.193   5.585
31727WAT     H295424   3.903   9.037   5.541
31728WAT      O95425   0.343   6.302   0.449
31728WAT     H195426   0.354   6.283   0.547
31728WAT     H295427   0.287   6.230   0.408
31729WAT      O95428   9.113   5.169   4.442
31729WAT     H195429   9.159   5.256   4.459
31729WAT     H295430   9.127   5.108   4.521
31730WAT      O95431   8.686   2.951   9.270
31730WAT     H195432   8.738   2.870   9.296
31730WAT     H295433   8.693   3.020   9.341
31731WAT      O95434   3.466   0.135   5.448
31731WAT     H195435   3.442   0.206   5.515
31731WAT     H295436   3.389   0.119   5.387
31732WAT      O95437   8.989   6.749   1.651
31732WAT     H195438   8.953   6.695   1.727
31732WAT     H295439   8.995   6.845   1.679
31733WAT      O95440   3.444   6.553   0.570
31733WAT     H195441   3.361   6.577   0.621
31733WAT     H295442   3.422   6.483   0.502
31734WAT      O95443   5.450   8.173   4.179
31734WAT     H195444   5.534   8.212   4.143
31734WAT     H295445   5.441   8.195   4.276
31735WAT      O95446   1.678   2.433   8.097
31735WAT     H195447   1.765   2.441   8.145
31735WAT     H295448   1.676   2.500   8.023
31736WAT      O95449   1.174   9.103   8.280
31736WAT     H195450   1.200   9.199   8.269
31736WAT     H295451   1.257   9.047   8.284
31737WAT      O95452   9.291   1.384   2.035
31737WAT     H195453   9.250   1.306   2.082
31737WAT     H295454   9.296   1.364   1.937
31738WAT      O95455   1.517   8.185   2.241
31738WAT     H195456   1.588   8.139   2.187
31738WAT     H295457   1.429   8.140   2.227
31739WAT      O95458   9.688   6.761   9.810
31739WAT     H195459   9.688   6.851   9.765
31739WAT     H295460   9.600   6.717   9.795
31740WAT      O95461   7.505   9.332   7.566
31740WAT     H195462   7.498   9.384   7.651
31740WAT     H295463   7.428   9.354   7.507
31741WAT      O95464   4.931   2.654   7.191
31741WAT     H195465   5.001   2.706   7.239
31741WAT     H295466   4.863   2.717   7.153
31742WAT      O95467   9.494   4.534   3.642
31742WAT     H195468   9.428   4.469   3.604
31742WAT     H295469   9.445   4.605   3.693
31743WAT      O95470   5.336   3.782   9.688
31743WAT     H195471   5.286   3.744   9.766
31743WAT     H295472   5.323   3.881   9.685
31744WAT      O95473   2.236   7.762   7.646
31744WAT     H195474   2.259   7.781   7.550
31744WAT     H295475   2.219   7.664   7.657
31745WAT      O95476   4.213   7.912   5.757
31745WAT     H195477   4.191   7.836   5.818
31745WAT     H295478   4.130   7.967   5.741
31746WAT      O95479   2.032   3.277   6.074
31746WAT     H195480   1.946   3.291   6.024
31746WAT     H295481   2.011   3.253   6.168
31747WAT      O95482   8.434   6.161   9.621
31747WAT     H195483   8.425   6.072   9.575
31747WAT     H295484   8.492   6.221   9.567
31748WAT      O95485   6.377   7.908   1.892
31748WAT     H195486   6.408   7.831   1.947
31748WAT     H295487   6.444   7.926   1.820
31749WAT      O95488   6.081   2.891   6.714
31749WAT     H195489   5.987   2.857   6.718
31749WAT     H295490   6.081   2.982   6.672
31750WAT      O95491   6.567   7.754   3.075
31750WAT     H195492   6.577   7.673   3.133
31750WAT     H295493   6.519   7.826   3.125
31751WAT      O95494   7.440   2.887   4.120
31751WAT     H195495   7.473   2.875   4.026
31751WAT     H295496   7.471   2.975   4.155
31752WAT      O95497   7.475   7.501   7.558
31752WAT     H195498   7.557   7.509   7.502
31752WAT     H295499   7.397   7.538   7.509
31753WAT      O95500   6.779   1.265   6.156
31753WAT     H195501   6.868   1.232   6.126
31753WAT     H295502   6.775   1.265   6.256
31754WAT      O95503   5.376   8.726   2.152
31754WAT     H195504   5.374   8.694   2.247
31754WAT     H295505   5.406   8.651   2.093
31755WAT      O95506   0.228   4.891   9.512
31755WAT     H195507   0.310   4.851   9.555
31755WAT     H295508   0.209   4.844   9.426
31756WAT      O95509   7.811   7.126   7.982
31756WAT     H195510   7.768   7.181   8.054
31756WAT     H295511   7.906   7.155   7.971
31757WAT      O95512   1.638   5.303   2.504
31757WAT     H195513   1.613   5.331   2.411
31757WAT     H295514   1.586   5.223   2.530
31758WAT      O95515   8.195   7.741   0.492
31758WAT     H195516   8.254   7.728   0.412
31758WAT     H295517   8.196   7.658   0.548
31759WAT      O95518   3.896   4.208   6.637
31759WAT     H195519   3.904   4.112   6.663
31759WAT     H295520   3.892   4.265   6.720
31760WAT      O95521   2.898   3.533   6.191
31760WAT     H195522   2.952   3.584   6.258
31760WAT     H295523   2.871   3.594   6.117
31761WAT      O95524   6.851   7.020   7.630
31761WAT     H195525   6.829   6.960   7.553
31761WAT     H295526   6.868   7.112   7.597
31762WAT      O95527   9.283   5.344   9.689
31762WAT     H195528   9.275   5.265   9.749
31762WAT     H295529   9.220   5.416   9.720
31763WAT      O95530   3.247   7.288   1.183
31763WAT     H195531   3.310   7.366   1.192
31763WAT     H295532   3.193   7.278   1.267
31764WAT      O95533   2.552   8.527   3.400
31764WAT     H195534   2.609   8.495   3.324
31764WAT     H295535   2.556   8.627   3.404
31765WAT      O95536   1.118   8.634   9.784
31765WAT     H195537   1.199   8.621   9.841
31765WAT     H295538   1.093   8.546   9.742
31766WAT      O95539   0.649   9.055   0.709
31766WAT     H195540   0.663   9.126   0.640
31766WAT     H295541   0.706   8.976   0.689
31767WAT      O95542   9.666   0.183   2.992
31767WAT     H195543   9.630   0.256   2.934
31767WAT     H295544   9.592   0.121   3.018
31768WAT      O95545   3.821   0.348   6.931
31768WAT     H195546   3.814   0.418   7.002
31768WAT     H295547   3.777   0.264   6.963
31769WAT      O95548   5.594   8.440   1.790
31769WAT     H195549   5.536   8.406   1.716
31769WAT     H295550   5.654   8.367   1.821
31770WAT      O95551   3.512   7.805   8.623
31770WAT     H195552   3.432   7.749   8.602
31770WAT     H295553   3.550   7.843   8.538
31771WAT      O95554   4.667   9.644   3.581
31771WAT     H195555   4.761   9.624   3.609
31771WAT     H295556   4.608   9.569   3.611
31772WAT      O95557   8.601   6.330   9.492
31772WAT     H195558   8.628   6.412   9.441
31772WAT     H295559   8.638   6.249   9.447
31773WAT      O95560   0.709   3.416   7.328
31773WAT     H195561   0.801   3.416   7.366
31773WAT     H295562   0.663   3.331   7.354
31774WAT      O95563   0.371   8.083   1.633
31774WAT     H195564   0.285   8.103   1.679
31774WAT     H295565   0.435   8.159   1.647
31775WAT      O95566   7.360   8.731   4.901
31775WAT     H195567   7.271   8.706   4.864
31775WAT     H295568   7.364   8.831   4.913
31776WAT      O95569   0.026   7.956   8.760
31776WAT     H195570  -0.069   7.925   8.756
31776WAT     H295571   0.087   7.879   8.738
31777WAT      O95572   1.290   1.101   9.841
31777WAT     H195573   1.219   1.117   9.773
31777WAT     H295574   1.278   1.011   9.882
31778WAT      O95575   6.760   0.332   7.318
31778WAT     H195576   6.731   0.259   7.256
31778WAT     H295577   6.831   0.387   7.274
31779WAT      O95578   1.905   0.970   2.571
31779WAT     H195579   1.825   1.025   2.594
31779WAT     H295580   1.904   0.950   2.473
31780WAT      O95581   9.507   5.308   6.964
31780WAT     H195582   9.524   5.271   7.055
31780WAT     H295583   9.418   5.275   6.931
31781WAT      O95584   8.168   7.128   8.799
31781WAT     H195585   8.212   7.132   8.888
31781WAT     H295586   8.104   7.052   8.797
31782WAT      O95587   6.615   6.305   6.726
31782WAT     H195588   6.536   6.262   6.682
31782WAT     H295589   6.636   6.258   6.812
31783WAT      O95590   5.271   3.738   4.836
31783WAT     H195591   5.337   3.720   4.909
31783WAT     H295592   5.182   3.699   4.860
31784WAT      O95593   9.328   7.571   6.940
31784WAT     H195594   9.380   7.654   6.956
31784WAT     H295595   9.362   7.524   6.859
31785WAT      O95596   7.925   5.749   7.484
31785WAT     H195597   8.019   5.726   7.458
31785WAT     H295598   7.881   5.670   7.526
31786WAT      O95599   1.159   7.624   1.587
31786WAT     H195600   1.202   7.534   1.599
31786WAT     H295601   1.227   7.696   1.599
31787WAT      O95602   4.703   4.349   0.916
31787WAT     H195603   4.662   4.338   0.826
31787WAT     H295604   4.740   4.441   0.925
31788WAT      O95605   0.214   1.751   3.440
31788WAT     H195606   0.266   1.836   3.448
31788WAT     H295607   0.121   1.765   3.472
31789WAT      O95608   9.552   4.566   7.443
31789WAT     H195609   9.644   4.591   7.473
31789WAT     H295610   9.486   4.635   7.473
31790WAT      O95611   6.562   7.921   9.614
31790WAT     H195612   6.568   7.829   9.574
31790WAT     H295613   6.496   7.920   9.689
31791WAT      O95614   3.226   5.001   5.571
31791WAT     H195615   3.128   4.987   5.584
31791WAT     H295616   3.271   4.912   5.562
31792WAT      O95617   6.054   9.083   4.934
31792WAT     H195618   6.057   9.034   5.021
31792WAT     H295619   6.146   9.090   4.896
31793WAT      O95620   3.189   7.014   5.425
31793WAT     H195621   3.253   7.088   5.408
31793WAT     H295622   3.195   6.947   5.350
31794WAT      O95623   0.054   9.634   2.764
31794WAT     H195624   0.012   9.714   2.808
31794WAT     H295625   0.023   9.551   2.810
31795WAT      O95626   7.520   0.713   6.128
31795WAT     H195627   7.586   0.739   6.057
31795WAT     H295628   7.428   0.740   6.099
31796WAT      O95629   9.116   5.816   2.153
31796WAT     H195630   9.136   5.719   2.159
31796WAT     H295631   9.192   5.864   2.110
31797WAT      O95632   1.201   1.489   5.385
31797WAT     H195633   1.290   1.533   5.370
31797WAT     H295634   1.210   1.390   5.373
31798WAT      O95635   1.446   0.176   3.898
31798WAT     H195636   1.386   0.123   3.837
31798WAT     H295637   1.448   0.271   3.868
31799WAT      O95638   6.502   7.137   8.496
31799WAT     H195639   6.453   7.222   8.514
31799WAT     H295640   6.535   7.098   8.582
31800WAT      O95641   5.226   3.537   2.794
31800WAT     H195642   5.162   3.538   2.872
31800WAT     H295643   5.195   3.603   2.726
31801WAT      O95644   9.365   5.428   8.780
31801WAT     H195645   9.425   5.490   8.730
31801WAT     H295646   9.419   5.353   8.820
31802WAT      O95647   6.372   8.403   4.543
31802WAT     H195648   6.391   8.427   4.638
31802WAT     H295649   6.276   8.373   4.535
31803WAT      O95650   0.559   8.189   6.757
31803WAT     H195651   0.484   8.239   6.712
31803WAT     H295652   0.635   8.180   6.693
31804WAT      O95653   0.080   7.406   5.961
31804WAT     H195654   0.066   7.317   6.005
31804WAT     H295655   0.125   7.468   6.024
31805WAT      O95656   8.808   2.599   2.287
31805WAT     H195657   8.908   2.604   2.288
31805WAT     H295658   8.771   2.660   2.358
31806WAT      O95659   6.938   6.557   3.080
31806WAT     H195660   6.909   6.568   2.985
31806WAT     H295661   6.973   6.644   3.115
31807WAT      O95662   1.249   3.271   1.755
31807WAT     H195663   1.337   3.302   1.790
31807WAT     H295664   1.231   3.178   1.787
31808WAT      O95665   9.794   5.549   4.636
31808WAT     H195666   9.718   5.611   4.652
31808WAT     H295667   9.793   5.519   4.540
31809WAT      O95668   1.540   6.876   3.753
31809WAT     H195669   1.542   6.813   3.831
31809WAT     H295670   1.493   6.832   3.677
31810WAT      O95671   6.822   2.347   6.813
31810WAT     H195672   6.868   2.434   6.792
31810WAT     H295673   6.882   2.272   6.786
31811WAT      O95674   4.808   2.470   7.356
31811WAT     H195675   4.734   2.455   7.292
31811WAT     H295676   4.875   2.533   7.316
31812WAT      O95677   1.437   3.731   5.566
31812WAT     H195678   1.350   3.778   5.549
31812WAT     H295679   1.512   3.797   5.555
31813WAT      O95680   9.189   7.997   2.182
31813WAT     H195681   9.116   7.929   2.183
31813WAT     H295682   9.278   7.951   2.180
31814WAT      O95683   3.968   0.956   0.562
31814WAT     H195684   3.917   1.040   0.547
31814WAT     H295685   3.906   0.884   0.593
31815WAT      O95686   6.363   8.578   4.075
31815WAT     H195687   6.368   8.600   4.172
31815WAT     H295688   6.382   8.661   4.022
31816WAT      O95689   7.652   3.717   5.812
31816WAT     H195690   7.613   3.695   5.902
31816WAT     H295691   7.678   3.813   5.810
31817WAT      O95692   7.945   7.122   3.902
31817WAT     H195693   7.995   7.204   3.872
31817WAT     H295694   7.857   7.149   3.941
31818WAT      O95695   9.238   5.603   1.793
31818WAT     H195696   9.271   5.529   1.735
31818WAT     H295697   9.292   5.686   1.776
31819WAT      O95698   4.739   5.572   7.908
31819WAT     H195699   4.722   5.559   7.811
31819WAT     H295700   4.721   5.487   7.957
31820WAT      O95701   7.113   6.550   3.622
31820WAT     H195702   7.209   6.549   3.596
31820WAT     H295703   7.064   6.617   3.567
31821WAT      O95704   4.632   5.234   0.339
31821WAT     H195705   4.598   5.293   0.412
31821WAT     H295706   4.634   5.285   0.253
31822WAT      O95707   6.697   0.153   9.541
31822WAT     H195708   6.693   0.055   9.522
31822WAT     H295709   6.786   0.189   9.513
31823WAT      O95710   5.564   9.267   5.461
31823WAT     H195711   5.499   9.333   5.497
31823WAT     H295712   5.600   9.211   5.536
31824WAT      O95713   1.267   4.527   5.794
31824WAT     H195714   1.339   4.595   5.802
31824WAT     H295715   1.287   4.450   5.856
31825WAT      O95716   0.141   2.163   2.332
31825WAT     H195717   0.042   2.146   2.332
31825WAT     H295718   0.173   2.171   2.237
31826WAT      O95719   5.772   4.659   5.426
31826WAT     H195720   5.715   4.589   5.383
31826WAT     H295721   5.838   4.693   5.359
31827WAT      O95722   7.063   4.486   7.038
31827WAT     H195723   7.056   4.394   7.078
31827WAT     H295724   6.976   4.534   7.049
31828WAT      O95725   1.623   9.148   5.327
31828WAT     H195726   1.650   9.053   5.317
31828WAT     H295727   1.563   9.173   5.251
31829WAT      O95728   6.985   5.043   5.363
31829WAT     H195729   7.013   5.026   5.457
31829WAT     H295730   7.012   5.135   5.336
31830WAT      O95731   4.627   9.067   1.325
31830WAT     H195732   4.594   9.158   1.351
31830WAT     H295733   4.721   9.056   1.357
31831WAT      O95734   0.023   1.842   4.767
31831WAT     H195735  -0.068   1.804   4.750
31831WAT     H295736   0.014   1.937   4.797
31832WAT      O95737   3.075   7.075   1.057
31832WAT     H195738   3.162   7.124   1.061
31832WAT     H295739   3.009   7.128   1.005
31833WAT      O95740   4.892   1.389   1.140
31833WAT     H195741   4.900   1.297   1.100
31833WAT     H295742   4.939   1.455   1.082
31834WAT      O95743   1.565   7.890   8.563
31834WAT     H195744   1.594   7.968   8.508
31834WAT     H295745   1.591   7.805   8.517
31835WAT      O95746   0.086   8.985   2.427
31835WAT     H195747   0.087   9.073   2.474
31835WAT     H295748   0.160   8.928   2.461
31836WAT      O95749   1.701   3.170   0.374
31836WAT     H195750   1.789   3.150   0.418
31836WAT     H295751   1.627   3.161   0.441
31837WAT      O95752   9.383   7.903   3.446
31837WAT     H195753   9.304   7.932   3.391
31837WAT     H295754   9.400   7.806   3.430
31838WAT      O95755   2.655   2.221   3.648
31838WAT     H195756   2.580   2.251   3.708
31838WAT     H295757   2.733   2.283   3.659
31839WAT      O95758   7.524   5.705   7.900
31839WAT     H195759   7.546   5.611   7.924
31839WAT     H295760   7.426   5.720   7.911
31840WAT      O95761   0.264   6.663   0.986
31840WAT     H195762   0.188   6.714   1.025
31840WAT     H295763   0.350   6.706   1.012
31841WAT      O95764   4.806   5.795   2.445
31841WAT     H195765   4.861   5.858   2.500
31841WAT     H295766   4.783   5.714   2.500
31842WAT      O95767   0.519   0.858   7.254
31842WAT     H195768   0.496   0.842   7.158
31842WAT     H295769   0.565   0.778   7.292
31843WAT      O95770   8.454   5.792   2.167
31843WAT     H195771   8.361   5.826   2.181
31843WAT     H295772   8.509   5.809   2.249
31844WAT      O95773   3.474   6.789   6.660
31844WAT     H195774   3.546   6.856   6.676
31844WAT     H295775   3.395   6.832   6.617
31845WAT      O95776   0.941   8.893   8.230
31845WAT     H195777   1.015   8.958   8.250
31845WAT     H295778   0.958   8.849   8.142
31846WAT      O95779   4.608   9.133   0.726
31846WAT     H195780   4.641   9.039   0.716
31846WAT     H295781   4.537   9.136   0.796
31847WAT      O95782   2.614   7.439   5.923
31847WAT     H195783   2.605   7.538   5.922
31847WAT     H295784   2.528   7.398   5.893
31848WAT      O95785   0.831   6.655   8.817
31848WAT     H195786   0.920   6.692   8.844
31848WAT     H295787   0.798   6.703   8.736
31849WAT      O95788   7.658   3.061   8.388
31849WAT     H195789   7.656   2.970   8.429
31849WAT     H295790   7.741   3.071   8.333
31850WAT      O95791   5.701   1.537   9.736
31850WAT     H195792   5.685   1.556   9.639
31850WAT     H295793   5.784   1.584   9.766
31851WAT      O95794   7.536   7.860   3.827
31851WAT     H195795   7.451   7.845   3.878
31851WAT     H295796   7.610   7.882   3.892
31852WAT      O95797   0.666   6.311   4.940
31852WAT     H195798   0.749   6.361   4.915
31852WAT     H295799   0.588   6.348   4.889
31853WAT      O95800   0.256   3.340   6.101
31853WAT     H195801   0.240   3.435   6.073
31853WAT     H295802   0.231   3.279   6.025
31854WAT      O95803   5.218   7.687   2.650
31854WAT     H195804   5.255   7.667   2.559
31854WAT     H295805   5.292   7.692   2.716
31855WAT      O95806   2.729   7.987   9.253
31855WAT     H195807   2.709   8.043   9.173
31855WAT     H295808   2.688   7.897   9.243
31856WAT      O95809   3.794   3.883   9.629
31856WAT     H195810   3.805   3.806   9.566
31856WAT     H295811   3.850   3.960   9.598
31857WAT      O95812   7.389   0.615   1.369
31857WAT     H195813   7.415   0.590   1.463
31857WAT     H295814   7.316   0.554   1.338
31858WAT      O95815   0.334   4.494   9.646
31858WAT     H195816   0.302   4.478   9.739
31858WAT     H295817   0.281   4.437   9.583
31859WAT      O95818   2.174   5.649   7.629
31859WAT     H195819   2.136   5.604   7.548
31859WAT     H295820   2.200   5.580   7.696
31860WAT      O95821   9.627   1.840   1.595
31860WAT     H195822   9.661   1.878   1.509
31860WAT     H295823   9.602   1.915   1.657
31861WAT      O95824   0.299   0.646   6.256
31861WAT     H195825   0.393   0.680   6.256
31861WAT     H295826   0.300   0.546   6.245
31862WAT      O95827   8.241   4.782   7.570
31862WAT     H195828   8.228   4.845   7.494
31862WAT     H295829   8.293   4.827   7.643
31863WAT      O95830   1.014   4.553   1.792
31863WAT     H195831   0.971   4.517   1.875
31863WAT     H295832   0.955   4.622   1.751
31864WAT      O95833   6.019   9.752   4.601
31864WAT     H195834   6.087   9.811   4.558
31864WAT     H295835   6.064   9.693   4.668
31865WAT      O95836   7.021   9.395   2.749
31865WAT     H195837   7.089   9.442   2.693
31865WAT     H295838   6.940   9.376   2.694
31866WAT      O95839   7.890   6.679   0.736
31866WAT     H195840   7.963   6.730   0.781
31866WAT     H295841   7.929   6.603   0.684
31867WAT      O95842   6.100   4.907   2.756
31867WAT     H195843   6.081   4.931   2.661
31867WAT     H295844   6.070   4.813   2.774
31868WAT      O95845   8.502   0.361   7.477
31868WAT     H195846   8.482   0.449   7.435
31868WAT     H295847   8.598   0.360   7.507
31869WAT      O95848   4.044   3.077   2.607
31869WAT     H195849   3.993   3.136   2.669
31869WAT     H295850   3.989   2.995   2.586
31870WAT      O95851   9.659   1.311   1.243
31870WAT     H195852   9.638   1.407   1.221
31870WAT     H295853   9.641   1.295   1.340
31871WAT      O95854   5.786   6.074   3.230
31871WAT     H195855   5.698   6.081   3.277
31871WAT     H295856   5.791   5.987   3.181
31872WAT      O95857   7.091   3.265   0.261
31872WAT     H195858   7.168   3.291   0.203
31872WAT     H295859   7.014   3.238   0.203
31873WAT      O95860   3.744   6.757   1.433
31873WAT     H195861   3.646   6.777   1.435
31873WAT     H295862   3.795   6.842   1.424
31874WAT      O95863   7.355   9.397   9.350
31874WAT     H195864   7.311   9.308   9.336
31874WAT     H295865   7.286   9.465   9.373
31875WAT      O95866   2.290   5.518   7.854
31875WAT     H195867   2.214   5.470   7.898
31875WAT     H295868   2.374   5.500   7.905
31876WAT      O95869   7.977   6.502   1.714
31876WAT     H195870   7.952   6.504   1.811
31876WAT     H295871   7.897   6.528   1.659
31877WAT      O95872   4.306   0.122   2.531
31877WAT     H195873   4.363   0.187   2.580
31877WAT     H295874   4.230   0.093   2.589
31878WAT      O95875   4.116   2.108   2.735
31878WAT     H195876   4.085   2.202   2.752
31878WAT     H295877   4.208   2.096   2.772
31879WAT      O95878   5.528   3.630   9.594
31879WAT     H195879   5.535   3.551   9.655
31879WAT     H295880   5.452   3.688   9.624
31880WAT      O95881   1.891   3.207   8.364
31880WAT     H195882   1.946   3.261   8.300
31880WAT     H295883   1.920   3.228   8.458
31881WAT      O95884   3.648   4.025   3.110
31881WAT     H195885   3.677   4.046   3.016
31881WAT     H295886   3.686   3.937   3.137
31882WAT      O95887   0.529   0.280   7.937
31882WAT     H195888   0.491   0.373   7.936
31882WAT     H295889   0.531   0.244   7.844
31883WAT      O95890   5.259   8.838   4.037
31883WAT     H195891   5.190   8.902   4.007
31883WAT     H295892   5.230   8.794   4.122
31884WAT      O95893   6.865   3.129   5.226
31884WAT     H195894   6.771   3.116   5.258
31884WAT     H295895   6.923   3.157   5.302
31885WAT      O95896   8.396   2.962   0.147
31885WAT     H195897   8.486   2.925   0.170
31885WAT     H295898   8.331   2.887   0.135
31886WAT      O95899   3.195   9.679   3.051
31886WAT     H195900   3.223   9.668   2.956
31886WAT     H295901   3.105   9.638   3.064
31887WAT      O95902   3.919   0.297   3.232
31887WAT     H195903   3.922   0.223   3.299
31887WAT     H295904   4.012   0.321   3.205
31888WAT      O95905   7.348   7.223   6.526
31888WAT     H195906   7.333   7.300   6.588
31888WAT     H295907   7.367   7.257   6.434
31889WAT      O95908   8.251   0.590   3.764
31889WAT     H195909   8.327   0.585   3.829
31889WAT     H295910   8.201   0.503   3.765
31890WAT      O95911   9.600   2.956   2.176
31890WAT     H195912   9.587   2.952   2.077
31890WAT     H295913   9.531   3.017   2.216
31891WAT      O95914   3.766   2.161   3.980
31891WAT     H195915   3.766   2.232   4.051
31891WAT     H295916   3.847   2.172   3.923
31892WAT      O95917   4.169   6.334   3.479
31892WAT     H195918   4.159   6.307   3.383
31892WAT     H295919   4.235   6.272   3.523
31893WAT      O95920   4.103   4.424   1.066
31893WAT     H195921   4.050   4.343   1.041
31893WAT     H295922   4.188   4.425   1.013
31894WAT      O95923   9.144   7.408   3.950
31894WAT     H195924   9.146   7.475   4.024
31894WAT     H295925   9.057   7.359   3.952
31895WAT      O95926   9.773   8.116   2.355
31895WAT     H195927   9.865   8.140   2.384
31895WAT     H295928   9.777   8.072   2.265
31896WAT      O95929   5.019   5.006   7.084
31896WAT     H195930   5.017   4.957   6.998
31896WAT     H295931   4.977   5.096   7.073
31897WAT      O95932   0.566   4.951   3.802
31897WAT     H195933   0.518   5.037   3.789
31897WAT     H295934   0.533   4.907   3.886
31898WAT      O95935   3.273   3.975   6.330
31898WAT     H195936   3.300   4.027   6.249
31898WAT     H295937   3.180   4.000   6.356
31899WAT      O95938   5.601   5.338   7.869
31899WAT     H195939   5.538   5.410   7.900
31899WAT     H295940   5.646   5.367   7.785
   9.88928    9.84380    9.89279 
